<?xml version="1.0"?>
<VTKFile type="PolyData">
	<PolyData>
		<Piece NumberOfPoints="1206" NumberOfPolys="1000">
			<Points>
				<DataArray type="Float32" NumberOfComponents="3" format="ascii">
 0 0 0 0.005 0 0 0.01 0 0 0.015 0 0 0.02 0 0 0.025 0 0 0.03 0 0 0.035 0 0 0.04 0 0 0.045 0 0 0.05 0 0 0.055 0 0 0.06 0 0 0.065 0 0 0.07 0 0 0.075 0 0 0.08 0 0 0.085 0 0 0.09 0 0 0.095 0 0 0.1 0 0 0.105 0 0 0.11 0 0 0.115 0 0 0.12 0 0 0.125 0 0 0.13 0 0 0.135 0 0 0.14 0 0 0.145 0 0 0.15 0 0 0.155 0 0 0.16 0 0 0.165 0 0 0.17 0 0 0.175 0 0 0.18 0 0 0.185 0 0 0.19 0 0 0.195 0 0 0.2 0 0 0.205 0 0 0.21 0 0 0.215 0 0 0.22 0 0 0.225 0 0 0.23 0 0 0.235 0 0 0.24 0 0 0.245 0 0 0.25 0 0 0.255 0 0 0.26 0 0 0.265 0 0 0.27 0 0 0.275 0 0 0.28 0 0 0.285 0 0 0.29 0 0 0.295 0 0 0.3 0 0 0.305 0 0 0.31 0 0 0.315 0 0 0.32 0 0 0.325 0 0 0.33 0 0 0.335 0 0 0.34 0 0 0.345 0 0 0.35 0 0 0.355 0 0 0.36 0 0 0.365 0 0 0.37 0 0 0.375 0 0 0.38 0 0 0.385 0 0 0.39 0 0 0.395 0 0 0.4 0 0 0.405 0 0 0.41 0 0 0.415 0 0 0.42 0 0 0.425 0 0 0.43 0 0 0.435 0 0 0.44 0 0 0.445 0 0 0.45 0 0 0.455 0 0 0.46 0 0 0.465 0 0 0.47 0 0 0.475 0 0 0.48 0 0 0.485 0 0 0.49 0 0 0.495 0 0 0.5 0 0 0.505 0 0 0.51 0 0 0.515 0 0 0.52 0 0 0.525 0 0 0.53 0 0 0.535 0 0 0.54 0 0 0.545 0 0 0.55 0 0 0.555 0 0 0.56 0 0 0.565 0 0 0.57 0 0 0.575 0 0 0.58 0 0 0.585 0 0 0.59 0 0 0.595 0 0 0.6 0 0 0.605 0 0 0.61 0 0 0.615 0 0 0.62 0 0 0.625 0 0 0.63 0 0 0.635 0 0 0.64 0 0 0.645 0 0 0.65 0 0 0.655 0 0 0.66 0 0 0.665 0 0 0.67 0 0 0.675 0 0 0.68 0 0 0.685 0 0 0.69 0 0 0.695 0 0 0.7 0 0 0.705 0 0 0.71 0 0 0.715 0 0 0.72 0 0 0.725 0 0 0.73 0 0 0.735 0 0 0.74 0 0 0.745 0 0 0.75 0 0 0.755 0 0 0.76 0 0 0.765 0 0 0.77 0 0 0.775 0 0 0.78 0 0 0.785 0 0 0.79 0 0 0.795 0 0 0.8 0 0 0.805 0 0 0.81 0 0 0.815 0 0 0.82 0 0 0.825 0 0 0.83 0 0 0.835 0 0 0.84 0 0 0.845 0 0 0.85 0 0 0.855 0 0 0.86 0 0 0.865 0 0 0.87 0 0 0.875 0 0 0.88 0 0 0.885 0 0 0.89 0 0 0.895 0 0 0.9 0 0 0.905 0 0 0.91 0 0 0.915 0 0 0.92 0 0 0.925 0 0 0.93 0 0 0.935 0 0 0.94 0 0 0.945 0 0 0.95 0 0 0.955 0 0 0.96 0 0 0.965 0 0 0.97 0 0 0.975 0 0 0.98 0 0 0.985 0 0 0.99 0 0 0.995 0 0 1 0 0 0 0.02 0 0.005 0.02 0 0.01 0.02 0 0.015 0.02 0 0.02 0.02 0 0.025 0.02 0 0.03 0.02 0 0.035 0.02 0 0.04 0.02 0 0.045 0.02 0 0.05 0.02 0 0.055 0.02 0 0.06 0.02 0 0.065 0.02 0 0.07 0.02 0 0.075 0.02 0 0.08 0.02 0 0.085 0.02 0 0.09 0.02 0 0.095 0.02 0 0.1 0.02 0 0.105 0.02 0 0.11 0.02 0 0.115 0.02 0 0.12 0.02 0 0.125 0.02 0 0.13 0.02 0 0.135 0.02 0 0.14 0.02 0 0.145 0.02 0 0.15 0.02 0 0.155 0.02 0 0.16 0.02 0 0.165 0.02 0 0.17 0.02 0 0.175 0.02 0 0.18 0.02 0 0.185 0.02 0 0.19 0.02 0 0.195 0.02 0 0.2 0.02 0 0.205 0.02 0 0.21 0.02 0 0.215 0.02 0 0.22 0.02 0 0.225 0.02 0 0.23 0.02 0 0.235 0.02 0 0.24 0.02 0 0.245 0.02 0 0.25 0.02 0 0.255 0.02 0 0.26 0.02 0 0.265 0.02 0 0.27 0.02 0 0.275 0.02 0 0.28 0.02 0 0.285 0.02 0 0.29 0.02 0 0.295 0.02 0 0.3 0.02 0 0.305 0.02 0 0.31 0.02 0 0.315 0.02 0 0.32 0.02 0 0.325 0.02 0 0.33 0.02 0 0.335 0.02 0 0.34 0.02 0 0.345 0.02 0 0.35 0.02 0 0.355 0.02 0 0.36 0.02 0 0.365 0.02 0 0.37 0.02 0 0.375 0.02 0 0.38 0.02 0 0.385 0.02 0 0.39 0.02 0 0.395 0.02 0 0.4 0.02 0 0.405 0.02 0 0.41 0.02 0 0.415 0.02 0 0.42 0.02 0 0.425 0.02 0 0.43 0.02 0 0.435 0.02 0 0.44 0.02 0 0.445 0.02 0 0.45 0.02 0 0.455 0.02 0 0.46 0.02 0 0.465 0.02 0 0.47 0.02 0 0.475 0.02 0 0.48 0.02 0 0.485 0.02 0 0.49 0.02 0 0.495 0.02 0 0.5 0.02 0 0.505 0.02 0 0.51 0.02 0 0.515 0.02 0 0.52 0.02 0 0.525 0.02 0 0.53 0.02 0 0.535 0.02 0 0.54 0.02 0 0.545 0.02 0 0.55 0.02 0 0.555 0.02 0 0.56 0.02 0 0.565 0.02 0 0.57 0.02 0 0.575 0.02 0 0.58 0.02 0 0.585 0.02 0 0.59 0.02 0 0.595 0.02 0 0.6 0.02 0 0.605 0.02 0 0.61 0.02 0 0.615 0.02 0 0.62 0.02 0 0.625 0.02 0 0.63 0.02 0 0.635 0.02 0 0.64 0.02 0 0.645 0.02 0 0.65 0.02 0 0.655 0.02 0 0.66 0.02 0 0.665 0.02 0 0.67 0.02 0 0.675 0.02 0 0.68 0.02 0 0.685 0.02 0 0.69 0.02 0 0.695 0.02 0 0.7 0.02 0 0.705 0.02 0 0.71 0.02 0 0.715 0.02 0 0.72 0.02 0 0.725 0.02 0 0.73 0.02 0 0.735 0.02 0 0.74 0.02 0 0.745 0.02 0 0.75 0.02 0 0.755 0.02 0 0.76 0.02 0 0.765 0.02 0 0.77 0.02 0 0.775 0.02 0 0.78 0.02 0 0.785 0.02 0 0.79 0.02 0 0.795 0.02 0 0.8 0.02 0 0.805 0.02 0 0.81 0.02 0 0.815 0.02 0 0.82 0.02 0 0.825 0.02 0 0.83 0.02 0 0.835 0.02 0 0.84 0.02 0 0.845 0.02 0 0.85 0.02 0 0.855 0.02 0 0.86 0.02 0 0.865 0.02 0 0.87 0.02 0 0.875 0.02 0 0.88 0.02 0 0.885 0.02 0 0.89 0.02 0 0.895 0.02 0 0.9 0.02 0 0.905 0.02 0 0.91 0.02 0 0.915 0.02 0 0.92 0.02 0 0.925 0.02 0 0.93 0.02 0 0.935 0.02 0 0.94 0.02 0 0.945 0.02 0 0.95 0.02 0 0.955 0.02 0 0.96 0.02 0 0.965 0.02 0 0.97 0.02 0 0.975 0.02 0 0.98 0.02 0 0.985 0.02 0 0.99 0.02 0 0.995 0.02 0 1 0.02 0 0 0.04 0 0.005 0.04 0 0.01 0.04 0 0.015 0.04 0 0.02 0.04 0 0.025 0.04 0 0.03 0.04 0 0.035 0.04 0 0.04 0.04 0 0.045 0.04 0 0.05 0.04 0 0.055 0.04 0 0.06 0.04 0 0.065 0.04 0 0.07 0.04 0 0.075 0.04 0 0.08 0.04 0 0.085 0.04 0 0.09 0.04 0 0.095 0.04 0 0.1 0.04 0 0.105 0.04 0 0.11 0.04 0 0.115 0.04 0 0.12 0.04 0 0.125 0.04 0 0.13 0.04 0 0.135 0.04 0 0.14 0.04 0 0.145 0.04 0 0.15 0.04 0 0.155 0.04 0 0.16 0.04 0 0.165 0.04 0 0.17 0.04 0 0.175 0.04 0 0.18 0.04 0 0.185 0.04 0 0.19 0.04 0 0.195 0.04 0 0.2 0.04 0 0.205 0.04 0 0.21 0.04 0 0.215 0.04 0 0.22 0.04 0 0.225 0.04 0 0.23 0.04 0 0.235 0.04 0 0.24 0.04 0 0.245 0.04 0 0.25 0.04 0 0.255 0.04 0 0.26 0.04 0 0.265 0.04 0 0.27 0.04 0 0.275 0.04 0 0.28 0.04 0 0.285 0.04 0 0.29 0.04 0 0.295 0.04 0 0.3 0.04 0 0.305 0.04 0 0.31 0.04 0 0.315 0.04 0 0.32 0.04 0 0.325 0.04 0 0.33 0.04 0 0.335 0.04 0 0.34 0.04 0 0.345 0.04 0 0.35 0.04 0 0.355 0.04 0 0.36 0.04 0 0.365 0.04 0 0.37 0.04 0 0.375 0.04 0 0.38 0.04 0 0.385 0.04 0 0.39 0.04 0 0.395 0.04 0 0.4 0.04 0 0.405 0.04 0 0.41 0.04 0 0.415 0.04 0 0.42 0.04 0 0.425 0.04 0 0.43 0.04 0 0.435 0.04 0 0.44 0.04 0 0.445 0.04 0 0.45 0.04 0 0.455 0.04 0 0.46 0.04 0 0.465 0.04 0 0.47 0.04 0 0.475 0.04 0 0.48 0.04 0 0.485 0.04 0 0.49 0.04 0 0.495 0.04 0 0.5 0.04 0 0.505 0.04 0 0.51 0.04 0 0.515 0.04 0 0.52 0.04 0 0.525 0.04 0 0.53 0.04 0 0.535 0.04 0 0.54 0.04 0 0.545 0.04 0 0.55 0.04 0 0.555 0.04 0 0.56 0.04 0 0.565 0.04 0 0.57 0.04 0 0.575 0.04 0 0.58 0.04 0 0.585 0.04 0 0.59 0.04 0 0.595 0.04 0 0.6 0.04 0 0.605 0.04 0 0.61 0.04 0 0.615 0.04 0 0.62 0.04 0 0.625 0.04 0 0.63 0.04 0 0.635 0.04 0 0.64 0.04 0 0.645 0.04 0 0.65 0.04 0 0.655 0.04 0 0.66 0.04 0 0.665 0.04 0 0.67 0.04 0 0.675 0.04 0 0.68 0.04 0 0.685 0.04 0 0.69 0.04 0 0.695 0.04 0 0.7 0.04 0 0.705 0.04 0 0.71 0.04 0 0.715 0.04 0 0.72 0.04 0 0.725 0.04 0 0.73 0.04 0 0.735 0.04 0 0.74 0.04 0 0.745 0.04 0 0.75 0.04 0 0.755 0.04 0 0.76 0.04 0 0.765 0.04 0 0.77 0.04 0 0.775 0.04 0 0.78 0.04 0 0.785 0.04 0 0.79 0.04 0 0.795 0.04 0 0.8 0.04 0 0.805 0.04 0 0.81 0.04 0 0.815 0.04 0 0.82 0.04 0 0.825 0.04 0 0.83 0.04 0 0.835 0.04 0 0.84 0.04 0 0.845 0.04 0 0.85 0.04 0 0.855 0.04 0 0.86 0.04 0 0.865 0.04 0 0.87 0.04 0 0.875 0.04 0 0.88 0.04 0 0.885 0.04 0 0.89 0.04 0 0.895 0.04 0 0.9 0.04 0 0.905 0.04 0 0.91 0.04 0 0.915 0.04 0 0.92 0.04 0 0.925 0.04 0 0.93 0.04 0 0.935 0.04 0 0.94 0.04 0 0.945 0.04 0 0.95 0.04 0 0.955 0.04 0 0.96 0.04 0 0.965 0.04 0 0.97 0.04 0 0.975 0.04 0 0.98 0.04 0 0.985 0.04 0 0.99 0.04 0 0.995 0.04 0 1 0.04 0 0 0.06 0 0.005 0.06 0 0.01 0.06 0 0.015 0.06 0 0.02 0.06 0 0.025 0.06 0 0.03 0.06 0 0.035 0.06 0 0.04 0.06 0 0.045 0.06 0 0.05 0.06 0 0.055 0.06 0 0.06 0.06 0 0.065 0.06 0 0.07 0.06 0 0.075 0.06 0 0.08 0.06 0 0.085 0.06 0 0.09 0.06 0 0.095 0.06 0 0.1 0.06 0 0.105 0.06 0 0.11 0.06 0 0.115 0.06 0 0.12 0.06 0 0.125 0.06 0 0.13 0.06 0 0.135 0.06 0 0.14 0.06 0 0.145 0.06 0 0.15 0.06 0 0.155 0.06 0 0.16 0.06 0 0.165 0.06 0 0.17 0.06 0 0.175 0.06 0 0.18 0.06 0 0.185 0.06 0 0.19 0.06 0 0.195 0.06 0 0.2 0.06 0 0.205 0.06 0 0.21 0.06 0 0.215 0.06 0 0.22 0.06 0 0.225 0.06 0 0.23 0.06 0 0.235 0.06 0 0.24 0.06 0 0.245 0.06 0 0.25 0.06 0 0.255 0.06 0 0.26 0.06 0 0.265 0.06 0 0.27 0.06 0 0.275 0.06 0 0.28 0.06 0 0.285 0.06 0 0.29 0.06 0 0.295 0.06 0 0.3 0.06 0 0.305 0.06 0 0.31 0.06 0 0.315 0.06 0 0.32 0.06 0 0.325 0.06 0 0.33 0.06 0 0.335 0.06 0 0.34 0.06 0 0.345 0.06 0 0.35 0.06 0 0.355 0.06 0 0.36 0.06 0 0.365 0.06 0 0.37 0.06 0 0.375 0.06 0 0.38 0.06 0 0.385 0.06 0 0.39 0.06 0 0.395 0.06 0 0.4 0.06 0 0.405 0.06 0 0.41 0.06 0 0.415 0.06 0 0.42 0.06 0 0.425 0.06 0 0.43 0.06 0 0.435 0.06 0 0.44 0.06 0 0.445 0.06 0 0.45 0.06 0 0.455 0.06 0 0.46 0.06 0 0.465 0.06 0 0.47 0.06 0 0.475 0.06 0 0.48 0.06 0 0.485 0.06 0 0.49 0.06 0 0.495 0.06 0 0.5 0.06 0 0.505 0.06 0 0.51 0.06 0 0.515 0.06 0 0.52 0.06 0 0.525 0.06 0 0.53 0.06 0 0.535 0.06 0 0.54 0.06 0 0.545 0.06 0 0.55 0.06 0 0.555 0.06 0 0.56 0.06 0 0.565 0.06 0 0.57 0.06 0 0.575 0.06 0 0.58 0.06 0 0.585 0.06 0 0.59 0.06 0 0.595 0.06 0 0.6 0.06 0 0.605 0.06 0 0.61 0.06 0 0.615 0.06 0 0.62 0.06 0 0.625 0.06 0 0.63 0.06 0 0.635 0.06 0 0.64 0.06 0 0.645 0.06 0 0.65 0.06 0 0.655 0.06 0 0.66 0.06 0 0.665 0.06 0 0.67 0.06 0 0.675 0.06 0 0.68 0.06 0 0.685 0.06 0 0.69 0.06 0 0.695 0.06 0 0.7 0.06 0 0.705 0.06 0 0.71 0.06 0 0.715 0.06 0 0.72 0.06 0 0.725 0.06 0 0.73 0.06 0 0.735 0.06 0 0.74 0.06 0 0.745 0.06 0 0.75 0.06 0 0.755 0.06 0 0.76 0.06 0 0.765 0.06 0 0.77 0.06 0 0.775 0.06 0 0.78 0.06 0 0.785 0.06 0 0.79 0.06 0 0.795 0.06 0 0.8 0.06 0 0.805 0.06 0 0.81 0.06 0 0.815 0.06 0 0.82 0.06 0 0.825 0.06 0 0.83 0.06 0 0.835 0.06 0 0.84 0.06 0 0.845 0.06 0 0.85 0.06 0 0.855 0.06 0 0.86 0.06 0 0.865 0.06 0 0.87 0.06 0 0.875 0.06 0 0.88 0.06 0 0.885 0.06 0 0.89 0.06 0 0.895 0.06 0 0.9 0.06 0 0.905 0.06 0 0.91 0.06 0 0.915 0.06 0 0.92 0.06 0 0.925 0.06 0 0.93 0.06 0 0.935 0.06 0 0.94 0.06 0 0.945 0.06 0 0.95 0.06 0 0.955 0.06 0 0.96 0.06 0 0.965 0.06 0 0.97 0.06 0 0.975 0.06 0 0.98 0.06 0 0.985 0.06 0 0.99 0.06 0 0.995 0.06 0 1 0.06 0 0 0.08 0 0.005 0.08 0 0.01 0.08 0 0.015 0.08 0 0.02 0.08 0 0.025 0.08 0 0.03 0.08 0 0.035 0.08 0 0.04 0.08 0 0.045 0.08 0 0.05 0.08 0 0.055 0.08 0 0.06 0.08 0 0.065 0.08 0 0.07 0.08 0 0.075 0.08 0 0.08 0.08 0 0.085 0.08 0 0.09 0.08 0 0.095 0.08 0 0.1 0.08 0 0.105 0.08 0 0.11 0.08 0 0.115 0.08 0 0.12 0.08 0 0.125 0.08 0 0.13 0.08 0 0.135 0.08 0 0.14 0.08 0 0.145 0.08 0 0.15 0.08 0 0.155 0.08 0 0.16 0.08 0 0.165 0.08 0
[...]
			<PointData Scalars="VitesseX">
				<DataArray Name="VitesseX" type="Float32" format="ascii">
 0 -2.26734e-14 -2.00947e-14 -5.20855e-14 -2.79939e-14 7.68623e-15 1.15301e-14 -4.92874e-14 -6.50213e-14 -8.35397e-14 -4.64622e-14 6.26715e-14 -7.63472e-14 -7.50061e-15 -1.13154e-13 -1.29216e-15 -6.28473e-14 -2.47332e-13 -4.36286e-14 1.30676e-14 6.52913e-15 -1.40544e-13 -2.32005e-14 1.20437e-13 1.10846e-13 -3.06071e-14 -1.6843e-13 -1.64488e-13 1.45547e-13 5.27269e-14 -1.31973e-15 -2.2988e-13 -1.02137e-13 -4.43868e-14 2.04411e-14 -1.36494e-13 -3.23586e-13 9.65882e-14 -1.16225e-13 2.38997e-13 -7.83233e-14 -1.95463e-13 1.14217e-14 1.09057e-13 -1.87733e-13 -1.3338e-13 -5.38673e-13 -5.54218e-14 -1.44488e-14 3.12112e-13 -1.8719e-13 -6.01767e-13 2.54861e-13 -1.60899e-14 6.81613e-13 -8.97003e-14 -2.94477e-13 1.7001e-13 -2.90614e-13 2.07581e-13 -2.15717e-13 -4.70945e-13 1.16318e-13 -1.39962e-13 -1.22039e-13 -9.41512e-14 1.38875e-14 6.07838e-13 -1.95525e-13 -2.22375e-13 9.29543e-14 -3.43481e-13 3.88358e-13 -8.22204e-13 -1.01252e-13 -5.39625e-13 3.21351e-13 1.80215e-13 -5.37509e-13 4.00003e-12 5.55911e-11 8.84124e-10 1.24403e-08 1.54164e-07 1.66506e-06 1.5478e-05 0.000121914 0.000797405 0.00421647 0.0174059 0.0539511 0.122705 0.210822 0.299092 0.382908 0.462826 0.538714 0.610169 0.676416 0.736415 0.788953 0.832898 0.867513 0.892809 0.909753 0.919851 0.925597 0.927582 0.926173 0.920238 0.906507 0.88014 0.835175 0.76591 0.669135 0.54679 0.408267 0.270491 0.153596 0.0724216 0.02829 0.00957234 0.00296917 0.000873467 0.000246997 6.7422e-05 1.77851e-05 4.53483e-06 1.11775e-06 2.66353e-07 6.13725e-08 1.36777e-08 2.94866e-09 6.14695e-10 1.24298e-10 2.43561e-11 5.11187e-12 6.09669e-13 -2.49469e-13 9.00605e-14 -2.41623e-13 2.91797e-13 8.60079e-13 -5.2149e-13 -7.66974e-13 -1.8916e-13 3.52006e-13 5.76271e-13 -8.87532e-13 -2.76869e-13 1.46454e-12 2.82568e-13 4.22999e-13 -3.81907e-13 -7.49665e-13 4.98917e-13 4.64392e-13 -3.63293e-14 -1.17682e-12 -1.15132e-12 1.07126e-12 1.3386e-12 -2.39281e-13 -1.74622e-12 -6.90386e-13 1.15209e-12 4.93709e-13 -5.34118e-14 -6.06972e-13 6.54436e-13 -4.36129e-13 -3.67936e-13 6.88645e-13 6.8502e-13 4.6904e-13 -1.08767e-12 -3.57543e-13 8.92931e-13 3.41064e-13 1.854e-13 -1.22837e-12 -8.18447e-13 -1.74782e-13 8.47009e-13 -7.92178e-13 -9.82248e-13 -6.71798e-13 1.49113e-12 8.06109e-13 4.00207e-13 -2.32935e-12 1.50712e-13 1.81259e-12 -7.68726e-13 -1.71664e-12 -1.30416e-12 1.36088e-12 1.45891e-12 -1.99238e-12 -2.45046e-12 0 0 7.8059e-15 -1.25515e-14 5.43708e-15 -2.19108e-14 -6.04111e-14 -6.77579e-14 -2.74809e-14 -1.26592e-14 3.39169e-14 -2.35527e-14 -8.3165e-14 1.65849e-14 -5.10269e-14 -1.14895e-14 -9.65814e-14 -7.53973e-14 5.49016e-15 -1.56802e-13 -1.88386e-13 -1.40214e-13 4.5671e-14 1.10191e-13 -6.48734e-14 -2.04021e-14 -5.50053e-14 -5.6959e-14 6.8036e-14 -1.69037e-13 4.83743e-14 -3.07797e-14 7.32652e-14 -9.47915e-14 -1.01259e-13 -2.41233e-13 -1.77685e-13 1.67724e-13 4.11195e-15 1.26986e-15 -2.18824e-13 -5.10783e-14 -6.33766e-14 -1.6272e-13 -1.98538e-13 5.27797e-14 -7.39006e-14 1.00548e-13 -3.79952e-13 -2.34963e-13 -5.00936e-13 1.50535e-13 4.0559e-13 1.42646e-13 7.828e-14 -3.62029e-13 2.04701e-13 1.87198e-13 -2.24518e-13 1.68454e-13 -3.53173e-13 -1.37942e-13 1.11816e-13 -5.40152e-13 3.00537e-14 7.82267e-14 8.3655e-14 8.37389e-14 -3.66439e-13 3.72908e-13 1.25387e-13 -1.5146e-13 -4.07948e-14 -5.60669e-13 1.37672e-13 -2.39965e-13 -2.89462e-14 -2.75775e-13 -3.90539e-13 6.47403e-13 3.3126e-12 5.61809e-11 8.84219e-10 1.24392e-08 1.54165e-07 1.66506e-06 1.5478e-05 0.000121914 0.000797405 0.00421647 0.0174059 0.0539511 0.122705 0.210822 0.299092 0.382908 0.462826 0.538714 0.610169 0.676416 0.736415 0.788953 0.832898 0.867513 0.892809 0.909753 0.919851 0.925597 0.927582 0.926173 0.920238 0.906507 0.88014 0.835175 0.76591 0.669135 0.54679 0.408267 0.270491 0.153596 0.0724216 0.02829 0.00957234 0.00296917 0.000873467 0.000246997 6.7422e-05 1.77851e-05 4.53483e-06 1.11775e-06 2.66353e-07 6.13726e-08 1.36768e-08 2.94889e-09 6.15359e-10 1.24191e-10 2.44052e-11 4.04894e-12 9.37646e-13 2.62113e-13 -5.58097e-13 1.72195e-13 1.61773e-13 -3.00661e-13 2.06814e-13 3.66194e-13 -3.65819e-13 -1.87955e-13 -5.8431e-13 4.87792e-13 8.21408e-13 -3.39381e-13 2.26752e-13 2.04848e-13 4.55771e-13 2.55315e-13 -4.43843e-13 -8.70011e-13 -9.00198e-14 6.78094e-13 3.15624e-13 -7.41159e-13 -1.14081e-12 5.3238e-14 1.15381e-12 -2.53035e-14 -4.93605e-13 -4.52886e-13 1.73004e-14 6.4356e-13 -5.24715e-13 4.45071e-13 2.32712e-13 -2.33487e-14 1.88747e-13 -4.19983e-13 6.6087e-13 4.0301e-13 -2.52466e-13 -2.89888e-13 -8.67532e-13 3.98591e-13 2.31521e-13 -5.93459e-13 -1.16767e-12 -6.868e-13 5.55883e-13 4.39302e-13 -2.24797e-13 -4.05824e-13 -6.66652e-13 1.06531e-12 -4.70736e-13 -1.24957e-12 5.53979e-13 7.06803e-13 -1.4661e-13 -1.1789e-12 -1.57744e-12 7.78632e-13 6.77916e-13 0 0 -1.29818e-14 5.53996e-15 -1.41817e-14 -4.37801e-14 -4.04331e-14 -1.84226e-14 -4.30199e-14 -1.1726e-16 -2.51168e-14 -4.53249e-15 2.01146e-14 -2.07006e-14 -8.24512e-14 -4.47361e-14 -4.30726e-14 -1.80678e-14 -1.12507e-13 -1.25163e-13 -1.35093e-13 -8.16309e-14 1.93987e-14 -5.66238e-14 3.22501e-14 -1.31051e-13 -3.69928e-14 -6.02845e-14 -6.28526e-14 -3.39597e-15 8.37972e-14 -3.27113e-14 5.64472e-14 -2.63392e-14 -1.85778e-13 -5.92996e-14 -9.61124e-14 -7.96376e-14 -2.91649e-14 -8.56028e-14 1.889e-14 -2.33636e-14 -1.38443e-13 -1.8581e-13 -3.27432e-13 -6.7036e-14 -1.83175e-15 -3.87193e-14 -3.45979e-14 -2.34523e-13 -1.33975e-13 1.49502e-13 3.9067e-13 1.20799e-13 -2.68114e-13 -2.83588e-13 6.13619e-14 2.57285e-13 2.2463e-13 -1.60699e-13 -3.55993e-13 -4.17952e-13 -1.6217e-13 1.48719e-13 -9.81268e-14 -2.51248e-14 -2.634e-14 -1.2367e-13 1.28115e-13 4.33038e-13 -1.14962e-13 1.37993e-13 -2.0296e-13 -9.88471e-15 -1.0263e-13 -1.84608e-13 -4.03913e-13 -1.25664e-13 2.44571e-13 1.34787e-13 3.42269e-12 5.60784e-11 8.83701e-10 1.24389e-08 1.54165e-07 1.66506e-06 1.5478e-05 0.000121914 0.000797405 0.00421647 0.0174059 0.0539511 0.122705 0.210822 0.299092 0.382908 0.462826 0.538714 0.610169 0.676416 0.736415 0.788953 0.832898 0.867513 0.892809 0.909753 0.919851 0.925597 0.927582 0.926173 0.920238 0.906507 0.88014 0.835175 0.76591 0.669135 0.54679 0.408267 0.270491 0.153596 0.0724216 0.02829 0.00957234 0.00296917 0.000873467 0.000246997 6.7422e-05 1.77851e-05 4.53483e-06 1.11775e-06 2.66353e-07 6.13723e-08 1.36774e-08 2.94859e-09 6.15126e-10 1.24196e-10 2.36587e-11 4.77229e-12 8.75284e-13 -1.96227e-13 -1.82967e-13 -3.36465e-13 6.86608e-14 2.74292e-13 -3.88366e-13 1.85766e-14 7.75272e-13 -1.0477e-13 2.1022e-13 -1.58406e-13 -5.50049e-13 6.38129e-13 4.37629e-13 3.55046e-13 -3.66096e-13 2.35592e-13 -2.97583e-13 -3.08758e-13 -5.52867e-13 -2.43642e-13 -3.37509e-13 2.29792e-13 6.64878e-14 -4.50389e-13 1.41274e-13 -4.56567e-13 -2.51839e-13 4.73595e-13 7.54736e-13 -1.73684e-13 1.03831e-13 -1.03106e-12 4.05674e-13 6.25984e-13 -4.15361e-13 3.32466e-13 -8.08823e-14 1.282e-13 4.33566e-13 -2.16984e-13 -2.81992e-13 -4.27456e-13 -6.44954e-13 1.01412e-13 -1.15186e-12 1.61019e-13 -3.50835e-13 4.22978e-13 -2.47872e-13 -8.12631e-13 4.81748e-13 -7.48753e-13 2.87011e-13 2.07964e-13 -7.5494e-13 1.28632e-13 1.49829e-13 -8.2892e-14 -6.31995e-13 -3.46983e-13 -2.73986e-13 0 0 -1.36459e-14 -2.04008e-14 -6.06033e-14 -3.97789e-14 -5.45381e-15 4.69035e-14 4.90948e-15 1.54566e-15 -2.58554e-14 -1.33667e-14 -1.55447e-16 -4.89995e-14 -8.80275e-14 -1.42158e-13 1.3495e-14 -4.97352e-14 -1.94985e-13 -1.37196e-14 7.59759e-15 -3.20253e-14 -1.11516e-13 -1.24959e-13 -3.08369e-14 2.88e-14 -1.17561e-13 -7.67605e-14 -1.34176e-13 6.1018e-14 1.28731e-13 6.36379e-14 -1.43869e-13 4.24695e-14 -1.57625e-14 -2.37254e-14 -2.69967e-14 -2.6559e-13 4.51233e-14 -1.19675e-13 1.52953e-13 -5.40872e-14 -3.49989e-13 1.3687e-14 -7.58395e-14 -2.76558e-13 -1.06454e-13 -1.95499e-13 5.0712e-14 -1.93552e-14 3.45993e-13 -1.2376e-13 -2.25394e-13 2.58075e-13 -1.20448e-14 -2.11583e-15 -2.24793e-13 8.86436e-14 -1.10459e-13 -1.11076e-13 6.29771e-14 -1.94018e-13 -4.77434e-13 -1.86861e-13 -9.62053e-14 -1.76915e-13 1.76364e-14 2.73236e-13 7.24687e-13 -1.47832e-14 -3.49896e-14 -5.28567e-14 1.70339e-13 2.44507e-13 -3.92484e-13 -3.98786e-13 -4.17654e-13 1.54834e-13 1.82006e-13 1.48089e-13 3.49043e-12 5.55252e-11 8.8385e-10 1.24396e-08 1.54164e-07 1.66506e-06 1.5478e-05 0.000121914 0.000797405 0.00421647 0.0174059 0.0539511 0.122705 0.210822 0.299092 0.382908 0.462826 0.538714 0.610169 0.676416 0.736415 0.788953 0.832898 0.867513 0.892809 0.909753 0.919851 0.925597 0.927582 0.926173 0.920238 0.906507 0.88014 0.835175 0.76591 0.669135 0.54679 0.408267 0.270491 0.153596 0.0724216 0.02829 0.00957234 0.00296917 0.000873467 0.000246997 6.7422e-05 1.77851e-05 4.53483e-06 1.11775e-06 2.66352e-07 6.13726e-08 1.36775e-08 2.94873e-09 6.14709e-10 1.23899e-10 2.40552e-11 4.67086e-12 8.05893e-13 2.76689e-13 -4.91291e-13 -1.21118e-13 3.919e-13 4.59877e-13 1.17836e-14 -1.98261e-13 4.06253e-13 6.86531e-13 4.66708e-13 -3.93891e-13 -2.45995e-13 7.49416e-13 -2.62975e-13 -3.60192e-13 -3.58995e-13 -6.85857e-13 4.9955e-13 2.76267e-14 -2.59197e-13 -7.93775e-13 -1.45202e-12 3.89247e-13 3.71348e-13 -2.85052e-13 -4.38593e-13 -3.1702e-13 1.62599e-13 4.02241e-14 -6.6531e-13 5.83917e-14 3.5837e-13 -6.68316e-14 1.12598e-13 5.9196e-14 8.4554e-13 -1.78314e-13 -4.33925e-13 -2.46129e-13 2.78325e-13 6.48567e-13 3.7188e-13 -1.23066e-12 -6.28082e-13 -6.29854e-13 5.08925e-13 -3.95776e-14 -1.46069e-13 -3.8762e-14 -1.57609e-13 4.36184e-13 -6.10701e-14 -1.04112e-12 5.29251e-13 7.09044e-13 -2.62992e-13 -3.82186e-13 -8.21175e-13 1.26919e-12 3.3461e-13 -1.27363e-12 -1.62864e-12 0 0 2.7926e-15 -3.5841e-14 -1.59426e-14 4.6183e-15 -4.99684e-15 1.82689e-14 2.74858e-14 1.74601e-14 6.75338e-14 -2.08033e-14 -1.11008e-13 -1.11009e-14 -9.81206e-14 -7.60932e-14 -1.48162e-13 -1.26049e-13 3.32986e-14 -6.61535e-14 -1.26807e-13 -1.5538e-13 -2.96321e-14 6.15244e-14 -1.58135e-13 3.98234e-14 -1.1107e-13 7.93986e-15 1.16364e-13 -1.63752e-13 3.43187e-14 9.63797e-14 7.13607e-15 1.7849e-14 4.76046e-14 -1.88174e-13 -1.84091e-13 -1.40757e-14 1.85769e-14 -6.38345e-14 -5.42406e-14 -1.28043e-13 -1.07501e-13 -8.35668e-14 -5.88403e-14 -1.49511e-13 -2.00227e-13 5.37136e-14 -4.2576e-13 -1.57738e-13 -1.78701e-13 1.09381e-13 1.315e-13 7.03851e-15 1.36545e-13 -4.07565e-13 3.98105e-14 1.12906e-13 -4.53919e-13 2.37701e-13 -1.78274e-13 -1.16147e-13 -2.05815e-13 -7.38814e-13 1.12334e-13 2.45654e-13 2.89285e-13 3.55511e-13 1.46205e-13 2.86643e-13 3.01574e-13 -3.47521e-13 8.79399e-14 -7.40341e-13 -1.75868e-14 -1.28394e-13 1.00524e-13 -1.2664e-13 -1.50772e-13 1.00778e-12 3.17819e-12 5.59801e-11 8.84007e-10 1.24395e-08 1.54165e-07 1.66506e-06 1.5478e-05 0.000121914 0.000797405 0.00421647 0.0174059 0.0539511 0.122705 0.210822 0.299092 0.382908 0.462826 0.538714 0.610169 0.676416 0.736415 0.788953 0.832898 0.867513 0.892809 0.909753 0.919851 0.925597 0.927582 0.926173 0.920238 0.906507 0.88014 0.835175 0.76591 0.669135 0.54679 0.408267 0.270491 0.153596 0.0724216 0.02829 0.00957234 0.00296917 0.000873467 0.000246997 6.7422e-05 1.77851e-05 4.53483e-06 1.11775e-06 2.66353e-07 6.13725e-08 1.36765e-08 2.94887e-09 6.15162e-10 1.23556e-10 2.46423e-11 3.8926e-12 8.42729e-13 6.95499e-13 -4.81324e-13 4.96805e-13 7.58169e-13 -6.61742e-14 6.72554e-13 5.49727e-13 -3.2362e-13 6.83325e-14 -2.77922e-13 8.8784e-13 1.00429e-12 -7.17318e-13 -2.62239e-13 -2.55042e-13 1.35701e-14 -5.35829e-13 -3.75308e-13 -7.4486e-13 -3.88813e-13 5.90831e-14 -1.01268e-12 -1.47146e-12 -1.1811e-12 7.45774e-13 1.75569e-12 7.98842e-13 -5.03452e-13 -1.28277e-12 -1.40471e-12 3.23797e-13 3.27877e-13 1.14707e-12 -2.52549e-13 -1.10893e-12 2.13314e-13 -4.798e-13 6.56957e-13 1.31749e-13 1.24504e-13 3.66443e-13 -2.50823e-13 4.21333e-15 1.55394e-13 -1.51776e-12 -4.77269e-13 -6.38475e-13 1.08591e-12 1.52214e-13 1.0282e-13 3.87757e-13 -1.13994e-12 7.54468e-13 -2.82348e-13 -9.24682e-13 1.01436e-12 6.12287e-13 -5.57424e-13 -7.34081e-13 -1.32116e-12 -1.98878e-13 4.26018e-13 0 0 -3.13718e-14 -1.47922e-14 -2.00162e-15 1.70619e-14 4.85561e-14 5.29314e-14 -3.52126e-14 -8.10858e-15 -1.48289e-14 -2.32948e-14 4.75263e-14 -7.51212e-14 -9.05353e-14 -4.7518e-14 -2.17588e-13 -1.00815e-13 -2.676e-14 -8.52192e-14 -1.49155e-13 -1.23014e-13 -2.93211e-14 1.6137e-14 6.00879e-14 -8.84059e-14 1.84e-14 -5.68023e-15 7.48152e-14 2.72879e-14 -6.52519e-14 6.03007e-14 3.84928e-14 -1.44729e-14 -8.66899e-14 5.54094e-14 -2.87537e-13 -3.15281e-13 -2.30584e-14 -1.7829e-13 3.00037e-13 -1.70806e-13 1.3938e-13 -2.29266e-13 -1.14732e-13 -1.73271e-13 -1.76788e-13 -3.18782e-13 -3.17658e-13 -2.90335e-13 -3.35436e-15 2.7703e-13 8.2182e-14 -2.90907e-13 -4.11699e-13 2.75974e-14 1.52829e-13 -1.0578e-13 3.81387e-13 -2.51367e-13 -2.80562e-13 -6.19995e-13 -4.7568e-13 3.90155e-13 2.07558e-14 5.16397e-13 2.29157e-13 -2.36379e-13 4.39983e-13 5.27586e-13 -2.99457e-14 8.25337e-14 -8.32611e-13 -4.79768e-13 -5.53014e-13 5.50246e-13 -2.53203e-13 5.86236e-14 7.84878e-13 1.56652e-13 3.59572e-12 5.62956e-11 8.83402e-10 1.24394e-08 1.54166e-07 1.66506e-06 1.5478e-05 0.000121914 0.000797405 0.00421647 0.0174059 0.0539511 0.122705 0.210822 0.299092 0.382908 0.462826 0.538714 0.610169 0.676416 0.736415 0.788953 0.832898 0.867513 0.892809 0.909753 0.919851 0.925597 0.927582 0.926173 0.920238 0.906507 0.88014 0.835175 0.76591 0.669135 0.54679 0.408267 0.270491 0.153596 0.0724216 0.02829 0.00957234 0.00296917 0.000873467 0.000246997 6.7422e-05 1.77851e-05 4.53483e-06 1.11775e-06 2.66353e-07 6.13718e-08 1.36773e-08 2.94833e-09 6.15136e-10 1.23622e-10 2.40372e-11 5.00206e-12 5.58615e-13 -3.28529e-13 8.60253e-13 -2.30963e-14 8.38111e-13 9.57881e-13 -3.90308e-13 3.37679e-14 6.33277e-13 -7.1802e-13 6.7607e-13 3.83531e-13 -5.19218e-13 4.86094e-13 7.05794e-13 9.33693e-13 -1.28051e-12 -4.89055e-13 -9.5828e-13 4.19235e-14 -1.22126e-12 -1.31457e-12 -1.57891e-12 -7.08248e-13 6.48296e-13 8.15115e-13 6.17258e-13 6.78811e-13 3.0352e-13 -2.99313e-13 -5.73473e-14 -1.71065e-12 1.85054e-12 -9.60576e-13 -7.52305e-13 -3.48941e-13 -1.78765e-12 1.37097e-12 -3.89406e-13 -1.51407e-13 1.95735e-12 -7.73767e-14 1.11074e-13 -4.10707e-13 -1.00445e-12 -5.60847e-13 -1.09377e-12 -2.94334e-13 -3.31726e-13 -3.22495e-13 1.96584e-12 -1.04359e-13 5.39274e-13 -2.36631e-12 4.30079e-14 1.46022e-12 -8.31861e-13 -8.84038e-13 -1.83777e-13 -4.53649e-13 3.82553e-14 -2.0941e-12 -2.44954e-13 0
				</DataArray>
				<DataArray Name="VitesseY" type="Float32" format="ascii">