<?xml version="1.0"?>
<VTKFile type="PolyData">
	<PolyData>
		<Piece NumberOfPoints="1206" NumberOfPolys="1000">
			<Points>
				<DataArray type="Float32" NumberOfComponents="3" format="ascii">
 0 0 0 0.005 0 0 0.01 0 0 0.015 0 0 0.02 0 0 0.025 0 0 0.03 0 0 0.035 0 0 0.04 0 0 0.045 0 0 0.05 0 0 0.055 0 0 0.06 0 0 0.065 0 0 0.07 0 0 0.075 0 0 0.08 0 0 0.085 0 0 0.09 0 0 0.095 0 0 0.1 0 0 0.105 0 0 0.11 0 0 0.115 0 0 0.12 0 0 0.125 0 0 0.13 0 0 0.135 0 0 0.14 0 0 0.145 0 0 0.15 0 0 0.155 0 0 0.16 0 0 0.165 0 0 0.17 0 0 0.175 0 0 0.18 0 0 0.185 0 0 0.19 0 0 0.195 0 0 0.2 0 0 0.205 0 0 0.21 0 0 0.215 0 0 0.22 0 0 0.225 0 0 0.23 0 0 0.235 0 0 0.24 0 0 0.245 0 0 0.25 0 0 0.255 0 0 0.26 0 0 0.265 0 0 0.27 0 0 0.275 0 0 0.28 0 0 0.285 0 0 0.29 0 0 0.295 0 0 0.3 0 0 0.305 0 0 0.31 0 0 0.315 0 0 0.32 0 0 0.325 0 0 0.33 0 0 0.335 0 0 0.34 0 0 0.345 0 0 0.35 0 0 0.355 0 0 0.36 0 0 0.365 0 0 0.37 0 0 0.375 0 0 0.38 0 0 0.385 0 0 0.39 0 0 0.395 0 0 0.4 0 0 0.405 0 0 0.41 0 0 0.415 0 0 0.42 0 0 0.425 0 0 0.43 0 0 0.435 0 0 0.44 0 0 0.445 0 0 0.45 0 0 0.455 0 0 0.46 0 0 0.465 0 0 0.47 0 0 0.475 0 0 0.48 0 0 0.485 0 0 0.49 0 0 0.495 0 0 0.5 0 0 0.505 0 0 0.51 0 0 0.515 0 0 0.52 0 0 0.525 0 0 0.53 0 0 0.535 0 0 0.54 0 0 0.545 0 0 0.55 0 0 0.555 0 0 0.56 0 0 0.565 0 0 0.57 0 0 0.575 0 0 0.58 0 0 0.585 0 0 0.59 0 0 0.595 0 0 0.6 0 0 0.605 0 0 0.61 0 0 0.615 0 0 0.62 0 0 0.625 0 0 0.63 0 0 0.635 0 0 0.64 0 0 0.645 0 0 0.65 0 0 0.655 0 0 0.66 0 0 0.665 0 0 0.67 0 0 0.675 0 0 0.68 0 0 0.685 0 0 0.69 0 0 0.695 0 0 0.7 0 0 0.705 0 0 0.71 0 0 0.715 0 0 0.72 0 0 0.725 0 0 0.73 0 0 0.735 0 0 0.74 0 0 0.745 0 0 0.75 0 0 0.755 0 0 0.76 0 0 0.765 0 0 0.77 0 0 0.775 0 0 0.78 0 0 0.785 0 0 0.79 0 0 0.795 0 0 0.8 0 0 0.805 0 0 0.81 0 0 0.815 0 0 0.82 0 0 0.825 0 0 0.83 0 0 0.835 0 0 0.84 0 0 0.845 0 0 0.85 0 0 0.855 0 0 0.86 0 0 0.865 0 0 0.87 0 0 0.875 0 0 0.88 0 0 0.885 0 0 0.89 0 0 0.895 0 0 0.9 0 0 0.905 0 0 0.91 0 0 0.915 0 0 0.92 0 0 0.925 0 0 0.93 0 0 0.935 0 0 0.94 0 0 0.945 0 0 0.95 0 0 0.955 0 0 0.96 0 0 0.965 0 0 0.97 0 0 0.975 0 0 0.98 0 0 0.985 0 0 0.99 0 0 0.995 0 0 1 0 0 0 0.02 0 0.005 0.02 0 0.01 0.02 0 0.015 0.02 0 0.02 0.02 0 0.025 0.02 0 0.03 0.02 0 0.035 0.02 0 0.04 0.02 0 0.045 0.02 0 0.05 0.02 0 0.055 0.02 0 0.06 0.02 0 0.065 0.02 0 0.07 0.02 0 0.075 0.02 0 0.08 0.02 0 0.085 0.02 0 0.09 0.02 0 0.095 0.02 0 0.1 0.02 0 0.105 0.02 0 0.11 0.02 0 0.115 0.02 0 0.12 0.02 0 0.125 0.02 0 0.13 0.02 0 0.135 0.02 0 0.14 0.02 0 0.145 0.02 0 0.15 0.02 0 0.155 0.02 0 0.16 0.02 0 0.165 0.02 0 0.17 0.02 0 0.175 0.02 0 0.18 0.02 0 0.185 0.02 0 0.19 0.02 0 0.195 0.02 0 0.2 0.02 0 0.205 0.02 0 0.21 0.02 0 0.215 0.02 0 0.22 0.02 0 0.225 0.02 0 0.23 0.02 0 0.235 0.02 0 0.24 0.02 0 0.245 0.02 0 0.25 0.02 0 0.255 0.02 0 0.26 0.02 0 0.265 0.02 0 0.27 0.02 0 0.275 0.02 0 0.28 0.02 0 0.285 0.02 0 0.29 0.02 0 0.295 0.02 0 0.3 0.02 0 0.305 0.02 0 0.31 0.02 0 0.315 0.02 0 0.32 0.02 0 0.325 0.02 0 0.33 0.02 0 0.335 0.02 0 0.34 0.02 0 0.345 0.02 0 0.35 0.02 0 0.355 0.02 0 0.36 0.02 0 0.365 0.02 0 0.37 0.02 0 0.375 0.02 0 0.38 0.02 0 0.385 0.02 0 0.39 0.02 0 0.395 0.02 0 0.4 0.02 0 0.405 0.02 0 0.41 0.02 0 0.415 0.02 0 0.42 0.02 0 0.425 0.02 0 0.43 0.02 0 0.435 0.02 0 0.44 0.02 0 0.445 0.02 0 0.45 0.02 0 0.455 0.02 0 0.46 0.02 0 0.465 0.02 0 0.47 0.02 0 0.475 0.02 0 0.48 0.02 0 0.485 0.02 0 0.49 0.02 0 0.495 0.02 0 0.5 0.02 0 0.505 0.02 0 0.51 0.02 0 0.515 0.02 0 0.52 0.02 0 0.525 0.02 0 0.53 0.02 0 0.535 0.02 0 0.54 0.02 0 0.545 0.02 0 0.55 0.02 0 0.555 0.02 0 0.56 0.02 0 0.565 0.02 0 0.57 0.02 0 0.575 0.02 0 0.58 0.02 0 0.585 0.02 0 0.59 0.02 0 0.595 0.02 0 0.6 0.02 0 0.605 0.02 0 0.61 0.02 0 0.615 0.02 0 0.62 0.02 0 0.625 0.02 0 0.63 0.02 0 0.635 0.02 0 0.64 0.02 0 0.645 0.02 0 0.65 0.02 0 0.655 0.02 0 0.66 0.02 0 0.665 0.02 0 0.67 0.02 0 0.675 0.02 0 0.68 0.02 0 0.685 0.02 0 0.69 0.02 0 0.695 0.02 0 0.7 0.02 0 0.705 0.02 0 0.71 0.02 0 0.715 0.02 0 0.72 0.02 0 0.725 0.02 0 0.73 0.02 0 0.735 0.02 0 0.74 0.02 0 0.745 0.02 0 0.75 0.02 0 0.755 0.02 0 0.76 0.02 0 0.765 0.02 0 0.77 0.02 0 0.775 0.02 0 0.78 0.02 0 0.785 0.02 0 0.79 0.02 0 0.795 0.02 0 0.8 0.02 0 0.805 0.02 0 0.81 0.02 0 0.815 0.02 0 0.82 0.02 0 0.825 0.02 0 0.83 0.02 0 0.835 0.02 0 0.84 0.02 0 0.845 0.02 0 0.85 0.02 0 0.855 0.02 0 0.86 0.02 0 0.865 0.02 0 0.87 0.02 0 0.875 0.02 0 0.88 0.02 0 0.885 0.02 0 0.89 0.02 0 0.895 0.02 0 0.9 0.02 0 0.905 0.02 0 0.91 0.02 0 0.915 0.02 0 0.92 0.02 0 0.925 0.02 0 0.93 0.02 0 0.935 0.02 0 0.94 0.02 0 0.945 0.02 0 0.95 0.02 0 0.955 0.02 0 0.96 0.02 0 0.965 0.02 0 0.97 0.02 0 0.975 0.02 0 0.98 0.02 0 0.985 0.02 0 0.99 0.02 0 0.995 0.02 0 1 0.02 0 0 0.04 0 0.005 0.04 0 0.01 0.04 0 0.015 0.04 0 0.02 0.04 0 0.025 0.04 0 0.03 0.04 0 0.035 0.04 0 0.04 0.04 0 0.045 0.04 0 0.05 0.04 0 0.055 0.04 0 0.06 0.04 0 0.065 0.04 0 0.07 0.04 0 0.075 0.04 0 0.08 0.04 0 0.085 0.04 0 0.09 0.04 0 0.095 0.04 0 0.1 0.04 0 0.105 0.04 0 0.11 0.04 0 0.115 0.04 0 0.12 0.04 0 0.125 0.04 0 0.13 0.04 0 0.135 0.04 0 0.14 0.04 0 0.145 0.04 0 0.15 0.04 0 0.155 0.04 0 0.16 0.04 0 0.165 0.04 0 0.17 0.04 0 0.175 0.04 0 0.18 0.04 0 0.185 0.04 0 0.19 0.04 0 0.195 0.04 0 0.2 0.04 0 0.205 0.04 0 0.21 0.04 0 0.215 0.04 0 0.22 0.04 0 0.225 0.04 0 0.23 0.04 0 0.235 0.04 0 0.24 0.04 0 0.245 0.04 0 0.25 0.04 0 0.255 0.04 0 0.26 0.04 0 0.265 0.04 0 0.27 0.04 0 0.275 0.04 0 0.28 0.04 0 0.285 0.04 0 0.29 0.04 0 0.295 0.04 0 0.3 0.04 0 0.305 0.04 0 0.31 0.04 0 0.315 0.04 0 0.32 0.04 0 0.325 0.04 0 0.33 0.04 0 0.335 0.04 0 0.34 0.04 0 0.345 0.04 0 0.35 0.04 0 0.355 0.04 0 0.36 0.04 0 0.365 0.04 0 0.37 0.04 0 0.375 0.04 0 0.38 0.04 0 0.385 0.04 0 0.39 0.04 0 0.395 0.04 0 0.4 0.04 0 0.405 0.04 0 0.41 0.04 0 0.415 0.04 0 0.42 0.04 0 0.425 0.04 0 0.43 0.04 0 0.435 0.04 0 0.44 0.04 0 0.445 0.04 0 0.45 0.04 0 0.455 0.04 0 0.46 0.04 0 0.465 0.04 0 0.47 0.04 0 0.475 0.04 0 0.48 0.04 0 0.485 0.04 0 0.49 0.04 0 0.495 0.04 0 0.5 0.04 0 0.505 0.04 0 0.51 0.04 0 0.515 0.04 0 0.52 0.04 0 0.525 0.04 0 0.53 0.04 0 0.535 0.04 0 0.54 0.04 0 0.545 0.04 0 0.55 0.04 0 0.555 0.04 0 0.56 0.04 0 0.565 0.04 0 0.57 0.04 0 0.575 0.04 0 0.58 0.04 0 0.585 0.04 0 0.59 0.04 0 0.595 0.04 0 0.6 0.04 0 0.605 0.04 0 0.61 0.04 0 0.615 0.04 0 0.62 0.04 0 0.625 0.04 0 0.63 0.04 0 0.635 0.04 0 0.64 0.04 0 0.645 0.04 0 0.65 0.04 0 0.655 0.04 0 0.66 0.04 0 0.665 0.04 0 0.67 0.04 0 0.675 0.04 0 0.68 0.04 0 0.685 0.04 0 0.69 0.04 0 0.695 0.04 0 0.7 0.04 0 0.705 0.04 0 0.71 0.04 0 0.715 0.04 0 0.72 0.04 0 0.725 0.04 0 0.73 0.04 0 0.735 0.04 0 0.74 0.04 0 0.745 0.04 0 0.75 0.04 0 0.755 0.04 0 0.76 0.04 0 0.765 0.04 0 0.77 0.04 0 0.775 0.04 0 0.78 0.04 0 0.785 0.04 0 0.79 0.04 0 0.795 0.04 0 0.8 0.04 0 0.805 0.04 0 0.81 0.04 0 0.815 0.04 0 0.82 0.04 0 0.825 0.04 0 0.83 0.04 0 0.835 0.04 0 0.84 0.04 0 0.845 0.04 0 0.85 0.04 0 0.855 0.04 0 0.86 0.04 0 0.865 0.04 0 0.87 0.04 0 0.875 0.04 0 0.88 0.04 0 0.885 0.04 0 0.89 0.04 0 0.895 0.04 0 0.9 0.04 0 0.905 0.04 0 0.91 0.04 0 0.915 0.04 0 0.92 0.04 0 0.925 0.04 0 0.93 0.04 0 0.935 0.04 0 0.94 0.04 0 0.945 0.04 0 0.95 0.04 0 0.955 0.04 0 0.96 0.04 0 0.965 0.04 0 0.97 0.04 0 0.975 0.04 0 0.98 0.04 0 0.985 0.04 0 0.99 0.04 0 0.995 0.04 0 1 0.04 0 0 0.06 0 0.005 0.06 0 0.01 0.06 0 0.015 0.06 0 0.02 0.06 0 0.025 0.06 0 0.03 0.06 0 0.035 0.06 0 0.04 0.06 0 0.045 0.06 0 0.05 0.06 0 0.055 0.06 0 0.06 0.06 0 0.065 0.06 0 0.07 0.06 0 0.075 0.06 0 0.08 0.06 0 0.085 0.06 0 0.09 0.06 0 0.095 0.06 0 0.1 0.06 0 0.105 0.06 0 0.11 0.06 0 0.115 0.06 0 0.12 0.06 0 0.125 0.06 0 0.13 0.06 0 0.135 0.06 0 0.14 0.06 0 0.145 0.06 0 0.15 0.06 0 0.155 0.06 0 0.16 0.06 0 0.165 0.06 0 0.17 0.06 0 0.175 0.06 0 0.18 0.06 0 0.185 0.06 0 0.19 0.06 0 0.195 0.06 0 0.2 0.06 0 0.205 0.06 0 0.21 0.06 0 0.215 0.06 0 0.22 0.06 0 0.225 0.06 0 0.23 0.06 0 0.235 0.06 0 0.24 0.06 0 0.245 0.06 0 0.25 0.06 0 0.255 0.06 0 0.26 0.06 0 0.265 0.06 0 0.27 0.06 0 0.275 0.06 0 0.28 0.06 0 0.285 0.06 0 0.29 0.06 0 0.295 0.06 0 0.3 0.06 0 0.305 0.06 0 0.31 0.06 0 0.315 0.06 0 0.32 0.06 0 0.325 0.06 0 0.33 0.06 0 0.335 0.06 0 0.34 0.06 0 0.345 0.06 0 0.35 0.06 0 0.355 0.06 0 0.36 0.06 0 0.365 0.06 0 0.37 0.06 0 0.375 0.06 0 0.38 0.06 0 0.385 0.06 0 0.39 0.06 0 0.395 0.06 0 0.4 0.06 0 0.405 0.06 0 0.41 0.06 0 0.415 0.06 0 0.42 0.06 0 0.425 0.06 0 0.43 0.06 0 0.435 0.06 0 0.44 0.06 0 0.445 0.06 0 0.45 0.06 0 0.455 0.06 0 0.46 0.06 0 0.465 0.06 0 0.47 0.06 0 0.475 0.06 0 0.48 0.06 0 0.485 0.06 0 0.49 0.06 0 0.495 0.06 0 0.5 0.06 0 0.505 0.06 0 0.51 0.06 0 0.515 0.06 0 0.52 0.06 0 0.525 0.06 0 0.53 0.06 0 0.535 0.06 0 0.54 0.06 0 0.545 0.06 0 0.55 0.06 0 0.555 0.06 0 0.56 0.06 0 0.565 0.06 0 0.57 0.06 0 0.575 0.06 0 0.58 0.06 0 0.585 0.06 0 0.59 0.06 0 0.595 0.06 0 0.6 0.06 0 0.605 0.06 0 0.61 0.06 0 0.615 0.06 0 0.62 0.06 0 0.625 0.06 0 0.63 0.06 0 0.635 0.06 0 0.64 0.06 0 0.645 0.06 0 0.65 0.06 0 0.655 0.06 0 0.66 0.06 0 0.665 0.06 0 0.67 0.06 0 0.675 0.06 0 0.68 0.06 0 0.685 0.06 0 0.69 0.06 0 0.695 0.06 0 0.7 0.06 0 0.705 0.06 0 0.71 0.06 0 0.715 0.06 0 0.72 0.06 0 0.725 0.06 0 0.73 0.06 0 0.735 0.06 0 0.74 0.06 0 0.745 0.06 0 0.75 0.06 0 0.755 0.06 0 0.76 0.06 0 0.765 0.06 0 0.77 0.06 0 0.775 0.06 0 0.78 0.06 0 0.785 0.06 0 0.79 0.06 0 0.795 0.06 0 0.8 0.06 0 0.805 0.06 0 0.81 0.06 0 0.815 0.06 0 0.82 0.06 0 0.825 0.06 0 0.83 0.06 0 0.835 0.06 0 0.84 0.06 0 0.845 0.06 0 0.85 0.06 0 0.855 0.06 0 0.86 0.06 0 0.865 0.06 0 0.87 0.06 0 0.875 0.06 0 0.88 0.06 0 0.885 0.06 0 0.89 0.06 0 0.895 0.06 0 0.9 0.06 0 0.905 0.06 0 0.91 0.06 0 0.915 0.06 0 0.92 0.06 0 0.925 0.06 0 0.93 0.06 0 0.935 0.06 0 0.94 0.06 0 0.945 0.06 0 0.95 0.06 0 0.955 0.06 0 0.96 0.06 0 0.965 0.06 0 0.97 0.06 0 0.975 0.06 0 0.98 0.06 0 0.985 0.06 0 0.99 0.06 0 0.995 0.06 0 1 0.06 0 0 0.08 0 0.005 0.08 0 0.01 0.08 0 0.015 0.08 0 0.02 0.08 0 0.025 0.08 0 0.03 0.08 0 0.035 0.08 0 0.04 0.08 0 0.045 0.08 0 0.05 0.08 0 0.055 0.08 0 0.06 0.08 0 0.065 0.08 0 0.07 0.08 0 0.075 0.08 0 0.08 0.08 0 0.085 0.08 0 0.09 0.08 0 0.095 0.08 0 0.1 0.08 0 0.105 0.08 0 0.11 0.08 0 0.115 0.08 0 0.12 0.08 0 0.125 0.08 0 0.13 0.08 0 0.135 0.08 0 0.14 0.08 0 0.145 0.08 0 0.15 0.08 0 0.155 0.08 0 0.16 0.08 0 0.165 0.08 0
[...]
			<PointData Scalars="VitesseX">
				<DataArray Name="VitesseX" type="Float32" format="ascii">
 0 -2.34756e-15 -1.57486e-14 7.82055e-14 -1.26509e-13 -5.01534e-14 3.9719e-14 -1.20052e-14 -1.07955e-13 -2.33279e-14 8.74513e-14 -2.01137e-13 1.57416e-13 -3.93376e-13 2.00985e-13 -8.87558e-14 -2.59867e-13 2.74362e-13 -2.36687e-13 1.10539e-13 -3.19039e-14 -1.1191e-13 -3.5181e-13 1.3862e-13 5.00372e-13 4.95938e-14 -4.47973e-13 7.35381e-14 1.20773e-14 1.94597e-14 -3.07531e-13 3.8708e-13 -4.72588e-13 -2.95277e-13 4.18863e-13 -1.78482e-13 7.83992e-14 -5.57042e-13 6.4499e-13 -3.55706e-13 -6.50818e-15 -3.15143e-13 -6.08969e-14 5.86252e-13 1.19561e-13 -4.72067e-13 2.93691e-13 -7.30957e-13 1.63721e-13 -1.43377e-13 -1.55492e-14 -3.48237e-13 -1.02728e-12 1.48666e-12 -1.58658e-13 -1.35464e-13 5.7544e-13 -7.34304e-13 1.15958e-12 -6.59892e-13 -5.05809e-13 -3.56656e-13 -9.86182e-14 2.80079e-13 -5.91534e-13 1.98972e-16 4.09858e-13 3.17547e-13 9.28045e-13 -8.44191e-13 -5.76843e-13 9.99395e-13 -5.23565e-13 1.71984e-13 -1.89221e-12 5.05435e-13 4.98336e-13 -5.54999e-13 4.78599e-13 -1.04391e-12 2.11098e-12 -7.60535e-13 -1.61941e-13 1.91922e-11 3.72402e-10 7.13603e-09 1.17761e-07 1.64867e-06 1.92811e-05 0.000184556 0.001407 0.00823004 0.0351594 0.104337 0.213366 0.327888 0.433049 0.530498 0.62005 0.700639 0.77044 0.827422 0.870513 0.899531 0.917916 0.926345 0.924147 0.909533 0.876157 0.81668 0.725673 0.60299 0.456911 0.305317 0.172126 0.0777874 0.0275329 0.00802236 0.00207969 0.000501246 0.000114008 2.45707e-05 5.02338e-06 9.74787e-07 1.79634e-07 3.14518e-08 5.23767e-09 8.29538e-10 1.23567e-10 1.9399e-11 5.5235e-13 1.5715e-12 -1.99153e-13 -1.8004e-12 1.15809e-12 -2.19824e-12 2.05212e-12 3.41165e-13 -1.87499e-12 1.64679e-12 -8.47945e-13 -4.94579e-13 2.74889e-12 -2.21096e-12 -1.53544e-12 1.81438e-12 -1.74419e-12 3.23072e-12 -1.26949e-12 -6.01502e-13 1.61954e-12 -1.60822e-12 2.56435e-12 -1.78176e-12 1.04359e-12 -2.02249e-12 2.04422e-12 2.46795e-13 -1.1151e-12 -3.02284e-13 -1.23673e-12 1.53371e-12 -2.90185e-13 -9.26079e-13 6.23649e-13 -2.84641e-13 1.29762e-12 -8.27258e-13 -1.66278e-12 2.479e-12 -1.32694e-12 1.49498e-13 1.53471e-12 -2.022e-12 2.14669e-12 -1.59775e-12 6.98361e-13 1.16453e-12 -1.79753e-12 1.4957e-12 -1.01625e-12 -6.02085e-13 1.46637e-12 -2.53158e-12 1.11418e-12 -2.05726e-12 2.59657e-14 1.53817e-12 -1.87461e-12 3.06357e-12 -1.7985e-12 -1.45406e-12 4.41909e-12 -3.08253e-12 -1.41502e-12 -5.4756e-15 -9.82197e-13 3.47285e-12 -2.63099e-12 4.71542e-13 0 0 8.33926e-15 1.93515e-14 -7.78897e-14 4.98989e-14 -2.27368e-14 -9.29179e-14 -6.93956e-14 1.56952e-14 -2.56832e-14 -1.25575e-13 7.10487e-14 -2.29823e-13 1.82596e-13 -2.60419e-13 -7.18591e-15 1.6301e-13 -1.93506e-13 1.57805e-13 -2.33227e-13 -1.45285e-13 -4.97465e-14 1.68697e-13 -4.27207e-14 -1.53088e-13 3.9874e-14 2.95732e-13 -1.53142e-13 -1.65387e-13 -1.87225e-13 2.18811e-13 -3.42176e-13 2.41115e-13 -9.7051e-14 -5.44135e-13 1.18446e-13 -1.45415e-15 4.1553e-13 -4.91338e-13 1.32757e-13 -3.49603e-13 1.71537e-13 1.46989e-13 -2.35492e-13 -7.74708e-14 3.40573e-13 -4.8817e-13 2.40863e-13 -5.55661e-13 -2.80847e-13 -3.62113e-13 -1.11464e-15 7.10433e-13 -7.96518e-13 4.766e-13 1.6885e-13 -2.59579e-13 6.99639e-13 -8.30223e-13 3.56999e-13 4.9706e-14 -1.47448e-13 -3.35147e-13 -5.55313e-13 3.62886e-13 1.93683e-13 2.32983e-13 1.55883e-13 -6.0581e-13 7.1122e-13 1.71114e-13 -9.05423e-13 1.6927e-13 -8.35054e-13 6.23789e-13 -7.326e-13 -6.87705e-13 6.2635e-13 -2.32176e-13 9.205e-13 -9.9508e-13 1.08695e-12 1.66201e-12 1.56899e-11 3.72183e-10 7.14037e-09 1.17759e-07 1.64867e-06 1.92811e-05 0.000184556 0.001407 0.00823004 0.0351594 0.104337 0.213366 0.327888 0.433049 0.530498 0.62005 0.700639 0.77044 0.827422 0.870513 0.899531 0.917916 0.926345 0.924147 0.909533 0.876157 0.81668 0.725673 0.60299 0.456911 0.305317 0.172126 0.0777874 0.0275329 0.00802236 0.00207969 0.000501246 0.000114008 2.45707e-05 5.02338e-06 9.74789e-07 1.79632e-07 3.14542e-08 5.23528e-09 8.28999e-10 1.26029e-10 1.69013e-11 3.41069e-12 -8.82474e-13 -5.32866e-13 7.15592e-13 -1.47252e-12 9.30962e-13 -8.37511e-13 -2.06444e-14 1.32828e-12 -1.13442e-12 7.69545e-13 3.41995e-13 -2.21245e-12 1.50825e-12 2.71923e-14 -1.43041e-12 1.57878e-12 -1.48991e-12 1.72345e-12 4.20991e-13 -1.19603e-12 1.43565e-12 -1.54172e-12 1.60216e-12 -9.78324e-13 1.27628e-12 -9.29171e-13 -2.56428e-13 5.81091e-13 -1.22099e-13 -8.01104e-14 -1.45421e-12 1.2908e-13 1.20289e-12 -1.30722e-13 -2.54693e-13 -8.37566e-13 4.16997e-13 1.05493e-12 -1.66648e-12 1.16891e-12 3.53748e-13 -1.23499e-12 1.58093e-12 -1.27731e-12 1.5604e-12 -2.04008e-13 -1.18485e-12 1.1591e-12 -1.08111e-12 1.08554e-12 1.62585e-13 -1.9035e-12 7.70989e-13 -1.7934e-12 7.37521e-13 -2.59998e-13 -1.41267e-12 1.4491e-12 -1.60696e-12 1.88337e-12 8.75547e-13 -4.04334e-12 2.15769e-12 1.99187e-13 -4.12946e-13 6.84368e-14 -2.80287e-12 2.9636e-12 1.35169e-13 0 0 -1.31439e-14 -5.3726e-14 -1.20918e-14 -1.59138e-14 -8.66788e-15 -1.3615e-14 -4.64639e-14 -7.74274e-14 -9.38624e-14 -3.92556e-14 -5.32663e-14 6.18225e-14 -1.293e-13 2.67805e-14 4.65799e-14 -7.09151e-14 -7.38789e-14 -1.3788e-13 4.98296e-14 -1.17486e-13 -1.14449e-13 -4.38399e-14 2.73208e-14 1.6977e-14 3.53797e-14 -6.2093e-14 -4.89575e-14 -3.52998e-14 -2.61349e-14 -1.09835e-13 2.69458e-15 -5.73274e-14 -1.15669e-13 -4.92922e-14 -1.27812e-13 7.00363e-14 -1.76547e-13 7.31052e-14 -1.66629e-13 4.53359e-14 -4.26781e-14 -2.43141e-14 -1.33921e-15 -1.06288e-13 -4.32176e-13 -3.03744e-14 -2.45042e-13 2.82257e-13 -8.05069e-14 -3.74964e-13 -1.38619e-13 -2.47484e-13 6.48932e-13 -2.14914e-14 8.5632e-14 3.38175e-14 -4.61332e-13 2.17323e-13 -2.86519e-14 2.51782e-13 -8.86019e-15 -3.87931e-13 -2.18012e-13 -7.0722e-14 1.98163e-13 1.23205e-13 -6.26905e-14 3.46253e-14 -1.57518e-13 1.63793e-13 1.63261e-13 -3.67404e-13 -5.89319e-14 -4.35024e-13 -1.96322e-13 -5.01204e-13 -1.08054e-13 4.81187e-13 -3.74782e-13 -2.89733e-14 4.0224e-13 1.05712e-12 1.70556e-11 3.72137e-10 7.13897e-09 1.1776e-07 1.64867e-06 1.92811e-05 0.000184556 0.001407 0.00823004 0.0351594 0.104337 0.213366 0.327888 0.433049 0.530498 0.62005 0.700639 0.77044 0.827422 0.870513 0.899531 0.917916 0.926345 0.924147 0.909533 0.876157 0.81668 0.725673 0.60299 0.456911 0.305317 0.172126 0.0777874 0.0275329 0.00802236 0.00207969 0.000501246 0.000114008 2.45707e-05 5.02338e-06 9.74788e-07 1.79633e-07 3.14534e-08 5.23624e-09 8.28943e-10 1.24498e-10 1.83324e-11 2.54933e-12 6.18855e-14 -4.39253e-13 -8.23278e-13 4.27585e-14 4.5055e-15 -1.58524e-13 -2.54929e-13 4.29655e-14 1.52525e-13 -3.2601e-14 -5.31887e-13 7.71312e-14 1.70026e-14 3.67189e-13 -2.93586e-13 -2.01507e-13 4.61545e-13 -7.7921e-14 4.53518e-13 2.44599e-13 -8.15657e-14 2.76071e-15 -7.57088e-13 5.06345e-13 8.75639e-13 7.21543e-14 -7.67752e-13 -8.96677e-13 2.75606e-13 2.46526e-13 5.41921e-13 -3.55126e-13 -1.03193e-12 -9.79449e-14 4.71439e-13 3.28695e-13 2.25711e-13 -3.96599e-13 1.75535e-13 -1.70294e-13 -7.11253e-13 4.78472e-13 5.1306e-13 1.05627e-12 -5.49223e-13 -1.02976e-12 1.27162e-13 7.32663e-13 6.65967e-13 -4.64344e-13 -1.17163e-12 4.09612e-14 -7.06303e-14 -1.7667e-13 -1.34433e-12 -1.16303e-12 7.79129e-13 7.17254e-13 -3.90905e-13 -6.13254e-13 -8.04464e-13 8.36293e-13 3.60287e-13 3.29622e-14 -8.14665e-13 -4.73267e-13 1.36083e-12 -5.34702e-13 -2.52278e-13 0 0 -3.15825e-14 -3.03402e-14 1.5828e-14 -7.65213e-14 -6.84203e-14 -5.22961e-14 -2.30719e-14 -2.59887e-14 2.38998e-14 4.37351e-14 -1.16454e-13 -3.39507e-16 -1.28618e-13 1.11716e-13 -6.9703e-14 -1.47127e-13 3.57857e-16 -2.57365e-13 -6.12367e-14 3.43213e-14 -2.23081e-14 -1.73719e-13 3.98576e-14 1.22265e-13 -3.30799e-14 -1.13164e-13 9.20495e-14 -6.88832e-14 -1.81509e-13 -9.5746e-14 2.40525e-13 -1.4665e-13 -1.43508e-13 1.9522e-13 6.23261e-14 4.62004e-14 -1.84642e-13 1.73056e-13 -3.206e-13 -2.50752e-13 -2.31001e-13 -1.34175e-14 1.43431e-13 3.90409e-16 -2.15574e-13 8.45271e-14 -2.99925e-13 -1.98062e-14 -2.38113e-15 -1.93833e-14 -2.44478e-13 -2.88473e-13 6.60379e-13 1.19011e-13 -9.52477e-15 -9.95644e-14 -5.69853e-13 3.80446e-13 8.48484e-14 -7.22137e-14 -4.06247e-13 -4.84494e-13 -4.59166e-13 2.76633e-14 3.64958e-13 2.99022e-13 2.19704e-13 5.58953e-13 -2.65292e-13 -5.21185e-14 4.3979e-13 -1.55461e-13 7.70968e-14 -9.05173e-13 -1.78303e-13 -2.93702e-13 -8.48635e-13 1.00035e-13 1.61824e-15 1.09075e-12 -3.51073e-13 1.48903e-13 1.7644e-11 3.71697e-10 7.13765e-09 1.17761e-07 1.64867e-06 1.92811e-05 0.000184556 0.001407 0.00823004 0.0351594 0.104337 0.213366 0.327888 0.433049 0.530498 0.62005 0.700639 0.77044 0.827422 0.870513 0.899531 0.917916 0.926345 0.924147 0.909533 0.876157 0.81668 0.725673 0.60299 0.456911 0.305317 0.172126 0.0777874 0.0275329 0.00802236 0.00207969 0.000501246 0.000114008 2.45707e-05 5.02338e-06 9.74788e-07 1.79633e-07 3.14527e-08 5.23651e-09 8.29223e-10 1.24521e-10 1.88424e-11 1.73399e-12 2.41992e-13 -4.80921e-13 -7.78668e-13 7.08861e-13 -1.00543e-12 -9.05975e-15 -3.27067e-13 -6.02162e-13 1.07677e-12 -5.97266e-13 -6.57146e-13 1.32154e-12 -1.19489e-13 3.35488e-13 6.35452e-13 -1.74553e-12 7.67198e-13 6.87116e-14 1.16737e-12 1.05646e-12 -1.72212e-12 -6.87283e-14 -5.86887e-13 7.36619e-13 -7.90558e-13 -5.26981e-14 1.16205e-13 -4.91539e-13 3.30516e-14 -7.82767e-13 -2.59161e-13 -1.24937e-13 -1.85386e-13 7.47292e-13 8.96903e-15 -4.98982e-13 -1.44185e-12 -2.41475e-13 1.95768e-12 1.12936e-13 -3.37032e-13 4.79136e-13 -5.55057e-13 1.0061e-12 -1.22629e-13 4.1538e-14 1.95031e-13 -8.18228e-13 5.81539e-13 9.24584e-14 -5.5637e-13 5.93328e-13 -1.85189e-12 -1.57181e-13 -1.09436e-12 -3.45123e-13 1.10423e-12 -8.58406e-14 1.41662e-12 -1.40079e-12 -1.71297e-12 1.99599e-12 1.05144e-13 -5.20447e-14 -2.67739e-13 -1.70573e-12 8.94761e-13 -1.84049e-13 1.64274e-12 0 0 -1.07366e-14 1.66406e-14 -7.35364e-14 4.78902e-15 -5.15465e-14 -1.09864e-13 -2.76663e-14 7.93919e-14 3.44539e-14 -9.62346e-14 3.41808e-14 -1.99796e-13 2.43821e-13 -2.42215e-13 -1.23287e-13 3.45961e-14 -2.50006e-13 4.8393e-14 -2.99305e-13 2.88101e-14 2.73447e-14 1.62454e-13 -5.14909e-14 -2.08019e-13 -7.30481e-14 1.81183e-13 -1.52702e-13 -2.27833e-13 -2.20272e-13 2.74616e-13 -1.2146e-13 4.03078e-13 1.2451e-13 -3.36404e-13 2.18553e-13 -1.28097e-13 3.81881e-13 -5.69225e-13 4.9397e-14 -4.47645e-13 6.66774e-14 3.54402e-14 -3.5471e-13 -1.68309e-13 3.48225e-13 -4.48221e-13 2.73866e-13 -6.18017e-13 -1.516e-13 -3.40096e-13 -1.74261e-13 6.25032e-13 -8.88621e-13 5.7409e-13 2.86982e-13 -1.78324e-13 5.62402e-13 -9.07613e-13 3.14585e-13 -7.9542e-14 -2.62557e-13 -4.1583e-13 -7.22567e-13 4.16929e-13 3.30155e-13 4.82708e-13 3.80422e-13 -1.08178e-13 8.79567e-13 2.35841e-13 -8.21028e-13 9.18628e-14 -8.36748e-13 4.31579e-13 -8.65355e-13 -4.98571e-13 1.30178e-13 -4.95014e-13 1.15636e-12 -7.97427e-13 5.82896e-13 1.2344e-12 1.55667e-11 3.71589e-10 7.13978e-09 1.1776e-07 1.64867e-06 1.92811e-05 0.000184556 0.001407 0.00823004 0.0351594 0.104337 0.213366 0.327888 0.433049 0.530498 0.62005 0.700639 0.77044 0.827422 0.870513 0.899531 0.917916 0.926345 0.924147 0.909533 0.876157 0.81668 0.725673 0.60299 0.456911 0.305317 0.172126 0.0777874 0.0275329 0.00802236 0.00207969 0.000501246 0.000114008 2.45707e-05 5.02338e-06 9.74789e-07 1.79631e-07 3.14538e-08 5.23542e-09 8.29344e-10 1.26249e-10 1.67868e-11 2.93604e-12 -7.61267e-13 -3.45078e-13 6.88761e-13 -1.54185e-12 1.98279e-13 -9.52373e-13 6.0362e-14 1.22213e-12 -1.04901e-12 1.1866e-13 4.77393e-13 -9.96846e-13 1.99375e-12 5.77162e-13 -8.57194e-13 9.26848e-13 -1.51833e-12 1.70146e-12 8.53387e-13 -3.61191e-13 9.78629e-13 -1.86337e-12 1.42955e-12 -1.64106e-12 -6.80791e-13 -1.95425e-12 4.08006e-13 8.26571e-13 -6.92839e-13 -6.10535e-13 -1.95712e-12 3.65263e-13 1.54556e-12 -5.00286e-14 -6.8734e-13 -1.27764e-12 9.92484e-14 1.3465e-12 -1.33479e-12 8.76849e-13 4.77751e-13 -1.2915e-12 8.47572e-13 -1.64638e-12 2.38233e-12 1.18439e-12 -7.87876e-13 -1.6606e-13 -1.84345e-12 1.75535e-12 1.52327e-12 -1.6367e-12 -8.63418e-13 -2.73002e-12 5.93565e-13 7.30377e-13 -5.37714e-13 1.4685e-12 -1.38386e-12 1.35916e-12 5.11268e-13 -3.46677e-12 2.2825e-12 3.38978e-13 -6.37233e-13 -7.73919e-13 -2.886e-12 3.47723e-12 1.83656e-12 0 0 -3.62195e-15 -6.7942e-14 3.10725e-14 -9.5514e-14 1.1732e-14 8.31895e-14 2.46694e-14 -8.34391e-14 -1.38578e-13 -1.9849e-14 -1.48497e-13 3.41794e-13 -2.72292e-13 6.75226e-14 -8.83922e-14 -3.64272e-13 1.28879e-14 -2.16542e-13 2.00514e-13 1.26722e-14 -1.42009e-13 -1.04538e-13 9.6006e-14 1.79934e-13 -3.93314e-14 -5.7493e-13 -2.07594e-13 -4.56478e-14 2.64113e-13 -2.24097e-13 3.52852e-13 2.99842e-14 2.03524e-13 3.45301e-13 -3.58545e-13 -1.27214e-13 -6.08149e-13 2.89312e-13 -2.14483e-13 3.89584e-13 -1.48217e-13 -3.05788e-13 5.8275e-14 -2.75473e-13 -8.89967e-13 1.43786e-13 -5.55185e-13 6.43136e-13 -4.11339e-14 -6.82678e-13 -4.82811e-13 -1.1161e-12 1.27956e-12 -2.44682e-13 2.91113e-13 1.00471e-12 -7.91734e-13 6.78556e-13 -9.7172e-13 -1.16314e-13 2.079e-13 -6.68578e-14 4.27877e-13 -6.80218e-13 -6.04464e-14 5.57674e-13 2.01838e-13 8.74653e-13 -2.91949e-13 -1.5567e-14 6.15124e-13 -1.10226e-12 -1.03461e-13 -1.33633e-12 2.03888e-13 4.61599e-13 -6.61796e-14 7.15227e-13 -1.325e-12 2.66842e-13 -2.62005e-13 7.99266e-13 1.7769e-11 3.72093e-10 7.13749e-09 1.17761e-07 1.64867e-06 1.92811e-05 0.000184556 0.001407 0.00823004 0.0351594 0.104337 0.213366 0.327888 0.433049 0.530498 0.62005 0.700639 0.77044 0.827422 0.870513 0.899531 0.917916 0.926345 0.924147 0.909533 0.876157 0.81668 0.725673 0.60299 0.456911 0.305317 0.172126 0.0777874 0.0275329 0.00802236 0.00207969 0.000501246 0.000114008 2.45707e-05 5.02338e-06 9.74787e-07 1.79633e-07 3.14524e-08 5.23741e-09 8.29666e-10 1.2396e-10 1.81502e-11 1.23372e-12 1.4537e-12 2.59758e-13 -1.94328e-12 -3.12782e-13 -1.64375e-12 1.52347e-12 6.47453e-13 -7.97041e-13 -3.08713e-14 -1.02038e-12 2.67349e-14 2.69127e-12 -9.66993e-13 -3.721e-13 1.10274e-12 3.99898e-14 2.56257e-12 -1.60674e-12 -1.16441e-12 1.66548e-12 7.58847e-13 2.06402e-12 -2.46738e-12 -7.42434e-13 -2.60425e-12 2.43759e-13 -1.9225e-13 -1.43441e-12 -9.58656e-13 -2.38993e-13 2.13005e-12 -2.78197e-13 -1.93384e-12 -9.05438e-13 -2.24996e-13 2.07282e-12 1.87237e-12 -1.38989e-12 -4.21935e-13 -2.47751e-12 -3.50939e-13 1.42037e-12 -1.35249e-12 1.5089e-12 -8.07076e-13 1.33257e-12 1.82273e-12 -1.34606e-12 1.39869e-13 -7.90229e-13 8.88775e-13 8.95245e-13 -2.23787e-12 -7.98029e-13 -2.84509e-12 3.70898e-13 2.63787e-12 -2.29611e-13 -1.05285e-13 -1.27183e-12 -3.65618e-13 3.25285e-12 -2.32262e-12 -9.65428e-13 -1.5479e-12 -2.01982e-13 4.23872e-12 -2.30504e-12 8.42818e-14 0
				</DataArray>
				<DataArray Name="VitesseY" type="Float32" format="ascii">