<?xml version="1.0"?>
<VTKFile type="PolyData">
	<PolyData>
		<Piece NumberOfPoints="1206" NumberOfPolys="1000">
			<Points>
				<DataArray type="Float32" NumberOfComponents="3" format="ascii">
 0 0 0 0.005 0 0 0.01 0 0 0.015 0 0 0.02 0 0 0.025 0 0 0.03 0 0 0.035 0 0 0.04 0 0 0.045 0 0 0.05 0 0 0.055 0 0 0.06 0 0 0.065 0 0 0.07 0 0 0.075 0 0 0.08 0 0 0.085 0 0 0.09 0 0 0.095 0 0 0.1 0 0 0.105 0 0 0.11 0 0 0.115 0 0 0.12 0 0 0.125 0 0 0.13 0 0 0.135 0 0 0.14 0 0 0.145 0 0 0.15 0 0 0.155 0 0 0.16 0 0 0.165 0 0 0.17 0 0 0.175 0 0 0.18 0 0 0.185 0 0 0.19 0 0 0.195 0 0 0.2 0 0 0.205 0 0 0.21 0 0 0.215 0 0 0.22 0 0 0.225 0 0 0.23 0 0 0.235 0 0 0.24 0 0 0.245 0 0 0.25 0 0 0.255 0 0 0.26 0 0 0.265 0 0 0.27 0 0 0.275 0 0 0.28 0 0 0.285 0 0 0.29 0 0 0.295 0 0 0.3 0 0 0.305 0 0 0.31 0 0 0.315 0 0 0.32 0 0 0.325 0 0 0.33 0 0 0.335 0 0 0.34 0 0 0.345 0 0 0.35 0 0 0.355 0 0 0.36 0 0 0.365 0 0 0.37 0 0 0.375 0 0 0.38 0 0 0.385 0 0 0.39 0 0 0.395 0 0 0.4 0 0 0.405 0 0 0.41 0 0 0.415 0 0 0.42 0 0 0.425 0 0 0.43 0 0 0.435 0 0 0.44 0 0 0.445 0 0 0.45 0 0 0.455 0 0 0.46 0 0 0.465 0 0 0.47 0 0 0.475 0 0 0.48 0 0 0.485 0 0 0.49 0 0 0.495 0 0 0.5 0 0 0.505 0 0 0.51 0 0 0.515 0 0 0.52 0 0 0.525 0 0 0.53 0 0 0.535 0 0 0.54 0 0 0.545 0 0 0.55 0 0 0.555 0 0 0.56 0 0 0.565 0 0 0.57 0 0 0.575 0 0 0.58 0 0 0.585 0 0 0.59 0 0 0.595 0 0 0.6 0 0 0.605 0 0 0.61 0 0 0.615 0 0 0.62 0 0 0.625 0 0 0.63 0 0 0.635 0 0 0.64 0 0 0.645 0 0 0.65 0 0 0.655 0 0 0.66 0 0 0.665 0 0 0.67 0 0 0.675 0 0 0.68 0 0 0.685 0 0 0.69 0 0 0.695 0 0 0.7 0 0 0.705 0 0 0.71 0 0 0.715 0 0 0.72 0 0 0.725 0 0 0.73 0 0 0.735 0 0 0.74 0 0 0.745 0 0 0.75 0 0 0.755 0 0 0.76 0 0 0.765 0 0 0.77 0 0 0.775 0 0 0.78 0 0 0.785 0 0 0.79 0 0 0.795 0 0 0.8 0 0 0.805 0 0 0.81 0 0 0.815 0 0 0.82 0 0 0.825 0 0 0.83 0 0 0.835 0 0 0.84 0 0 0.845 0 0 0.85 0 0 0.855 0 0 0.86 0 0 0.865 0 0 0.87 0 0 0.875 0 0 0.88 0 0 0.885 0 0 0.89 0 0 0.895 0 0 0.9 0 0 0.905 0 0 0.91 0 0 0.915 0 0 0.92 0 0 0.925 0 0 0.93 0 0 0.935 0 0 0.94 0 0 0.945 0 0 0.95 0 0 0.955 0 0 0.96 0 0 0.965 0 0 0.97 0 0 0.975 0 0 0.98 0 0 0.985 0 0 0.99 0 0 0.995 0 0 1 0 0 0 0.02 0 0.005 0.02 0 0.01 0.02 0 0.015 0.02 0 0.02 0.02 0 0.025 0.02 0 0.03 0.02 0 0.035 0.02 0 0.04 0.02 0 0.045 0.02 0 0.05 0.02 0 0.055 0.02 0 0.06 0.02 0 0.065 0.02 0 0.07 0.02 0 0.075 0.02 0 0.08 0.02 0 0.085 0.02 0 0.09 0.02 0 0.095 0.02 0 0.1 0.02 0 0.105 0.02 0 0.11 0.02 0 0.115 0.02 0 0.12 0.02 0 0.125 0.02 0 0.13 0.02 0 0.135 0.02 0 0.14 0.02 0 0.145 0.02 0 0.15 0.02 0 0.155 0.02 0 0.16 0.02 0 0.165 0.02 0 0.17 0.02 0 0.175 0.02 0 0.18 0.02 0 0.185 0.02 0 0.19 0.02 0 0.195 0.02 0 0.2 0.02 0 0.205 0.02 0 0.21 0.02 0 0.215 0.02 0 0.22 0.02 0 0.225 0.02 0 0.23 0.02 0 0.235 0.02 0 0.24 0.02 0 0.245 0.02 0 0.25 0.02 0 0.255 0.02 0 0.26 0.02 0 0.265 0.02 0 0.27 0.02 0 0.275 0.02 0 0.28 0.02 0 0.285 0.02 0 0.29 0.02 0 0.295 0.02 0 0.3 0.02 0 0.305 0.02 0 0.31 0.02 0 0.315 0.02 0 0.32 0.02 0 0.325 0.02 0 0.33 0.02 0 0.335 0.02 0 0.34 0.02 0 0.345 0.02 0 0.35 0.02 0 0.355 0.02 0 0.36 0.02 0 0.365 0.02 0 0.37 0.02 0 0.375 0.02 0 0.38 0.02 0 0.385 0.02 0 0.39 0.02 0 0.395 0.02 0 0.4 0.02 0 0.405 0.02 0 0.41 0.02 0 0.415 0.02 0 0.42 0.02 0 0.425 0.02 0 0.43 0.02 0 0.435 0.02 0 0.44 0.02 0 0.445 0.02 0 0.45 0.02 0 0.455 0.02 0 0.46 0.02 0 0.465 0.02 0 0.47 0.02 0 0.475 0.02 0 0.48 0.02 0 0.485 0.02 0 0.49 0.02 0 0.495 0.02 0 0.5 0.02 0 0.505 0.02 0 0.51 0.02 0 0.515 0.02 0 0.52 0.02 0 0.525 0.02 0 0.53 0.02 0 0.535 0.02 0 0.54 0.02 0 0.545 0.02 0 0.55 0.02 0 0.555 0.02 0 0.56 0.02 0 0.565 0.02 0 0.57 0.02 0 0.575 0.02 0 0.58 0.02 0 0.585 0.02 0 0.59 0.02 0 0.595 0.02 0 0.6 0.02 0 0.605 0.02 0 0.61 0.02 0 0.615 0.02 0 0.62 0.02 0 0.625 0.02 0 0.63 0.02 0 0.635 0.02 0 0.64 0.02 0 0.645 0.02 0 0.65 0.02 0 0.655 0.02 0 0.66 0.02 0 0.665 0.02 0 0.67 0.02 0 0.675 0.02 0 0.68 0.02 0 0.685 0.02 0 0.69 0.02 0 0.695 0.02 0 0.7 0.02 0 0.705 0.02 0 0.71 0.02 0 0.715 0.02 0 0.72 0.02 0 0.725 0.02 0 0.73 0.02 0 0.735 0.02 0 0.74 0.02 0 0.745 0.02 0 0.75 0.02 0 0.755 0.02 0 0.76 0.02 0 0.765 0.02 0 0.77 0.02 0 0.775 0.02 0 0.78 0.02 0 0.785 0.02 0 0.79 0.02 0 0.795 0.02 0 0.8 0.02 0 0.805 0.02 0 0.81 0.02 0 0.815 0.02 0 0.82 0.02 0 0.825 0.02 0 0.83 0.02 0 0.835 0.02 0 0.84 0.02 0 0.845 0.02 0 0.85 0.02 0 0.855 0.02 0 0.86 0.02 0 0.865 0.02 0 0.87 0.02 0 0.875 0.02 0 0.88 0.02 0 0.885 0.02 0 0.89 0.02 0 0.895 0.02 0 0.9 0.02 0 0.905 0.02 0 0.91 0.02 0 0.915 0.02 0 0.92 0.02 0 0.925 0.02 0 0.93 0.02 0 0.935 0.02 0 0.94 0.02 0 0.945 0.02 0 0.95 0.02 0 0.955 0.02 0 0.96 0.02 0 0.965 0.02 0 0.97 0.02 0 0.975 0.02 0 0.98 0.02 0 0.985 0.02 0 0.99 0.02 0 0.995 0.02 0 1 0.02 0 0 0.04 0 0.005 0.04 0 0.01 0.04 0 0.015 0.04 0 0.02 0.04 0 0.025 0.04 0 0.03 0.04 0 0.035 0.04 0 0.04 0.04 0 0.045 0.04 0 0.05 0.04 0 0.055 0.04 0 0.06 0.04 0 0.065 0.04 0 0.07 0.04 0 0.075 0.04 0 0.08 0.04 0 0.085 0.04 0 0.09 0.04 0 0.095 0.04 0 0.1 0.04 0 0.105 0.04 0 0.11 0.04 0 0.115 0.04 0 0.12 0.04 0 0.125 0.04 0 0.13 0.04 0 0.135 0.04 0 0.14 0.04 0 0.145 0.04 0 0.15 0.04 0 0.155 0.04 0 0.16 0.04 0 0.165 0.04 0 0.17 0.04 0 0.175 0.04 0 0.18 0.04 0 0.185 0.04 0 0.19 0.04 0 0.195 0.04 0 0.2 0.04 0 0.205 0.04 0 0.21 0.04 0 0.215 0.04 0 0.22 0.04 0 0.225 0.04 0 0.23 0.04 0 0.235 0.04 0 0.24 0.04 0 0.245 0.04 0 0.25 0.04 0 0.255 0.04 0 0.26 0.04 0 0.265 0.04 0 0.27 0.04 0 0.275 0.04 0 0.28 0.04 0 0.285 0.04 0 0.29 0.04 0 0.295 0.04 0 0.3 0.04 0 0.305 0.04 0 0.31 0.04 0 0.315 0.04 0 0.32 0.04 0 0.325 0.04 0 0.33 0.04 0 0.335 0.04 0 0.34 0.04 0 0.345 0.04 0 0.35 0.04 0 0.355 0.04 0 0.36 0.04 0 0.365 0.04 0 0.37 0.04 0 0.375 0.04 0 0.38 0.04 0 0.385 0.04 0 0.39 0.04 0 0.395 0.04 0 0.4 0.04 0 0.405 0.04 0 0.41 0.04 0 0.415 0.04 0 0.42 0.04 0 0.425 0.04 0 0.43 0.04 0 0.435 0.04 0 0.44 0.04 0 0.445 0.04 0 0.45 0.04 0 0.455 0.04 0 0.46 0.04 0 0.465 0.04 0 0.47 0.04 0 0.475 0.04 0 0.48 0.04 0 0.485 0.04 0 0.49 0.04 0 0.495 0.04 0 0.5 0.04 0 0.505 0.04 0 0.51 0.04 0 0.515 0.04 0 0.52 0.04 0 0.525 0.04 0 0.53 0.04 0 0.535 0.04 0 0.54 0.04 0 0.545 0.04 0 0.55 0.04 0 0.555 0.04 0 0.56 0.04 0 0.565 0.04 0 0.57 0.04 0 0.575 0.04 0 0.58 0.04 0 0.585 0.04 0 0.59 0.04 0 0.595 0.04 0 0.6 0.04 0 0.605 0.04 0 0.61 0.04 0 0.615 0.04 0 0.62 0.04 0 0.625 0.04 0 0.63 0.04 0 0.635 0.04 0 0.64 0.04 0 0.645 0.04 0 0.65 0.04 0 0.655 0.04 0 0.66 0.04 0 0.665 0.04 0 0.67 0.04 0 0.675 0.04 0 0.68 0.04 0 0.685 0.04 0 0.69 0.04 0 0.695 0.04 0 0.7 0.04 0 0.705 0.04 0 0.71 0.04 0 0.715 0.04 0 0.72 0.04 0 0.725 0.04 0 0.73 0.04 0 0.735 0.04 0 0.74 0.04 0 0.745 0.04 0 0.75 0.04 0 0.755 0.04 0 0.76 0.04 0 0.765 0.04 0 0.77 0.04 0 0.775 0.04 0 0.78 0.04 0 0.785 0.04 0 0.79 0.04 0 0.795 0.04 0 0.8 0.04 0 0.805 0.04 0 0.81 0.04 0 0.815 0.04 0 0.82 0.04 0 0.825 0.04 0 0.83 0.04 0 0.835 0.04 0 0.84 0.04 0 0.845 0.04 0 0.85 0.04 0 0.855 0.04 0 0.86 0.04 0 0.865 0.04 0 0.87 0.04 0 0.875 0.04 0 0.88 0.04 0 0.885 0.04 0 0.89 0.04 0 0.895 0.04 0 0.9 0.04 0 0.905 0.04 0 0.91 0.04 0 0.915 0.04 0 0.92 0.04 0 0.925 0.04 0 0.93 0.04 0 0.935 0.04 0 0.94 0.04 0 0.945 0.04 0 0.95 0.04 0 0.955 0.04 0 0.96 0.04 0 0.965 0.04 0 0.97 0.04 0 0.975 0.04 0 0.98 0.04 0 0.985 0.04 0 0.99 0.04 0 0.995 0.04 0 1 0.04 0 0 0.06 0 0.005 0.06 0 0.01 0.06 0 0.015 0.06 0 0.02 0.06 0 0.025 0.06 0 0.03 0.06 0 0.035 0.06 0 0.04 0.06 0 0.045 0.06 0 0.05 0.06 0 0.055 0.06 0 0.06 0.06 0 0.065 0.06 0 0.07 0.06 0 0.075 0.06 0 0.08 0.06 0 0.085 0.06 0 0.09 0.06 0 0.095 0.06 0 0.1 0.06 0 0.105 0.06 0 0.11 0.06 0 0.115 0.06 0 0.12 0.06 0 0.125 0.06 0 0.13 0.06 0 0.135 0.06 0 0.14 0.06 0 0.145 0.06 0 0.15 0.06 0 0.155 0.06 0 0.16 0.06 0 0.165 0.06 0 0.17 0.06 0 0.175 0.06 0 0.18 0.06 0 0.185 0.06 0 0.19 0.06 0 0.195 0.06 0 0.2 0.06 0 0.205 0.06 0 0.21 0.06 0 0.215 0.06 0 0.22 0.06 0 0.225 0.06 0 0.23 0.06 0 0.235 0.06 0 0.24 0.06 0 0.245 0.06 0 0.25 0.06 0 0.255 0.06 0 0.26 0.06 0 0.265 0.06 0 0.27 0.06 0 0.275 0.06 0 0.28 0.06 0 0.285 0.06 0 0.29 0.06 0 0.295 0.06 0 0.3 0.06 0 0.305 0.06 0 0.31 0.06 0 0.315 0.06 0 0.32 0.06 0 0.325 0.06 0 0.33 0.06 0 0.335 0.06 0 0.34 0.06 0 0.345 0.06 0 0.35 0.06 0 0.355 0.06 0 0.36 0.06 0 0.365 0.06 0 0.37 0.06 0 0.375 0.06 0 0.38 0.06 0 0.385 0.06 0 0.39 0.06 0 0.395 0.06 0 0.4 0.06 0 0.405 0.06 0 0.41 0.06 0 0.415 0.06 0 0.42 0.06 0 0.425 0.06 0 0.43 0.06 0 0.435 0.06 0 0.44 0.06 0 0.445 0.06 0 0.45 0.06 0 0.455 0.06 0 0.46 0.06 0 0.465 0.06 0 0.47 0.06 0 0.475 0.06 0 0.48 0.06 0 0.485 0.06 0 0.49 0.06 0 0.495 0.06 0 0.5 0.06 0 0.505 0.06 0 0.51 0.06 0 0.515 0.06 0 0.52 0.06 0 0.525 0.06 0 0.53 0.06 0 0.535 0.06 0 0.54 0.06 0 0.545 0.06 0 0.55 0.06 0 0.555 0.06 0 0.56 0.06 0 0.565 0.06 0 0.57 0.06 0 0.575 0.06 0 0.58 0.06 0 0.585 0.06 0 0.59 0.06 0 0.595 0.06 0 0.6 0.06 0 0.605 0.06 0 0.61 0.06 0 0.615 0.06 0 0.62 0.06 0 0.625 0.06 0 0.63 0.06 0 0.635 0.06 0 0.64 0.06 0 0.645 0.06 0 0.65 0.06 0 0.655 0.06 0 0.66 0.06 0 0.665 0.06 0 0.67 0.06 0 0.675 0.06 0 0.68 0.06 0 0.685 0.06 0 0.69 0.06 0 0.695 0.06 0 0.7 0.06 0 0.705 0.06 0 0.71 0.06 0 0.715 0.06 0 0.72 0.06 0 0.725 0.06 0 0.73 0.06 0 0.735 0.06 0 0.74 0.06 0 0.745 0.06 0 0.75 0.06 0 0.755 0.06 0 0.76 0.06 0 0.765 0.06 0 0.77 0.06 0 0.775 0.06 0 0.78 0.06 0 0.785 0.06 0 0.79 0.06 0 0.795 0.06 0 0.8 0.06 0 0.805 0.06 0 0.81 0.06 0 0.815 0.06 0 0.82 0.06 0 0.825 0.06 0 0.83 0.06 0 0.835 0.06 0 0.84 0.06 0 0.845 0.06 0 0.85 0.06 0 0.855 0.06 0 0.86 0.06 0 0.865 0.06 0 0.87 0.06 0 0.875 0.06 0 0.88 0.06 0 0.885 0.06 0 0.89 0.06 0 0.895 0.06 0 0.9 0.06 0 0.905 0.06 0 0.91 0.06 0 0.915 0.06 0 0.92 0.06 0 0.925 0.06 0 0.93 0.06 0 0.935 0.06 0 0.94 0.06 0 0.945 0.06 0 0.95 0.06 0 0.955 0.06 0 0.96 0.06 0 0.965 0.06 0 0.97 0.06 0 0.975 0.06 0 0.98 0.06 0 0.985 0.06 0 0.99 0.06 0 0.995 0.06 0 1 0.06 0 0 0.08 0 0.005 0.08 0 0.01 0.08 0 0.015 0.08 0 0.02 0.08 0 0.025 0.08 0 0.03 0.08 0 0.035 0.08 0 0.04 0.08 0 0.045 0.08 0 0.05 0.08 0 0.055 0.08 0 0.06 0.08 0 0.065 0.08 0 0.07 0.08 0 0.075 0.08 0 0.08 0.08 0 0.085 0.08 0 0.09 0.08 0 0.095 0.08 0 0.1 0.08 0 0.105 0.08 0 0.11 0.08 0 0.115 0.08 0 0.12 0.08 0 0.125 0.08 0 0.13 0.08 0 0.135 0.08 0 0.14 0.08 0 0.145 0.08 0 0.15 0.08 0 0.155 0.08 0 0.16 0.08 0 0.165 0.08 0
[...]
			<PointData Scalars="VitesseX">
				<DataArray Name="VitesseX" type="Float32" format="ascii">
 0 5.36012e-15 1.07403e-15 -1.22888e-14 3.95064e-14 -3.21386e-14 -8.47832e-14 3.06842e-14 -1.21221e-14 6.74962e-14 -7.65551e-14 -5.52504e-14 -1.37435e-13 2.08575e-14 -9.2793e-14 -1.26058e-13 7.12863e-14 -1.35583e-14 -3.04508e-14 -1.22818e-13 -1.50024e-13 -4.64152e-14 5.96327e-14 -1.47998e-13 -1.83178e-13 -1.43187e-13 5.96024e-14 3.34302e-14 -3.04502e-13 -6.1969e-14 1.29962e-13 1.98046e-14 1.91546e-14 -1.17738e-13 -2.98191e-13 7.64453e-14 3.55506e-14 1.13424e-14 -2.01136e-13 -3.11995e-13 -2.08403e-13 1.18572e-14 -4.37115e-13 -2.4836e-13 -1.43588e-13 7.20452e-14 1.80499e-13 -1.13204e-13 -9.32171e-14 -3.11923e-13 1.55209e-13 6.56391e-13 1.52459e-13 -6.69232e-13 -4.30704e-13 -1.59604e-13 1.11524e-13 -7.29823e-14 -3.70141e-14 -2.47265e-13 1.03449e-13 3.43342e-13 -1.26874e-13 5.51345e-14 1.18239e-13 -1.37396e-13 -9.59982e-14 -8.14914e-13 -2.51532e-13 2.86245e-13 -2.07591e-13 2.57694e-14 5.33357e-13 7.30258e-12 8.67361e-11 9.7769e-10 1.00458e-08 9.32874e-08 7.77277e-07 5.76362e-06 3.76616e-05 0.000214226 0.00104439 0.00427765 0.0143645 0.0385738 0.0817691 0.139285 0.201138 0.262185 0.321842 0.380152 0.437069 0.492498 0.546276 0.598157 0.647808 0.694798 0.738607 0.778643 0.814295 0.845007 0.870397 0.890363 0.905161 0.915405 0.921959 0.925784 0.927758 0.928621 0.928805 0.928627 0.928065 0.92683 0.924312 0.919386 0.910156 0.893731 0.86616 0.822738 0.758851 0.671479 0.561257 0.434573 0.304325 0.187478 0.0989301 0.0442811 0.0172537 0.00614585 0.00208095 0.000682811 0.000218684 6.85034e-05 2.09947e-05 6.29357e-06 1.84467e-06 5.2849e-07 1.47959e-07 4.0471e-08 1.08151e-08 2.82311e-09 7.19114e-10 1.79907e-10 4.40215e-11 1.00218e-11 2.7192e-12 -2.96241e-13 4.89257e-13 4.09139e-13 -1.18804e-12 1.87718e-13 -6.75901e-13 9.63463e-13 -1.37485e-13 1.25766e-13 -6.34411e-13 3.26946e-14 2.90225e-13 4.87422e-13 -4.06614e-13 -1.05156e-12 5.14064e-13 7.58078e-13 -2.04894e-13 -8.57039e-13 -2.43929e-14 1.52293e-13 6.07424e-13 -7.34589e-13 6.5288e-13 8.86993e-14 -2.50531e-13 2.86285e-13 -8.29029e-13 5.86613e-13 -1.77105e-13 -5.81117e-13 -4.06515e-13 -7.63361e-13 6.22814e-13 7.66903e-14 -3.07081e-13 1.47757e-13 -2.16923e-13 7.22987e-13 3.38839e-13 -1.29777e-12 -4.41349e-13 -1.0615e-12 1.10088e-12 8.72869e-14 -2.37858e-12 3.40932e-13 9.67353e-13 2.33702e-13 -9.01162e-13 -2.43661e-12 1.51074e-12 1.15897e-12 0 0 -1.5968e-14 -6.28357e-15 -7.64234e-16 -4.19408e-14 2.23931e-14 5.96548e-14 -1.89386e-14 -5.28715e-15 -7.52628e-14 6.99502e-15 -3.54419e-14 1.49941e-15 -1.39156e-13 -5.86871e-14 -2.46969e-14 -1.1554e-13 -2.47124e-14 -4.88391e-14 1.19465e-14 -2.62003e-14 -1.2979e-13 -1.83647e-13 -3.36972e-14 6.64393e-14 -5.55967e-14 -2.46715e-13 -1.09239e-13 1.2654e-13 -5.64197e-14 -4.84926e-14 -4.09875e-14 -8.57643e-14 -5.03262e-14 1.53485e-13 -1.20611e-13 -1.86892e-13 -1.30699e-13 -1.04955e-13 -5.54186e-14 -1.65338e-13 -3.01564e-13 5.67418e-15 -7.19072e-14 -1.10418e-13 -2.67658e-13 -7.50007e-14 1.18351e-13 1.39328e-13 2.89554e-13 8.8416e-14 -3.52932e-13 -1.73046e-13 1.45076e-13 -6.52381e-14 -3.77149e-13 -2.91412e-13 -9.63129e-14 5.19911e-14 1.56353e-13 -1.05608e-13 -8.17667e-14 1.79673e-13 9.13594e-14 -3.24642e-13 -1.25793e-13 -1.99422e-13 8.70929e-14 -1.18265e-13 -4.62012e-13 3.20836e-14 2.49911e-13 1.12241e-12 7.09251e-12 8.63673e-11 9.77478e-10 1.00462e-08 9.32881e-08 7.77277e-07 5.76362e-06 3.76616e-05 0.000214226 0.00104439 0.00427765 0.0143645 0.0385738 0.0817691 0.139285 0.201138 0.262185 0.321842 0.380152 0.437069 0.492498 0.546276 0.598157 0.647808 0.694798 0.738607 0.778643 0.814295 0.845007 0.870397 0.890363 0.905161 0.915405 0.921959 0.925784 0.927758 0.928621 0.928805 0.928627 0.928065 0.92683 0.924312 0.919386 0.910156 0.893731 0.86616 0.822738 0.758851 0.671479 0.561257 0.434573 0.304325 0.187478 0.0989301 0.0442811 0.0172537 0.00614585 0.00208095 0.000682811 0.000218684 6.85034e-05 2.09947e-05 6.29357e-06 1.84468e-06 5.2849e-07 1.47958e-07 4.04718e-08 1.08145e-08 2.82321e-09 7.20606e-10 1.78946e-10 4.32155e-11 1.06817e-11 2.26343e-12 1.28498e-12 -6.9255e-13 -6.17871e-13 7.28521e-13 -3.29561e-13 2.04252e-13 -6.85376e-13 2.17488e-13 -1.25024e-13 4.60512e-13 -2.64341e-13 -6.24175e-13 -3.92369e-13 7.74572e-14 7.45591e-13 -3.79428e-13 -7.37412e-13 -1.71476e-13 3.41098e-13 1.26952e-13 -1.44369e-14 -2.28517e-13 7.29711e-13 -4.9484e-13 6.35846e-14 4.61381e-13 -4.85905e-13 5.01851e-13 -8.38506e-13 -3.5632e-13 -6.38802e-14 -2.59662e-13 2.14687e-13 -7.25795e-13 -1.92569e-13 5.59627e-13 -1.28162e-13 3.08906e-13 -2.9674e-13 -4.21593e-13 6.10889e-13 -7.14793e-13 5.85979e-13 -1.22332e-12 -7.38875e-13 1.63985e-12 -9.49482e-13 -8.44273e-13 -6.0826e-13 6.08319e-14 1.43147e-12 -1.75613e-12 -8.39348e-13 0 0 1.74634e-14 9.60268e-15 1.15078e-14 6.2954e-15 7.33214e-16 1.95755e-14 3.07731e-14 -4.83846e-15 6.47479e-15 -1.78824e-14 -5.22238e-14 -4.54343e-14 -5.21867e-14 -7.74164e-14 -5.16421e-14 -3.05587e-14 -1.13026e-13 2.50063e-14 -9.22186e-14 -9.68647e-14 -8.98728e-14 -3.86716e-14 -4.62448e-14 -1.47348e-13 -9.01566e-15 6.56049e-14 -8.9184e-14 -1.16319e-13 -1.09742e-15 3.52381e-14 -1.08657e-13 5.50681e-14 1.09768e-14 -1.17587e-13 -1.69803e-13 4.6466e-14 -1.68859e-13 -5.66315e-14 -1.68584e-13 -1.67673e-13 -4.69604e-14 -7.32277e-14 -9.22937e-14 -1.26579e-14 5.32682e-14 -6.10697e-14 -2.42566e-14 -1.87993e-14 -9.37225e-14 -1.31285e-13 1.34277e-13 2.15843e-14 -4.07888e-14 -1.0215e-13 -5.19629e-14 -1.22028e-13 -4.19917e-13 -1.23019e-13 1.04828e-13 1.25228e-13 -9.58181e-15 -2.94936e-13 1.23077e-14 -9.38519e-14 -2.90752e-14 1.17545e-13 -1.66975e-13 -3.41253e-13 1.84141e-14 -7.8794e-14 2.60365e-13 8.40647e-13 7.44761e-12 8.68366e-11 9.7771e-10 1.00456e-08 9.3288e-08 7.77277e-07 5.76362e-06 3.76616e-05 0.000214226 0.00104439 0.00427765 0.0143645 0.0385738 0.0817691 0.139285 0.201138 0.262185 0.321842 0.380152 0.437069 0.492498 0.546276 0.598157 0.647808 0.694798 0.738607 0.778643 0.814295 0.845007 0.870397 0.890363 0.905161 0.915405 0.921959 0.925784 0.927758 0.928621 0.928805 0.928627 0.928065 0.92683 0.924312 0.919386 0.910156 0.893731 0.86616 0.822738 0.758851 0.671479 0.561257 0.434573 0.304325 0.187478 0.0989301 0.0442811 0.0172537 0.00614585 0.00208095 0.000682811 0.000218684 6.85034e-05 2.09947e-05 6.29357e-06 1.84467e-06 5.2849e-07 1.47958e-07 4.04713e-08 1.08149e-08 2.82328e-09 7.19969e-10 1.79644e-10 4.37171e-11 1.00522e-11 2.55127e-12 -2.37488e-13 4.04357e-13 5.16086e-13 -1.54473e-13 2.14712e-13 -8.64379e-13 -9.2912e-14 -1.08185e-14 5.16963e-14 -2.76788e-13 -2.43106e-13 -7.57155e-14 -5.25577e-13 -2.9501e-13 -7.15797e-13 -1.96017e-13 5.87648e-13 -4.42538e-14 -1.85852e-13 -5.36644e-13 4.41606e-14 1.9741e-13 -3.28516e-14 7.90713e-13 -1.86313e-13 -3.42096e-13 2.21448e-14 -4.12724e-13 1.93321e-13 -3.21297e-13 -6.04e-13 1.81462e-13 -7.15585e-13 1.11696e-13 2.82372e-13 -4.64843e-14 2.96337e-13 -5.54578e-13 1.74278e-13 -5.56356e-14 3.43468e-14 7.23915e-13 -7.50279e-13 -1.78293e-13 -9.31135e-14 -7.16472e-13 5.73777e-13 -2.65626e-13 -6.59332e-13 -4.56291e-13 -4.6311e-13 1.21939e-12 1.10758e-13 0 0 1.28447e-14 4.74925e-14 4.97652e-14 6.72633e-14 1.22055e-14 -5.98204e-15 1.58561e-14 -3.03871e-14 2.30834e-14 -6.15225e-14 -1.19716e-14 -8.16584e-14 -4.73853e-16 -4.98372e-14 -6.81853e-14 -1.62144e-14 -5.73667e-15 -1.15767e-13 -1.39767e-13 -8.19918e-14 -7.16455e-14 -1.98271e-14 -5.93433e-14 -8.80113e-14 -4.66451e-14 3.31615e-14 1.6171e-13 -2.20206e-13 -1.26313e-14 7.45315e-14 -9.88239e-14 -6.45502e-14 -6.75843e-14 -1.79169e-13 -3.86777e-14 -1.4332e-13 -1.2208e-13 -1.19193e-13 -7.29061e-14 -4.53435e-14 -7.59863e-14 -2.64827e-13 1.76021e-14 -4.62897e-14 -5.74874e-14 1.50187e-13 -1.28842e-13 -1.17771e-13 -1.2691e-13 -7.90424e-14 3.61606e-13 -8.14946e-14 -4.02198e-13 -2.35913e-13 4.83963e-14 3.74024e-14 -1.53533e-13 -2.19322e-13 -1.09573e-13 2.76132e-14 1.46153e-13 1.41126e-13 9.12177e-14 1.16425e-13 -1.7489e-13 -2.48691e-13 -4.60058e-13 -9.42282e-14 -1.09527e-14 -3.18022e-14 -8.9548e-14 9.49264e-13 7.52137e-12 8.70606e-11 9.77772e-10 1.00461e-08 9.32876e-08 7.77277e-07 5.76362e-06 3.76616e-05 0.000214226 0.00104439 0.00427765 0.0143645 0.0385738 0.0817691 0.139285 0.201138 0.262185 0.321842 0.380152 0.437069 0.492498 0.546276 0.598157 0.647808 0.694798 0.738607 0.778643 0.814295 0.845007 0.870397 0.890363 0.905161 0.915405 0.921959 0.925784 0.927758 0.928621 0.928805 0.928627 0.928065 0.92683 0.924312 0.919386 0.910156 0.893731 0.86616 0.822738 0.758851 0.671479 0.561257 0.434573 0.304325 0.187478 0.0989301 0.0442811 0.0172537 0.00614585 0.00208095 0.000682811 0.000218684 6.85034e-05 2.09947e-05 6.29357e-06 1.84467e-06 5.2849e-07 1.47959e-07 4.04715e-08 1.08151e-08 2.82316e-09 7.19711e-10 1.79664e-10 4.41076e-11 1.031e-11 2.21087e-12 -1.60616e-13 1.37735e-13 6.0421e-13 -1.50846e-13 -4.78134e-13 -3.3229e-13 8.56129e-14 -3.32726e-13 -2.26479e-13 -5.80635e-13 -1.64197e-13 3.28081e-13 1.28431e-13 -5.32586e-13 -1.1039e-12 1.45347e-13 2.76963e-14 -1.44629e-13 -4.22714e-13 -2.99418e-13 1.38589e-13 4.82416e-13 -2.08134e-13 -3.11861e-14 3.44801e-15 -4.79036e-13 -1.32718e-13 1.83746e-13 4.02471e-13 -4.6993e-14 -5.28443e-13 -1.05339e-12 -6.82199e-13 1.71209e-13 8.68114e-13 9.26777e-15 -2.98391e-13 2.24978e-13 1.05989e-13 5.59465e-13 -1.28274e-13 -3.10145e-13 -4.30236e-13 -4.97139e-13 -8.56313e-14 -4.44345e-13 -2.74029e-13 6.04287e-13 -3.87706e-14 -1.18917e-12 -6.56652e-13 1.09828e-12 1.39705e-12 0 0 1.19159e-14 4.98503e-14 5.39701e-14 2.50163e-14 6.15499e-14 6.6252e-14 -3.34333e-14 -1.71954e-14 -7.4368e-14 -2.62714e-14 -7.96907e-15 1.26975e-14 -8.12945e-14 -5.23659e-14 -2.66677e-14 -9.16072e-14 1.76555e-14 -1.01155e-13 -4.35923e-14 -2.14284e-14 -7.58644e-14 -1.75308e-13 1.10532e-14 1.78793e-13 -1.53889e-14 -1.64032e-13 3.93738e-14 1.06363e-13 -5.35819e-14 -1.79247e-13 -1.24355e-13 -1.79262e-13 -3.85464e-14 1.18994e-13 -1.81656e-13 -2.32888e-13 -3.51787e-14 -1.06612e-13 -1.9109e-14 -3.56108e-14 -3.026e-13 1.06499e-14 2.3323e-14 -1.12414e-13 -2.27903e-13 6.306e-14 9.15532e-14 6.65609e-14 2.79368e-13 5.56068e-15 -3.9019e-13 -1.48161e-13 -8.36708e-14 -1.44461e-13 -3.42717e-13 -2.96495e-13 -1.11723e-13 -1.07486e-13 -6.89995e-14 -3.69253e-14 7.19272e-14 5.34066e-13 7.98359e-14 -8.74495e-14 -2.47449e-13 -5.38293e-13 1.13115e-13 -5.45903e-14 -4.59811e-13 2.03888e-13 2.52904e-13 1.40176e-12 7.3117e-12 8.68542e-11 9.77291e-10 1.00466e-08 9.32881e-08 7.77277e-07 5.76362e-06 3.76616e-05 0.000214226 0.00104439 0.00427765 0.0143645 0.0385738 0.0817691 0.139285 0.201138 0.262185 0.321842 0.380152 0.437069 0.492498 0.546276 0.598157 0.647808 0.694798 0.738607 0.778643 0.814295 0.845007 0.870397 0.890363 0.905161 0.915405 0.921959 0.925784 0.927758 0.928621 0.928805 0.928627 0.928065 0.92683 0.924312 0.919386 0.910156 0.893731 0.86616 0.822738 0.758851 0.671479 0.561257 0.434573 0.304325 0.187478 0.0989301 0.0442811 0.0172537 0.00614585 0.00208095 0.000682811 0.000218684 6.85034e-05 2.09947e-05 6.29357e-06 1.84468e-06 5.28491e-07 1.47958e-07 4.0472e-08 1.08148e-08 2.82325e-09 7.20527e-10 1.79075e-10 4.33649e-11 1.10705e-11 1.87965e-12 1.20156e-12 -1.01394e-12 -4.25149e-13 6.88897e-13 -7.65472e-13 5.86653e-13 -1.12379e-12 -2.55924e-13 8.90221e-14 1.15868e-13 -4.2059e-13 -3.74853e-13 -7.09285e-14 4.17922e-13 3.00454e-13 -6.03571e-13 -8.59385e-13 -2.14844e-13 4.53085e-13 2.5429e-13 1.39782e-13 -2.98533e-13 4.22962e-13 -1.00624e-12 -1.43171e-13 1.50449e-13 -4.7255e-13 8.09625e-13 -7.71761e-13 -2.7451e-13 -2.09032e-13 -1.15031e-12 5.60077e-14 -6.74293e-13 2.92407e-13 7.9535e-13 -1.5908e-13 7.70463e-13 -5.97564e-13 -1.93414e-13 6.94164e-13 -7.16112e-13 8.29846e-13 -1.28214e-12 -6.49651e-13 1.69743e-12 -1.63641e-12 -6.73316e-13 -3.47947e-13 -3.64008e-13 1.80674e-12 -1.59646e-12 -1.95494e-13 0 0 7.03654e-14 3.75621e-14 2.0665e-14 5.14849e-14 2.32304e-14 -2.04738e-14 3.15288e-14 1.51587e-14 3.60687e-14 -5.58078e-14 -8.0809e-14 -4.25904e-14 3.31546e-14 -1.35309e-13 -9.69136e-14 9.04637e-14 -1.43402e-13 1.46465e-13 -1.38799e-13 -1.70226e-13 2.4982e-14 3.86206e-14 -3.23008e-14 -7.71423e-14 1.24872e-14 2.89855e-13 -1.71132e-13 -1.3708e-13 -3.32256e-14 -2.10134e-13 -1.66597e-13 7.1395e-14 6.29442e-14 -2.44009e-13 -3.07894e-13 3.23129e-13 1.08827e-13 -7.9328e-14 -4.30731e-13 -1.93608e-13 6.78371e-14 -4.39649e-14 -2.77691e-13 -8.0316e-14 3.73067e-13 3.4106e-14 4.2372e-14 -4.08073e-14 -2.65921e-13 -1.14987e-13 1.27218e-13 4.08386e-13 -4.03908e-13 -3.21624e-13 -2.91458e-13 -2.17502e-13 -6.3657e-13 -1.63361e-13 -2.69167e-13 4.36044e-13 3.39261e-13 -2.90213e-13 -1.25732e-13 1.72069e-13 -8.90787e-14 -4.12693e-14 -1.76705e-13 -6.18232e-13 3.49381e-13 4.2034e-14 7.31581e-13 8.74832e-13 7.59343e-12 8.72618e-11 9.7719e-10 1.00455e-08 9.32881e-08 7.77278e-07 5.76362e-06 3.76616e-05 0.000214226 0.00104439 0.00427765 0.0143645 0.0385738 0.0817691 0.139285 0.201138 0.262185 0.321842 0.380152 0.437069 0.492498 0.546276 0.598157 0.647808 0.694798 0.738607 0.778643 0.814295 0.845007 0.870397 0.890363 0.905161 0.915405 0.921959 0.925784 0.927758 0.928621 0.928805 0.928627 0.928065 0.92683 0.924312 0.919386 0.910156 0.893731 0.86616 0.822738 0.758851 0.671479 0.561257 0.434573 0.304325 0.187478 0.0989301 0.0442811 0.0172537 0.00614585 0.00208095 0.000682811 0.000218684 6.85034e-05 2.09947e-05 6.29357e-06 1.84467e-06 5.28491e-07 1.47959e-07 4.04709e-08 1.08154e-08 2.82344e-09 7.19471e-10 1.80125e-10 4.35393e-11 1.02839e-11 2.63244e-12 -6.16828e-13 3.79715e-13 6.18335e-13 -1.27454e-12 7.01587e-13 -9.75277e-13 -2.70406e-13 -4.40495e-13 1.11021e-12 -7.16006e-13 -4.37621e-13 -1.87237e-14 -1.77713e-13 7.49468e-13 -1.16562e-12 -6.16947e-13 1.63404e-12 -9.08805e-14 -1.59342e-13 -2.44169e-13 2.71874e-13 -1.02621e-13 -9.97524e-13 1.27388e-12 -7.04333e-13 -5.98515e-13 6.22722e-13 -1.40642e-12 3.01803e-13 -5.62093e-13 -1.02254e-12 2.81892e-13 -1.14749e-12 6.06791e-13 -1.24842e-13 5.28613e-14 1.27538e-12 -8.52921e-13 2.57917e-13 -4.35006e-13 -8.05981e-13 1.62413e-12 -1.21385e-12 1.62092e-12 2.50771e-13 -2.80768e-12 6.62697e-13 -4.30559e-13 -4.86795e-13 -2.8509e-13 -1.29896e-12 2.0723e-12 -1.25915e-13 0
				</DataArray>
				<DataArray Name="VitesseY" type="Float32" format="ascii">