<?xml version="1.0"?>
<VTKFile type="PolyData">
	<PolyData>
		<Piece NumberOfPoints="1206" NumberOfPolys="1000">
			<Points>
				<DataArray type="Float32" NumberOfComponents="3" format="ascii">
 0 0 0 0.005 0 0 0.01 0 0 0.015 0 0 0.02 0 0 0.025 0 0 0.03 0 0 0.035 0 0 0.04 0 0 0.045 0 0 0.05 0 0 0.055 0 0 0.06 0 0 0.065 0 0 0.07 0 0 0.075 0 0 0.08 0 0 0.085 0 0 0.09 0 0 0.095 0 0 0.1 0 0 0.105 0 0 0.11 0 0 0.115 0 0 0.12 0 0 0.125 0 0 0.13 0 0 0.135 0 0 0.14 0 0 0.145 0 0 0.15 0 0 0.155 0 0 0.16 0 0 0.165 0 0 0.17 0 0 0.175 0 0 0.18 0 0 0.185 0 0 0.19 0 0 0.195 0 0 0.2 0 0 0.205 0 0 0.21 0 0 0.215 0 0 0.22 0 0 0.225 0 0 0.23 0 0 0.235 0 0 0.24 0 0 0.245 0 0 0.25 0 0 0.255 0 0 0.26 0 0 0.265 0 0 0.27 0 0 0.275 0 0 0.28 0 0 0.285 0 0 0.29 0 0 0.295 0 0 0.3 0 0 0.305 0 0 0.31 0 0 0.315 0 0 0.32 0 0 0.325 0 0 0.33 0 0 0.335 0 0 0.34 0 0 0.345 0 0 0.35 0 0 0.355 0 0 0.36 0 0 0.365 0 0 0.37 0 0 0.375 0 0 0.38 0 0 0.385 0 0 0.39 0 0 0.395 0 0 0.4 0 0 0.405 0 0 0.41 0 0 0.415 0 0 0.42 0 0 0.425 0 0 0.43 0 0 0.435 0 0 0.44 0 0 0.445 0 0 0.45 0 0 0.455 0 0 0.46 0 0 0.465 0 0 0.47 0 0 0.475 0 0 0.48 0 0 0.485 0 0 0.49 0 0 0.495 0 0 0.5 0 0 0.505 0 0 0.51 0 0 0.515 0 0 0.52 0 0 0.525 0 0 0.53 0 0 0.535 0 0 0.54 0 0 0.545 0 0 0.55 0 0 0.555 0 0 0.56 0 0 0.565 0 0 0.57 0 0 0.575 0 0 0.58 0 0 0.585 0 0 0.59 0 0 0.595 0 0 0.6 0 0 0.605 0 0 0.61 0 0 0.615 0 0 0.62 0 0 0.625 0 0 0.63 0 0 0.635 0 0 0.64 0 0 0.645 0 0 0.65 0 0 0.655 0 0 0.66 0 0 0.665 0 0 0.67 0 0 0.675 0 0 0.68 0 0 0.685 0 0 0.69 0 0 0.695 0 0 0.7 0 0 0.705 0 0 0.71 0 0 0.715 0 0 0.72 0 0 0.725 0 0 0.73 0 0 0.735 0 0 0.74 0 0 0.745 0 0 0.75 0 0 0.755 0 0 0.76 0 0 0.765 0 0 0.77 0 0 0.775 0 0 0.78 0 0 0.785 0 0 0.79 0 0 0.795 0 0 0.8 0 0 0.805 0 0 0.81 0 0 0.815 0 0 0.82 0 0 0.825 0 0 0.83 0 0 0.835 0 0 0.84 0 0 0.845 0 0 0.85 0 0 0.855 0 0 0.86 0 0 0.865 0 0 0.87 0 0 0.875 0 0 0.88 0 0 0.885 0 0 0.89 0 0 0.895 0 0 0.9 0 0 0.905 0 0 0.91 0 0 0.915 0 0 0.92 0 0 0.925 0 0 0.93 0 0 0.935 0 0 0.94 0 0 0.945 0 0 0.95 0 0 0.955 0 0 0.96 0 0 0.965 0 0 0.97 0 0 0.975 0 0 0.98 0 0 0.985 0 0 0.99 0 0 0.995 0 0 1 0 0 0 0.02 0 0.005 0.02 0 0.01 0.02 0 0.015 0.02 0 0.02 0.02 0 0.025 0.02 0 0.03 0.02 0 0.035 0.02 0 0.04 0.02 0 0.045 0.02 0 0.05 0.02 0 0.055 0.02 0 0.06 0.02 0 0.065 0.02 0 0.07 0.02 0 0.075 0.02 0 0.08 0.02 0 0.085 0.02 0 0.09 0.02 0 0.095 0.02 0 0.1 0.02 0 0.105 0.02 0 0.11 0.02 0 0.115 0.02 0 0.12 0.02 0 0.125 0.02 0 0.13 0.02 0 0.135 0.02 0 0.14 0.02 0 0.145 0.02 0 0.15 0.02 0 0.155 0.02 0 0.16 0.02 0 0.165 0.02 0 0.17 0.02 0 0.175 0.02 0 0.18 0.02 0 0.185 0.02 0 0.19 0.02 0 0.195 0.02 0 0.2 0.02 0 0.205 0.02 0 0.21 0.02 0 0.215 0.02 0 0.22 0.02 0 0.225 0.02 0 0.23 0.02 0 0.235 0.02 0 0.24 0.02 0 0.245 0.02 0 0.25 0.02 0 0.255 0.02 0 0.26 0.02 0 0.265 0.02 0 0.27 0.02 0 0.275 0.02 0 0.28 0.02 0 0.285 0.02 0 0.29 0.02 0 0.295 0.02 0 0.3 0.02 0 0.305 0.02 0 0.31 0.02 0 0.315 0.02 0 0.32 0.02 0 0.325 0.02 0 0.33 0.02 0 0.335 0.02 0 0.34 0.02 0 0.345 0.02 0 0.35 0.02 0 0.355 0.02 0 0.36 0.02 0 0.365 0.02 0 0.37 0.02 0 0.375 0.02 0 0.38 0.02 0 0.385 0.02 0 0.39 0.02 0 0.395 0.02 0 0.4 0.02 0 0.405 0.02 0 0.41 0.02 0 0.415 0.02 0 0.42 0.02 0 0.425 0.02 0 0.43 0.02 0 0.435 0.02 0 0.44 0.02 0 0.445 0.02 0 0.45 0.02 0 0.455 0.02 0 0.46 0.02 0 0.465 0.02 0 0.47 0.02 0 0.475 0.02 0 0.48 0.02 0 0.485 0.02 0 0.49 0.02 0 0.495 0.02 0 0.5 0.02 0 0.505 0.02 0 0.51 0.02 0 0.515 0.02 0 0.52 0.02 0 0.525 0.02 0 0.53 0.02 0 0.535 0.02 0 0.54 0.02 0 0.545 0.02 0 0.55 0.02 0 0.555 0.02 0 0.56 0.02 0 0.565 0.02 0 0.57 0.02 0 0.575 0.02 0 0.58 0.02 0 0.585 0.02 0 0.59 0.02 0 0.595 0.02 0 0.6 0.02 0 0.605 0.02 0 0.61 0.02 0 0.615 0.02 0 0.62 0.02 0 0.625 0.02 0 0.63 0.02 0 0.635 0.02 0 0.64 0.02 0 0.645 0.02 0 0.65 0.02 0 0.655 0.02 0 0.66 0.02 0 0.665 0.02 0 0.67 0.02 0 0.675 0.02 0 0.68 0.02 0 0.685 0.02 0 0.69 0.02 0 0.695 0.02 0 0.7 0.02 0 0.705 0.02 0 0.71 0.02 0 0.715 0.02 0 0.72 0.02 0 0.725 0.02 0 0.73 0.02 0 0.735 0.02 0 0.74 0.02 0 0.745 0.02 0 0.75 0.02 0 0.755 0.02 0 0.76 0.02 0 0.765 0.02 0 0.77 0.02 0 0.775 0.02 0 0.78 0.02 0 0.785 0.02 0 0.79 0.02 0 0.795 0.02 0 0.8 0.02 0 0.805 0.02 0 0.81 0.02 0 0.815 0.02 0 0.82 0.02 0 0.825 0.02 0 0.83 0.02 0 0.835 0.02 0 0.84 0.02 0 0.845 0.02 0 0.85 0.02 0 0.855 0.02 0 0.86 0.02 0 0.865 0.02 0 0.87 0.02 0 0.875 0.02 0 0.88 0.02 0 0.885 0.02 0 0.89 0.02 0 0.895 0.02 0 0.9 0.02 0 0.905 0.02 0 0.91 0.02 0 0.915 0.02 0 0.92 0.02 0 0.925 0.02 0 0.93 0.02 0 0.935 0.02 0 0.94 0.02 0 0.945 0.02 0 0.95 0.02 0 0.955 0.02 0 0.96 0.02 0 0.965 0.02 0 0.97 0.02 0 0.975 0.02 0 0.98 0.02 0 0.985 0.02 0 0.99 0.02 0 0.995 0.02 0 1 0.02 0 0 0.04 0 0.005 0.04 0 0.01 0.04 0 0.015 0.04 0 0.02 0.04 0 0.025 0.04 0 0.03 0.04 0 0.035 0.04 0 0.04 0.04 0 0.045 0.04 0 0.05 0.04 0 0.055 0.04 0 0.06 0.04 0 0.065 0.04 0 0.07 0.04 0 0.075 0.04 0 0.08 0.04 0 0.085 0.04 0 0.09 0.04 0 0.095 0.04 0 0.1 0.04 0 0.105 0.04 0 0.11 0.04 0 0.115 0.04 0 0.12 0.04 0 0.125 0.04 0 0.13 0.04 0 0.135 0.04 0 0.14 0.04 0 0.145 0.04 0 0.15 0.04 0 0.155 0.04 0 0.16 0.04 0 0.165 0.04 0 0.17 0.04 0 0.175 0.04 0 0.18 0.04 0 0.185 0.04 0 0.19 0.04 0 0.195 0.04 0 0.2 0.04 0 0.205 0.04 0 0.21 0.04 0 0.215 0.04 0 0.22 0.04 0 0.225 0.04 0 0.23 0.04 0 0.235 0.04 0 0.24 0.04 0 0.245 0.04 0 0.25 0.04 0 0.255 0.04 0 0.26 0.04 0 0.265 0.04 0 0.27 0.04 0 0.275 0.04 0 0.28 0.04 0 0.285 0.04 0 0.29 0.04 0 0.295 0.04 0 0.3 0.04 0 0.305 0.04 0 0.31 0.04 0 0.315 0.04 0 0.32 0.04 0 0.325 0.04 0 0.33 0.04 0 0.335 0.04 0 0.34 0.04 0 0.345 0.04 0 0.35 0.04 0 0.355 0.04 0 0.36 0.04 0 0.365 0.04 0 0.37 0.04 0 0.375 0.04 0 0.38 0.04 0 0.385 0.04 0 0.39 0.04 0 0.395 0.04 0 0.4 0.04 0 0.405 0.04 0 0.41 0.04 0 0.415 0.04 0 0.42 0.04 0 0.425 0.04 0 0.43 0.04 0 0.435 0.04 0 0.44 0.04 0 0.445 0.04 0 0.45 0.04 0 0.455 0.04 0 0.46 0.04 0 0.465 0.04 0 0.47 0.04 0 0.475 0.04 0 0.48 0.04 0 0.485 0.04 0 0.49 0.04 0 0.495 0.04 0 0.5 0.04 0 0.505 0.04 0 0.51 0.04 0 0.515 0.04 0 0.52 0.04 0 0.525 0.04 0 0.53 0.04 0 0.535 0.04 0 0.54 0.04 0 0.545 0.04 0 0.55 0.04 0 0.555 0.04 0 0.56 0.04 0 0.565 0.04 0 0.57 0.04 0 0.575 0.04 0 0.58 0.04 0 0.585 0.04 0 0.59 0.04 0 0.595 0.04 0 0.6 0.04 0 0.605 0.04 0 0.61 0.04 0 0.615 0.04 0 0.62 0.04 0 0.625 0.04 0 0.63 0.04 0 0.635 0.04 0 0.64 0.04 0 0.645 0.04 0 0.65 0.04 0 0.655 0.04 0 0.66 0.04 0 0.665 0.04 0 0.67 0.04 0 0.675 0.04 0 0.68 0.04 0 0.685 0.04 0 0.69 0.04 0 0.695 0.04 0 0.7 0.04 0 0.705 0.04 0 0.71 0.04 0 0.715 0.04 0 0.72 0.04 0 0.725 0.04 0 0.73 0.04 0 0.735 0.04 0 0.74 0.04 0 0.745 0.04 0 0.75 0.04 0 0.755 0.04 0 0.76 0.04 0 0.765 0.04 0 0.77 0.04 0 0.775 0.04 0 0.78 0.04 0 0.785 0.04 0 0.79 0.04 0 0.795 0.04 0 0.8 0.04 0 0.805 0.04 0 0.81 0.04 0 0.815 0.04 0 0.82 0.04 0 0.825 0.04 0 0.83 0.04 0 0.835 0.04 0 0.84 0.04 0 0.845 0.04 0 0.85 0.04 0 0.855 0.04 0 0.86 0.04 0 0.865 0.04 0 0.87 0.04 0 0.875 0.04 0 0.88 0.04 0 0.885 0.04 0 0.89 0.04 0 0.895 0.04 0 0.9 0.04 0 0.905 0.04 0 0.91 0.04 0 0.915 0.04 0 0.92 0.04 0 0.925 0.04 0 0.93 0.04 0 0.935 0.04 0 0.94 0.04 0 0.945 0.04 0 0.95 0.04 0 0.955 0.04 0 0.96 0.04 0 0.965 0.04 0 0.97 0.04 0 0.975 0.04 0 0.98 0.04 0 0.985 0.04 0 0.99 0.04 0 0.995 0.04 0 1 0.04 0 0 0.06 0 0.005 0.06 0 0.01 0.06 0 0.015 0.06 0 0.02 0.06 0 0.025 0.06 0 0.03 0.06 0 0.035 0.06 0 0.04 0.06 0 0.045 0.06 0 0.05 0.06 0 0.055 0.06 0 0.06 0.06 0 0.065 0.06 0 0.07 0.06 0 0.075 0.06 0 0.08 0.06 0 0.085 0.06 0 0.09 0.06 0 0.095 0.06 0 0.1 0.06 0 0.105 0.06 0 0.11 0.06 0 0.115 0.06 0 0.12 0.06 0 0.125 0.06 0 0.13 0.06 0 0.135 0.06 0 0.14 0.06 0 0.145 0.06 0 0.15 0.06 0 0.155 0.06 0 0.16 0.06 0 0.165 0.06 0 0.17 0.06 0 0.175 0.06 0 0.18 0.06 0 0.185 0.06 0 0.19 0.06 0 0.195 0.06 0 0.2 0.06 0 0.205 0.06 0 0.21 0.06 0 0.215 0.06 0 0.22 0.06 0 0.225 0.06 0 0.23 0.06 0 0.235 0.06 0 0.24 0.06 0 0.245 0.06 0 0.25 0.06 0 0.255 0.06 0 0.26 0.06 0 0.265 0.06 0 0.27 0.06 0 0.275 0.06 0 0.28 0.06 0 0.285 0.06 0 0.29 0.06 0 0.295 0.06 0 0.3 0.06 0 0.305 0.06 0 0.31 0.06 0 0.315 0.06 0 0.32 0.06 0 0.325 0.06 0 0.33 0.06 0 0.335 0.06 0 0.34 0.06 0 0.345 0.06 0 0.35 0.06 0 0.355 0.06 0 0.36 0.06 0 0.365 0.06 0 0.37 0.06 0 0.375 0.06 0 0.38 0.06 0 0.385 0.06 0 0.39 0.06 0 0.395 0.06 0 0.4 0.06 0 0.405 0.06 0 0.41 0.06 0 0.415 0.06 0 0.42 0.06 0 0.425 0.06 0 0.43 0.06 0 0.435 0.06 0 0.44 0.06 0 0.445 0.06 0 0.45 0.06 0 0.455 0.06 0 0.46 0.06 0 0.465 0.06 0 0.47 0.06 0 0.475 0.06 0 0.48 0.06 0 0.485 0.06 0 0.49 0.06 0 0.495 0.06 0 0.5 0.06 0 0.505 0.06 0 0.51 0.06 0 0.515 0.06 0 0.52 0.06 0 0.525 0.06 0 0.53 0.06 0 0.535 0.06 0 0.54 0.06 0 0.545 0.06 0 0.55 0.06 0 0.555 0.06 0 0.56 0.06 0 0.565 0.06 0 0.57 0.06 0 0.575 0.06 0 0.58 0.06 0 0.585 0.06 0 0.59 0.06 0 0.595 0.06 0 0.6 0.06 0 0.605 0.06 0 0.61 0.06 0 0.615 0.06 0 0.62 0.06 0 0.625 0.06 0 0.63 0.06 0 0.635 0.06 0 0.64 0.06 0 0.645 0.06 0 0.65 0.06 0 0.655 0.06 0 0.66 0.06 0 0.665 0.06 0 0.67 0.06 0 0.675 0.06 0 0.68 0.06 0 0.685 0.06 0 0.69 0.06 0 0.695 0.06 0 0.7 0.06 0 0.705 0.06 0 0.71 0.06 0 0.715 0.06 0 0.72 0.06 0 0.725 0.06 0 0.73 0.06 0 0.735 0.06 0 0.74 0.06 0 0.745 0.06 0 0.75 0.06 0 0.755 0.06 0 0.76 0.06 0 0.765 0.06 0 0.77 0.06 0 0.775 0.06 0 0.78 0.06 0 0.785 0.06 0 0.79 0.06 0 0.795 0.06 0 0.8 0.06 0 0.805 0.06 0 0.81 0.06 0 0.815 0.06 0 0.82 0.06 0 0.825 0.06 0 0.83 0.06 0 0.835 0.06 0 0.84 0.06 0 0.845 0.06 0 0.85 0.06 0 0.855 0.06 0 0.86 0.06 0 0.865 0.06 0 0.87 0.06 0 0.875 0.06 0 0.88 0.06 0 0.885 0.06 0 0.89 0.06 0 0.895 0.06 0 0.9 0.06 0 0.905 0.06 0 0.91 0.06 0 0.915 0.06 0 0.92 0.06 0 0.925 0.06 0 0.93 0.06 0 0.935 0.06 0 0.94 0.06 0 0.945 0.06 0 0.95 0.06 0 0.955 0.06 0 0.96 0.06 0 0.965 0.06 0 0.97 0.06 0 0.975 0.06 0 0.98 0.06 0 0.985 0.06 0 0.99 0.06 0 0.995 0.06 0 1 0.06 0 0 0.08 0 0.005 0.08 0 0.01 0.08 0 0.015 0.08 0 0.02 0.08 0 0.025 0.08 0 0.03 0.08 0 0.035 0.08 0 0.04 0.08 0 0.045 0.08 0 0.05 0.08 0 0.055 0.08 0 0.06 0.08 0 0.065 0.08 0 0.07 0.08 0 0.075 0.08 0 0.08 0.08 0 0.085 0.08 0 0.09 0.08 0 0.095 0.08 0 0.1 0.08 0 0.105 0.08 0 0.11 0.08 0 0.115 0.08 0 0.12 0.08 0 0.125 0.08 0 0.13 0.08 0 0.135 0.08 0 0.14 0.08 0 0.145 0.08 0 0.15 0.08 0 0.155 0.08 0 0.16 0.08 0 0.165 0.08 0
[...]
			<PointData Scalars="VitesseX">
				<DataArray Name="VitesseX" type="Float32" format="ascii">
 0 1.72469e-14 1.95717e-14 -4.95598e-15 -3.68418e-15 6.68638e-15 -1.99097e-14 -4.44382e-14 -1.18519e-14 -4.69846e-14 1.41792e-14 -6.60892e-14 -3.98382e-14 -5.06304e-14 -9.89525e-14 -2.01015e-14 -1.55592e-13 1.84252e-14 -8.57429e-14 -3.45501e-14 -9.55835e-14 9.12768e-14 2.77939e-14 -2.92503e-14 2.87888e-14 -5.4297e-14 9.37317e-14 -1.02198e-13 -1.00036e-13 3.46269e-14 -6.43058e-14 2.14687e-14 -1.76947e-14 4.74078e-14 -4.07397e-14 -5.33263e-14 -1.40445e-15 6.67334e-14 -6.48205e-14 2.49612e-14 4.14322e-13 1.83951e-12 1.1401e-11 6.83228e-11 3.92271e-10 2.14042e-09 1.10623e-08 5.40785e-08 2.49368e-07 1.08156e-06 4.3978e-06 1.67015e-05 5.89783e-05 0.000192648 0.000578442 0.00158477 0.00392868 0.00873739 0.017314 0.0305059 0.0480659 0.0687172 0.090965 0.113807 0.136804 0.159812 0.182786 0.205709 0.228573 0.25137 0.274098 0.296754 0.319335 0.341837 0.364258 0.386593 0.408837 0.430985 0.453029 0.474961 0.496773 0.518452 0.539986 0.561361 0.582557 0.603555 0.62433 0.644856 0.6651 0.685024 0.704588 0.723743 0.742433 0.760598 0.778168 0.795067 0.811216 0.826526 0.840911 0.854284 0.866564 0.877681 0.887584 0.896246 0.903666 0.909879 0.914949 0.918972 0.922066 0.924366 0.926009 0.927131 0.927853 0.928283 0.928506 0.928592 0.928591 0.928555 0.928496 0.92842 0.928334 0.928243 0.928149 0.928056 0.927965 0.927878 0.927794 0.927715 0.927639 0.927566 0.927497 0.92743 0.927365 0.927303 0.927241 0.927181 0.927122 0.927062 0.927003 0.926943 0.926881 0.926816 0.926745 0.926663 0.926564 0.926432 0.926244 0.925961 0.925513 0.924788 0.923605 0.921665 0.918499 0.913367 0.905147 0.892178 0.872127 0.841937 0.798002 0.736739 0.65569 0.555135 0.439806 0.319703 0.208609 0.119704 0.0598656 0.0265255 0.0108266 0.00422972 0.00161934 0.000614235 0.000231857 8.72324e-05 3.27267e-05 1.2243e-05 4.56624e-06 1.69745e-06 6.28751e-07 2.31988e-07 8.5236e-08 3.11751e-08 1.13474e-08 4.10859e-09 1.47961e-09 5.29359e-10 1.88194e-10 6.64771e-11 2.34269e-11 7.28686e-12 2.91428e-12 2.43609e-13 1.20135e-13 2.21043e-13 2.52978e-13 8.28738e-14 -2.5976e-13 4.65255e-13 -2.88563e-13 -1.2166e-14 0 0 5.8271e-15 1.53816e-15 1.21548e-14 -7.39151e-15 -2.9218e-14 4.71277e-15 -1.44501e-14 -4.60002e-14 -2.39484e-15 -7.5371e-14 -4.11383e-14 -4.54068e-14 -4.90428e-14 -3.04476e-14 -7.53927e-14 -3.38001e-14 -1.64273e-13 -2.8538e-14 -1.79438e-14 4.05648e-14 -7.37272e-14 -1.06792e-14 1.97596e-14 6.71907e-14 6.80244e-15 -9.68866e-14 -9.94492e-15 -4.36584e-14 -2.48679e-14 3.87852e-14 -3.88855e-14 -1.94925e-14 -1.29593e-14 -3.93411e-15 -3.68596e-14 -4.24701e-14 -8.83979e-14 1.01646e-13 6.78821e-14 2.32797e-13 1.78263e-12 1.13533e-11 6.83638e-11 3.92597e-10 2.13991e-09 1.10625e-08 5.40786e-08 2.49368e-07 1.08156e-06 4.3978e-06 1.67015e-05 5.89783e-05 0.000192648 0.000578442 0.00158477 0.00392868 0.00873739 0.017314 0.0305059 0.0480659 0.0687172 0.090965 0.113807 0.136804 0.159812 0.182786 0.205709 0.228573 0.25137 0.274098 0.296754 0.319335 0.341837 0.364258 0.386593 0.408837 0.430985 0.453029 0.474961 0.496773 0.518452 0.539986 0.561361 0.582557 0.603555 0.62433 0.644856 0.6651 0.685024 0.704588 0.723743 0.742433 0.760598 0.778168 0.795067 0.811216 0.826526 0.840911 0.854284 0.866564 0.877681 0.887584 0.896246 0.903666 0.909879 0.914949 0.918972 0.922066 0.924366 0.926009 0.927131 0.927853 0.928283 0.928506 0.928592 0.928591 0.928555 0.928496 0.92842 0.928334 0.928243 0.928149 0.928056 0.927965 0.927878 0.927794 0.927715 0.927639 0.927566 0.927497 0.92743 0.927365 0.927303 0.927241 0.927181 0.927122 0.927062 0.927003 0.926943 0.926881 0.926816 0.926745 0.926663 0.926564 0.926432 0.926244 0.925961 0.925513 0.924788 0.923605 0.921665 0.918499 0.913367 0.905147 0.892178 0.872127 0.841937 0.798002 0.736739 0.65569 0.555135 0.439806 0.319703 0.208609 0.119704 0.0598656 0.0265255 0.0108266 0.00422972 0.00161934 0.000614235 0.000231857 8.72324e-05 3.27267e-05 1.2243e-05 4.56624e-06 1.69745e-06 6.28751e-07 2.31989e-07 8.5236e-08 3.11754e-08 1.1347e-08 4.10889e-09 1.47915e-09 5.29692e-10 1.8838e-10 6.6367e-11 2.30596e-11 8.02862e-12 2.22776e-12 9.52402e-13 2.5423e-13 -2.18931e-13 -2.56157e-13 2.78176e-13 3.87332e-13 -2.54914e-13 -9.17498e-14 -6.58509e-14 0 0 -3.03827e-15 -4.17838e-15 -8.57455e-15 -3.91604e-15 -1.51808e-14 -4.27448e-14 -5.02258e-14 -1.6947e-14 -4.04875e-14 -4.6001e-14 -5.48203e-14 -5.01297e-14 -4.37141e-14 -6.82011e-14 -2.64948e-14 -1.6848e-14 7.81768e-15 -8.50057e-14 -6.21216e-14 -2.14159e-14 4.91692e-14 7.0136e-14 -4.40671e-14 -3.14171e-14 -8.6227e-14 -5.00443e-14 -2.4982e-14 -6.3292e-14 7.91069e-14 -1.15982e-14 -2.02512e-15 -4.70012e-14 -2.27449e-14 -7.74071e-14 7.60321e-15 -3.37812e-14 -3.00225e-14 -1.44865e-13 6.94866e-14 3.5762e-13 1.74291e-12 1.13106e-11 6.84573e-11 3.92489e-10 2.14003e-09 1.10623e-08 5.40787e-08 2.49368e-07 1.08156e-06 4.3978e-06 1.67015e-05 5.89783e-05 0.000192648 0.000578442 0.00158477 0.00392868 0.00873739 0.017314 0.0305059 0.0480659 0.0687172 0.090965 0.113807 0.136804 0.159812 0.182786 0.205709 0.228573 0.25137 0.274098 0.296754 0.319335 0.341837 0.364258 0.386593 0.408837 0.430985 0.453029 0.474961 0.496773 0.518452 0.539986 0.561361 0.582557 0.603555 0.62433 0.644856 0.6651 0.685024 0.704588 0.723743 0.742433 0.760598 0.778168 0.795067 0.811216 0.826526 0.840911 0.854284 0.866564 0.877681 0.887584 0.896246 0.903666 0.909879 0.914949 0.918972 0.922066 0.924366 0.926009 0.927131 0.927853 0.928283 0.928506 0.928592 0.928591 0.928555 0.928496 0.92842 0.928334 0.928243 0.928149 0.928056 0.927965 0.927878 0.927794 0.927715 0.927639 0.927566 0.927497 0.92743 0.927365 0.927303 0.927241 0.927181 0.927122 0.927062 0.927003 0.926943 0.926881 0.926816 0.926745 0.926663 0.926564 0.926432 0.926244 0.925961 0.925513 0.924788 0.923605 0.921665 0.918499 0.913367 0.905147 0.892178 0.872127 0.841937 0.798002 0.736739 0.65569 0.555135 0.439806 0.319703 0.208609 0.119704 0.0598656 0.0265255 0.0108266 0.00422972 0.00161934 0.000614235 0.000231857 8.72324e-05 3.27267e-05 1.2243e-05 4.56624e-06 1.69745e-06 6.28751e-07 2.31988e-07 8.52362e-08 3.11753e-08 1.13472e-08 4.10858e-09 1.47977e-09 5.2928e-10 1.88378e-10 6.64549e-11 2.31506e-11 8.23715e-12 2.45797e-12 4.11412e-13 3.31072e-13 -2.00935e-13 1.56572e-13 -2.4658e-13 -2.84024e-13 1.69717e-13 3.31321e-13 -2.43232e-13 0 0 1.57873e-15 -2.45955e-15 -1.92852e-14 -1.30666e-14 -7.43208e-15 -6.3616e-14 -4.22015e-14 -6.38023e-14 -6.11217e-14 -3.48663e-14 -4.31999e-14 -5.73079e-14 -5.64763e-14 -7.61432e-14 1.77565e-14 -2.95608e-14 1.93608e-14 -3.38503e-14 3.85108e-14 -2.63817e-14 7.2806e-14 -1.08904e-13 -2.767e-14 -5.2205e-14 -6.7417e-14 -6.63525e-14 -7.48816e-15 2.38516e-14 -7.12163e-14 -7.50464e-14 1.48178e-14 -7.78101e-14 -8.18716e-14 6.13918e-14 -3.40212e-14 -1.14331e-13 -1.71326e-14 7.86094e-15 -1.85924e-14 5.17912e-13 1.85186e-12 1.12816e-11 6.82557e-11 3.92339e-10 2.1403e-09 1.10624e-08 5.40786e-08 2.49367e-07 1.08156e-06 4.3978e-06 1.67015e-05 5.89783e-05 0.000192648 0.000578442 0.00158477 0.00392868 0.00873739 0.017314 0.0305059 0.0480659 0.0687172 0.090965 0.113807 0.136804 0.159812 0.182786 0.205709 0.228573 0.25137 0.274098 0.296754 0.319335 0.341837 0.364258 0.386593 0.408837 0.430985 0.453029 0.474961 0.496773 0.518452 0.539986 0.561361 0.582557 0.603555 0.62433 0.644856 0.6651 0.685024 0.704588 0.723743 0.742433 0.760598 0.778168 0.795067 0.811216 0.826526 0.840911 0.854284 0.866564 0.877681 0.887584 0.896246 0.903666 0.909879 0.914949 0.918972 0.922066 0.924366 0.926009 0.927131 0.927853 0.928283 0.928506 0.928592 0.928591 0.928555 0.928496 0.92842 0.928334 0.928243 0.928149 0.928056 0.927965 0.927878 0.927794 0.927715 0.927639 0.927566 0.927497 0.92743 0.927365 0.927303 0.927241 0.927181 0.927122 0.927062 0.927003 0.926943 0.926881 0.926816 0.926745 0.926663 0.926564 0.926432 0.926244 0.925961 0.925513 0.924788 0.923605 0.921665 0.918499 0.913367 0.905147 0.892178 0.872127 0.841937 0.798002 0.736739 0.65569 0.555135 0.439806 0.319703 0.208609 0.119704 0.0598656 0.0265255 0.0108266 0.00422972 0.00161934 0.000614235 0.000231857 8.72324e-05 3.27267e-05 1.2243e-05 4.56624e-06 1.69745e-06 6.28751e-07 2.31988e-07 8.52358e-08 3.11754e-08 1.13473e-08 4.10869e-09 1.47969e-09 5.29699e-10 1.88259e-10 6.64889e-11 2.36802e-11 7.61398e-12 3.06793e-12 2.21017e-13 -5.74374e-14 1.59721e-13 2.00209e-13 -2.70855e-13 -8.40353e-16 6.62578e-14 -1.11747e-13 4.68143e-13 0 0 -2.48985e-15 -4.69945e-15 -3.96308e-15 -2.44444e-14 -4.13462e-14 -1.87765e-14 -2.14829e-14 -6.53363e-14 -3.38381e-14 -8.81542e-14 -4.0353e-14 -5.56426e-14 -7.27729e-14 -2.95082e-14 -4.35173e-14 2.38627e-14 -1.2074e-13 8.82007e-14 2.7297e-14 2.38402e-15 -8.88466e-14 -1.22693e-13 3.44183e-14 -7.74621e-15 1.40533e-14 -1.33512e-13 -3.07635e-14 -4.88001e-14 -1.3583e-13 -2.20535e-14 -1.96191e-14 -1.33822e-14 -6.27075e-14 1.15158e-13 -1.52946e-14 -4.29063e-14 -2.49798e-14 1.44334e-13 1.05493e-13 2.17357e-13 1.74865e-12 1.12442e-11 6.82761e-11 3.92498e-10 2.14004e-09 1.10626e-08 5.40786e-08 2.49367e-07 1.08156e-06 4.3978e-06 1.67015e-05 5.89783e-05 0.000192648 0.000578442 0.00158477 0.00392868 0.00873739 0.017314 0.0305059 0.0480659 0.0687172 0.090965 0.113807 0.136804 0.159812 0.182786 0.205709 0.228573 0.25137 0.274098 0.296754 0.319335 0.341837 0.364258 0.386593 0.408837 0.430985 0.453029 0.474961 0.496773 0.518452 0.539986 0.561361 0.582557 0.603555 0.62433 0.644856 0.6651 0.685024 0.704588 0.723743 0.742433 0.760598 0.778168 0.795067 0.811216 0.826526 0.840911 0.854284 0.866564 0.877681 0.887584 0.896246 0.903666 0.909879 0.914949 0.918972 0.922066 0.924366 0.926009 0.927131 0.927853 0.928283 0.928506 0.928592 0.928591 0.928555 0.928496 0.92842 0.928334 0.928243 0.928149 0.928056 0.927965 0.927878 0.927794 0.927715 0.927639 0.927566 0.927497 0.92743 0.927365 0.927303 0.927241 0.927181 0.927122 0.927062 0.927003 0.926943 0.926881 0.926816 0.926745 0.926663 0.926564 0.926432 0.926244 0.925961 0.925513 0.924788 0.923605 0.921665 0.918499 0.913367 0.905147 0.892178 0.872127 0.841937 0.798002 0.736739 0.65569 0.555135 0.439806 0.319703 0.208609 0.119704 0.0598656 0.0265255 0.0108266 0.00422972 0.00161934 0.000614235 0.000231857 8.72324e-05 3.27267e-05 1.2243e-05 4.56624e-06 1.69745e-06 6.28751e-07 2.31989e-07 8.52361e-08 3.11753e-08 1.13472e-08 4.109e-09 1.47937e-09 5.30114e-10 1.88612e-10 6.64409e-11 2.33272e-11 7.65054e-12 2.41511e-12 9.18143e-13 3.06737e-13 1.96967e-13 -2.47665e-13 -1.53789e-13 3.46625e-13 -5.09878e-13 -2.70818e-13 4.91104e-13 0 0 -8.62105e-15 3.65884e-15 -1.57704e-14 -1.9489e-14 -3.30676e-14 -2.51459e-14 -7.45525e-14 4.31868e-14 -6.86027e-14 -3.36566e-14 -8.77596e-14 -4.59534e-14 -7.25663e-14 -8.11895e-14 -4.48535e-14 -1.48406e-14 8.24041e-14 4.54235e-14 -1.45333e-13 -1.62013e-13 1.37644e-14 1.61845e-13 -3.27271e-14 -7.95093e-14 -7.74153e-14 5.30983e-14 -1.78822e-13 -2.84607e-13 1.1335e-13 -5.9087e-14 2.63155e-14 5.61437e-14 6.61647e-14 -8.01528e-14 7.30527e-14 1.58822e-13 1.6779e-13 -2.84894e-13 2.76341e-13 6.28585e-14 1.55365e-12 1.12408e-11 6.85504e-11 3.92373e-10 2.14013e-09 1.10624e-08 5.40787e-08 2.49367e-07 1.08156e-06 4.3978e-06 1.67015e-05 5.89783e-05 0.000192648 0.000578442 0.00158477 0.00392868 0.00873739 0.017314 0.0305059 0.0480659 0.0687172 0.090965 0.113807 0.136804 0.159812 0.182786 0.205709 0.228573 0.25137 0.274098 0.296754 0.319335 0.341837 0.364258 0.386593 0.408837 0.430985 0.453029 0.474961 0.496773 0.518452 0.539986 0.561361 0.582557 0.603555 0.62433 0.644856 0.6651 0.685024 0.704588 0.723743 0.742433 0.760598 0.778168 0.795067 0.811216 0.826526 0.840911 0.854284 0.866564 0.877681 0.887584 0.896246 0.903666 0.909879 0.914949 0.918972 0.922066 0.924366 0.926009 0.927131 0.927853 0.928283 0.928506 0.928592 0.928591 0.928555 0.928496 0.92842 0.928334 0.928243 0.928149 0.928056 0.927965 0.927878 0.927794 0.927715 0.927639 0.927566 0.927497 0.92743 0.927365 0.927303 0.927241 0.927181 0.927122 0.927062 0.927003 0.926943 0.926881 0.926816 0.926745 0.926663 0.926564 0.926432 0.926244 0.925961 0.925513 0.924788 0.923605 0.921665 0.918499 0.913367 0.905147 0.892178 0.872127 0.841937 0.798002 0.736739 0.65569 0.555135 0.439806 0.319703 0.208609 0.119704 0.0598656 0.0265255 0.0108266 0.00422972 0.00161934 0.000614235 0.000231857 8.72324e-05 3.27267e-05 1.2243e-05 4.56624e-06 1.69745e-06 6.28751e-07 2.31988e-07 8.5237e-08 3.11748e-08 1.13474e-08 4.10861e-09 1.48021e-09 5.29365e-10 1.88896e-10 6.65568e-11 2.29029e-11 7.77703e-12 2.06907e-12 5.5588e-13 1.00217e-12 3.31526e-13 1.82689e-13 -7.32506e-13 -9.07541e-13 1.62244e-13 2.39437e-13 -3.21007e-13 0
				</DataArray>
				<DataArray Name="VitesseY" type="Float32" format="ascii">