<?xml version="1.0"?>
<VTKFile type="PolyData">
	<PolyData>
		<Piece NumberOfPoints="1206" NumberOfPolys="1000">
			<Points>
				<DataArray type="Float32" NumberOfComponents="3" format="ascii">
 0 0 0 0.005 0 0 0.01 0 0 0.015 0 0 0.02 0 0 0.025 0 0 0.03 0 0 0.035 0 0 0.04 0 0 0.045 0 0 0.05 0 0 0.055 0 0 0.06 0 0 0.065 0 0 0.07 0 0 0.075 0 0 0.08 0 0 0.085 0 0 0.09 0 0 0.095 0 0 0.1 0 0 0.105 0 0 0.11 0 0 0.115 0 0 0.12 0 0 0.125 0 0 0.13 0 0 0.135 0 0 0.14 0 0 0.145 0 0 0.15 0 0 0.155 0 0 0.16 0 0 0.165 0 0 0.17 0 0 0.175 0 0 0.18 0 0 0.185 0 0 0.19 0 0 0.195 0 0 0.2 0 0 0.205 0 0 0.21 0 0 0.215 0 0 0.22 0 0 0.225 0 0 0.23 0 0 0.235 0 0 0.24 0 0 0.245 0 0 0.25 0 0 0.255 0 0 0.26 0 0 0.265 0 0 0.27 0 0 0.275 0 0 0.28 0 0 0.285 0 0 0.29 0 0 0.295 0 0 0.3 0 0 0.305 0 0 0.31 0 0 0.315 0 0 0.32 0 0 0.325 0 0 0.33 0 0 0.335 0 0 0.34 0 0 0.345 0 0 0.35 0 0 0.355 0 0 0.36 0 0 0.365 0 0 0.37 0 0 0.375 0 0 0.38 0 0 0.385 0 0 0.39 0 0 0.395 0 0 0.4 0 0 0.405 0 0 0.41 0 0 0.415 0 0 0.42 0 0 0.425 0 0 0.43 0 0 0.435 0 0 0.44 0 0 0.445 0 0 0.45 0 0 0.455 0 0 0.46 0 0 0.465 0 0 0.47 0 0 0.475 0 0 0.48 0 0 0.485 0 0 0.49 0 0 0.495 0 0 0.5 0 0 0.505 0 0 0.51 0 0 0.515 0 0 0.52 0 0 0.525 0 0 0.53 0 0 0.535 0 0 0.54 0 0 0.545 0 0 0.55 0 0 0.555 0 0 0.56 0 0 0.565 0 0 0.57 0 0 0.575 0 0 0.58 0 0 0.585 0 0 0.59 0 0 0.595 0 0 0.6 0 0 0.605 0 0 0.61 0 0 0.615 0 0 0.62 0 0 0.625 0 0 0.63 0 0 0.635 0 0 0.64 0 0 0.645 0 0 0.65 0 0 0.655 0 0 0.66 0 0 0.665 0 0 0.67 0 0 0.675 0 0 0.68 0 0 0.685 0 0 0.69 0 0 0.695 0 0 0.7 0 0 0.705 0 0 0.71 0 0 0.715 0 0 0.72 0 0 0.725 0 0 0.73 0 0 0.735 0 0 0.74 0 0 0.745 0 0 0.75 0 0 0.755 0 0 0.76 0 0 0.765 0 0 0.77 0 0 0.775 0 0 0.78 0 0 0.785 0 0 0.79 0 0 0.795 0 0 0.8 0 0 0.805 0 0 0.81 0 0 0.815 0 0 0.82 0 0 0.825 0 0 0.83 0 0 0.835 0 0 0.84 0 0 0.845 0 0 0.85 0 0 0.855 0 0 0.86 0 0 0.865 0 0 0.87 0 0 0.875 0 0 0.88 0 0 0.885 0 0 0.89 0 0 0.895 0 0 0.9 0 0 0.905 0 0 0.91 0 0 0.915 0 0 0.92 0 0 0.925 0 0 0.93 0 0 0.935 0 0 0.94 0 0 0.945 0 0 0.95 0 0 0.955 0 0 0.96 0 0 0.965 0 0 0.97 0 0 0.975 0 0 0.98 0 0 0.985 0 0 0.99 0 0 0.995 0 0 1 0 0 0 0.02 0 0.005 0.02 0 0.01 0.02 0 0.015 0.02 0 0.02 0.02 0 0.025 0.02 0 0.03 0.02 0 0.035 0.02 0 0.04 0.02 0 0.045 0.02 0 0.05 0.02 0 0.055 0.02 0 0.06 0.02 0 0.065 0.02 0 0.07 0.02 0 0.075 0.02 0 0.08 0.02 0 0.085 0.02 0 0.09 0.02 0 0.095 0.02 0 0.1 0.02 0 0.105 0.02 0 0.11 0.02 0 0.115 0.02 0 0.12 0.02 0 0.125 0.02 0 0.13 0.02 0 0.135 0.02 0 0.14 0.02 0 0.145 0.02 0 0.15 0.02 0 0.155 0.02 0 0.16 0.02 0 0.165 0.02 0 0.17 0.02 0 0.175 0.02 0 0.18 0.02 0 0.185 0.02 0 0.19 0.02 0 0.195 0.02 0 0.2 0.02 0 0.205 0.02 0 0.21 0.02 0 0.215 0.02 0 0.22 0.02 0 0.225 0.02 0 0.23 0.02 0 0.235 0.02 0 0.24 0.02 0 0.245 0.02 0 0.25 0.02 0 0.255 0.02 0 0.26 0.02 0 0.265 0.02 0 0.27 0.02 0 0.275 0.02 0 0.28 0.02 0 0.285 0.02 0 0.29 0.02 0 0.295 0.02 0 0.3 0.02 0 0.305 0.02 0 0.31 0.02 0 0.315 0.02 0 0.32 0.02 0 0.325 0.02 0 0.33 0.02 0 0.335 0.02 0 0.34 0.02 0 0.345 0.02 0 0.35 0.02 0 0.355 0.02 0 0.36 0.02 0 0.365 0.02 0 0.37 0.02 0 0.375 0.02 0 0.38 0.02 0 0.385 0.02 0 0.39 0.02 0 0.395 0.02 0 0.4 0.02 0 0.405 0.02 0 0.41 0.02 0 0.415 0.02 0 0.42 0.02 0 0.425 0.02 0 0.43 0.02 0 0.435 0.02 0 0.44 0.02 0 0.445 0.02 0 0.45 0.02 0 0.455 0.02 0 0.46 0.02 0 0.465 0.02 0 0.47 0.02 0 0.475 0.02 0 0.48 0.02 0 0.485 0.02 0 0.49 0.02 0 0.495 0.02 0 0.5 0.02 0 0.505 0.02 0 0.51 0.02 0 0.515 0.02 0 0.52 0.02 0 0.525 0.02 0 0.53 0.02 0 0.535 0.02 0 0.54 0.02 0 0.545 0.02 0 0.55 0.02 0 0.555 0.02 0 0.56 0.02 0 0.565 0.02 0 0.57 0.02 0 0.575 0.02 0 0.58 0.02 0 0.585 0.02 0 0.59 0.02 0 0.595 0.02 0 0.6 0.02 0 0.605 0.02 0 0.61 0.02 0 0.615 0.02 0 0.62 0.02 0 0.625 0.02 0 0.63 0.02 0 0.635 0.02 0 0.64 0.02 0 0.645 0.02 0 0.65 0.02 0 0.655 0.02 0 0.66 0.02 0 0.665 0.02 0 0.67 0.02 0 0.675 0.02 0 0.68 0.02 0 0.685 0.02 0 0.69 0.02 0 0.695 0.02 0 0.7 0.02 0 0.705 0.02 0 0.71 0.02 0 0.715 0.02 0 0.72 0.02 0 0.725 0.02 0 0.73 0.02 0 0.735 0.02 0 0.74 0.02 0 0.745 0.02 0 0.75 0.02 0 0.755 0.02 0 0.76 0.02 0 0.765 0.02 0 0.77 0.02 0 0.775 0.02 0 0.78 0.02 0 0.785 0.02 0 0.79 0.02 0 0.795 0.02 0 0.8 0.02 0 0.805 0.02 0 0.81 0.02 0 0.815 0.02 0 0.82 0.02 0 0.825 0.02 0 0.83 0.02 0 0.835 0.02 0 0.84 0.02 0 0.845 0.02 0 0.85 0.02 0 0.855 0.02 0 0.86 0.02 0 0.865 0.02 0 0.87 0.02 0 0.875 0.02 0 0.88 0.02 0 0.885 0.02 0 0.89 0.02 0 0.895 0.02 0 0.9 0.02 0 0.905 0.02 0 0.91 0.02 0 0.915 0.02 0 0.92 0.02 0 0.925 0.02 0 0.93 0.02 0 0.935 0.02 0 0.94 0.02 0 0.945 0.02 0 0.95 0.02 0 0.955 0.02 0 0.96 0.02 0 0.965 0.02 0 0.97 0.02 0 0.975 0.02 0 0.98 0.02 0 0.985 0.02 0 0.99 0.02 0 0.995 0.02 0 1 0.02 0 0 0.04 0 0.005 0.04 0 0.01 0.04 0 0.015 0.04 0 0.02 0.04 0 0.025 0.04 0 0.03 0.04 0 0.035 0.04 0 0.04 0.04 0 0.045 0.04 0 0.05 0.04 0 0.055 0.04 0 0.06 0.04 0 0.065 0.04 0 0.07 0.04 0 0.075 0.04 0 0.08 0.04 0 0.085 0.04 0 0.09 0.04 0 0.095 0.04 0 0.1 0.04 0 0.105 0.04 0 0.11 0.04 0 0.115 0.04 0 0.12 0.04 0 0.125 0.04 0 0.13 0.04 0 0.135 0.04 0 0.14 0.04 0 0.145 0.04 0 0.15 0.04 0 0.155 0.04 0 0.16 0.04 0 0.165 0.04 0 0.17 0.04 0 0.175 0.04 0 0.18 0.04 0 0.185 0.04 0 0.19 0.04 0 0.195 0.04 0 0.2 0.04 0 0.205 0.04 0 0.21 0.04 0 0.215 0.04 0 0.22 0.04 0 0.225 0.04 0 0.23 0.04 0 0.235 0.04 0 0.24 0.04 0 0.245 0.04 0 0.25 0.04 0 0.255 0.04 0 0.26 0.04 0 0.265 0.04 0 0.27 0.04 0 0.275 0.04 0 0.28 0.04 0 0.285 0.04 0 0.29 0.04 0 0.295 0.04 0 0.3 0.04 0 0.305 0.04 0 0.31 0.04 0 0.315 0.04 0 0.32 0.04 0 0.325 0.04 0 0.33 0.04 0 0.335 0.04 0 0.34 0.04 0 0.345 0.04 0 0.35 0.04 0 0.355 0.04 0 0.36 0.04 0 0.365 0.04 0 0.37 0.04 0 0.375 0.04 0 0.38 0.04 0 0.385 0.04 0 0.39 0.04 0 0.395 0.04 0 0.4 0.04 0 0.405 0.04 0 0.41 0.04 0 0.415 0.04 0 0.42 0.04 0 0.425 0.04 0 0.43 0.04 0 0.435 0.04 0 0.44 0.04 0 0.445 0.04 0 0.45 0.04 0 0.455 0.04 0 0.46 0.04 0 0.465 0.04 0 0.47 0.04 0 0.475 0.04 0 0.48 0.04 0 0.485 0.04 0 0.49 0.04 0 0.495 0.04 0 0.5 0.04 0 0.505 0.04 0 0.51 0.04 0 0.515 0.04 0 0.52 0.04 0 0.525 0.04 0 0.53 0.04 0 0.535 0.04 0 0.54 0.04 0 0.545 0.04 0 0.55 0.04 0 0.555 0.04 0 0.56 0.04 0 0.565 0.04 0 0.57 0.04 0 0.575 0.04 0 0.58 0.04 0 0.585 0.04 0 0.59 0.04 0 0.595 0.04 0 0.6 0.04 0 0.605 0.04 0 0.61 0.04 0 0.615 0.04 0 0.62 0.04 0 0.625 0.04 0 0.63 0.04 0 0.635 0.04 0 0.64 0.04 0 0.645 0.04 0 0.65 0.04 0 0.655 0.04 0 0.66 0.04 0 0.665 0.04 0 0.67 0.04 0 0.675 0.04 0 0.68 0.04 0 0.685 0.04 0 0.69 0.04 0 0.695 0.04 0 0.7 0.04 0 0.705 0.04 0 0.71 0.04 0 0.715 0.04 0 0.72 0.04 0 0.725 0.04 0 0.73 0.04 0 0.735 0.04 0 0.74 0.04 0 0.745 0.04 0 0.75 0.04 0 0.755 0.04 0 0.76 0.04 0 0.765 0.04 0 0.77 0.04 0 0.775 0.04 0 0.78 0.04 0 0.785 0.04 0 0.79 0.04 0 0.795 0.04 0 0.8 0.04 0 0.805 0.04 0 0.81 0.04 0 0.815 0.04 0 0.82 0.04 0 0.825 0.04 0 0.83 0.04 0 0.835 0.04 0 0.84 0.04 0 0.845 0.04 0 0.85 0.04 0 0.855 0.04 0 0.86 0.04 0 0.865 0.04 0 0.87 0.04 0 0.875 0.04 0 0.88 0.04 0 0.885 0.04 0 0.89 0.04 0 0.895 0.04 0 0.9 0.04 0 0.905 0.04 0 0.91 0.04 0 0.915 0.04 0 0.92 0.04 0 0.925 0.04 0 0.93 0.04 0 0.935 0.04 0 0.94 0.04 0 0.945 0.04 0 0.95 0.04 0 0.955 0.04 0 0.96 0.04 0 0.965 0.04 0 0.97 0.04 0 0.975 0.04 0 0.98 0.04 0 0.985 0.04 0 0.99 0.04 0 0.995 0.04 0 1 0.04 0 0 0.06 0 0.005 0.06 0 0.01 0.06 0 0.015 0.06 0 0.02 0.06 0 0.025 0.06 0 0.03 0.06 0 0.035 0.06 0 0.04 0.06 0 0.045 0.06 0 0.05 0.06 0 0.055 0.06 0 0.06 0.06 0 0.065 0.06 0 0.07 0.06 0 0.075 0.06 0 0.08 0.06 0 0.085 0.06 0 0.09 0.06 0 0.095 0.06 0 0.1 0.06 0 0.105 0.06 0 0.11 0.06 0 0.115 0.06 0 0.12 0.06 0 0.125 0.06 0 0.13 0.06 0 0.135 0.06 0 0.14 0.06 0 0.145 0.06 0 0.15 0.06 0 0.155 0.06 0 0.16 0.06 0 0.165 0.06 0 0.17 0.06 0 0.175 0.06 0 0.18 0.06 0 0.185 0.06 0 0.19 0.06 0 0.195 0.06 0 0.2 0.06 0 0.205 0.06 0 0.21 0.06 0 0.215 0.06 0 0.22 0.06 0 0.225 0.06 0 0.23 0.06 0 0.235 0.06 0 0.24 0.06 0 0.245 0.06 0 0.25 0.06 0 0.255 0.06 0 0.26 0.06 0 0.265 0.06 0 0.27 0.06 0 0.275 0.06 0 0.28 0.06 0 0.285 0.06 0 0.29 0.06 0 0.295 0.06 0 0.3 0.06 0 0.305 0.06 0 0.31 0.06 0 0.315 0.06 0 0.32 0.06 0 0.325 0.06 0 0.33 0.06 0 0.335 0.06 0 0.34 0.06 0 0.345 0.06 0 0.35 0.06 0 0.355 0.06 0 0.36 0.06 0 0.365 0.06 0 0.37 0.06 0 0.375 0.06 0 0.38 0.06 0 0.385 0.06 0 0.39 0.06 0 0.395 0.06 0 0.4 0.06 0 0.405 0.06 0 0.41 0.06 0 0.415 0.06 0 0.42 0.06 0 0.425 0.06 0 0.43 0.06 0 0.435 0.06 0 0.44 0.06 0 0.445 0.06 0 0.45 0.06 0 0.455 0.06 0 0.46 0.06 0 0.465 0.06 0 0.47 0.06 0 0.475 0.06 0 0.48 0.06 0 0.485 0.06 0 0.49 0.06 0 0.495 0.06 0 0.5 0.06 0 0.505 0.06 0 0.51 0.06 0 0.515 0.06 0 0.52 0.06 0 0.525 0.06 0 0.53 0.06 0 0.535 0.06 0 0.54 0.06 0 0.545 0.06 0 0.55 0.06 0 0.555 0.06 0 0.56 0.06 0 0.565 0.06 0 0.57 0.06 0 0.575 0.06 0 0.58 0.06 0 0.585 0.06 0 0.59 0.06 0 0.595 0.06 0 0.6 0.06 0 0.605 0.06 0 0.61 0.06 0 0.615 0.06 0 0.62 0.06 0 0.625 0.06 0 0.63 0.06 0 0.635 0.06 0 0.64 0.06 0 0.645 0.06 0 0.65 0.06 0 0.655 0.06 0 0.66 0.06 0 0.665 0.06 0 0.67 0.06 0 0.675 0.06 0 0.68 0.06 0 0.685 0.06 0 0.69 0.06 0 0.695 0.06 0 0.7 0.06 0 0.705 0.06 0 0.71 0.06 0 0.715 0.06 0 0.72 0.06 0 0.725 0.06 0 0.73 0.06 0 0.735 0.06 0 0.74 0.06 0 0.745 0.06 0 0.75 0.06 0 0.755 0.06 0 0.76 0.06 0 0.765 0.06 0 0.77 0.06 0 0.775 0.06 0 0.78 0.06 0 0.785 0.06 0 0.79 0.06 0 0.795 0.06 0 0.8 0.06 0 0.805 0.06 0 0.81 0.06 0 0.815 0.06 0 0.82 0.06 0 0.825 0.06 0 0.83 0.06 0 0.835 0.06 0 0.84 0.06 0 0.845 0.06 0 0.85 0.06 0 0.855 0.06 0 0.86 0.06 0 0.865 0.06 0 0.87 0.06 0 0.875 0.06 0 0.88 0.06 0 0.885 0.06 0 0.89 0.06 0 0.895 0.06 0 0.9 0.06 0 0.905 0.06 0 0.91 0.06 0 0.915 0.06 0 0.92 0.06 0 0.925 0.06 0 0.93 0.06 0 0.935 0.06 0 0.94 0.06 0 0.945 0.06 0 0.95 0.06 0 0.955 0.06 0 0.96 0.06 0 0.965 0.06 0 0.97 0.06 0 0.975 0.06 0 0.98 0.06 0 0.985 0.06 0 0.99 0.06 0 0.995 0.06 0 1 0.06 0 0 0.08 0 0.005 0.08 0 0.01 0.08 0 0.015 0.08 0 0.02 0.08 0 0.025 0.08 0 0.03 0.08 0 0.035 0.08 0 0.04 0.08 0 0.045 0.08 0 0.05 0.08 0 0.055 0.08 0 0.06 0.08 0 0.065 0.08 0 0.07 0.08 0 0.075 0.08 0 0.08 0.08 0 0.085 0.08 0 0.09 0.08 0 0.095 0.08 0 0.1 0.08 0 0.105 0.08 0 0.11 0.08 0 0.115 0.08 0 0.12 0.08 0 0.125 0.08 0 0.13 0.08 0 0.135 0.08 0 0.14 0.08 0 0.145 0.08 0 0.15 0.08 0 0.155 0.08 0 0.16 0.08 0 0.165 0.08 0
[...]
			<PointData Scalars="VitesseX">
				<DataArray Name="VitesseX" type="Float32" format="ascii">
 0 -1.34814e-14 7.99776e-14 -1.98155e-13 1.12753e-13 3.3575e-14 -7.63176e-14 -9.17156e-14 7.32152e-14 -6.93505e-14 -1.55704e-13 3.2455e-13 -6.08488e-13 5.98522e-13 -3.87656e-13 -2.97452e-14 2.87483e-13 -4.02074e-13 3.76442e-13 -3.29638e-13 3.48811e-14 7.73666e-14 2.05558e-13 2.05387e-14 -4.45961e-13 -1.55981e-13 2.3282e-13 -3.28927e-13 9.64236e-14 -2.95743e-13 5.39004e-13 -4.06816e-13 4.18177e-13 -4.68613e-14 -5.48152e-13 4.87258e-13 -6.4126e-13 8.60175e-13 -8.57474e-13 5.35501e-13 -4.12894e-13 4.0953e-13 1.59858e-14 -6.04876e-13 -1.50419e-13 9.04612e-13 -1.28482e-12 1.41499e-12 -7.93266e-13 2.01104e-13 -6.54401e-15 -7.44216e-14 1.63129e-12 -2.46311e-12 6.67443e-13 -2.94012e-13 -1.26164e-12 2.13835e-12 -2.44563e-12 1.14872e-12 7.91e-13 5.9611e-13 5.06376e-14 -9.32565e-13 7.76603e-13 1.17198e-13 -1.691e-13 -4.07254e-13 -1.90433e-12 1.10245e-12 1.18188e-12 -2.4127e-12 1.54211e-12 -8.37524e-13 2.59542e-12 -1.03019e-12 -5.42364e-13 9.17814e-13 -1.4042e-12 1.96047e-12 -2.50033e-12 5.49296e-13 1.14338e-12 -2.18874e-12 4.26447e-13 1.88163e-12 -8.72994e-13 -2.12104e-13 7.06279e-13 -1.37719e-12 2.8228e-12 4.88672e-11 3.30842e-09 1.69121e-07 6.48474e-06 0.000178119 0.00327434 0.0361847 0.204019 0.508077 0.684695 0.828067 0.827629 0.712486 0.514391 0.298702 0.127507 0.0350354 0.00639478 0.000937754 0.000121972 1.43937e-05 1.55112e-06 1.53256e-07 1.39304e-08 1.16824e-09 8.93257e-11 5.89831e-12 3.03125e-12 -1.69786e-12 2.81448e-12 -1.59888e-12 -4.90103e-13 2.2182e-12 -2.62207e-12 2.42143e-12 -1.46324e-12 -7.44449e-13 2.25993e-12 -2.57853e-12 2.48443e-12 -1.31644e-12 -6.23859e-13 2.09828e-12 -2.44345e-12 2.08455e-12 -1.51181e-12 -1.07469e-12 7.65254e-13 -2.34376e-12 1.91627e-12 1.60761e-14 -2.72636e-12 3.54674e-12 1.00115e-12 -1.83646e-12 2.79264e-12 -3.74697e-12 2.83219e-12 2.18388e-13 -1.9598e-12 2.49541e-12 -3.423e-12 3.39199e-12 -2.59956e-12 2.34388e-12 -2.13911e-12 -2.253e-13 1.3565e-12 -5.21255e-13 1.29689e-12 -1.71136e-12 1.03535e-13 8.77766e-13 -1.34321e-12 -1.12344e-13 -4.99447e-13 1.4373e-13 2.29157e-12 -2.36035e-12 1.87388e-12 2.03894e-13 -2.10268e-12 3.00886e-12 -2.81254e-12 2.14374e-12 -4.3865e-13 -1.69018e-12 2.63148e-12 -2.44043e-12 1.40264e-12 5.73358e-13 -2.35134e-12 2.92496e-12 -2.659e-12 1.86922e-12 5.37201e-14 -2.71433e-12 1.74777e-12 -4.19719e-12 1.21857e-12 3.7953e-12 -7.61669e-12 5.05572e-12 3.99858e-13 1.06125e-12 1.96e-12 -4.63334e-12 4.25266e-12 -1.32268e-12 0 0 -4.04071e-15 -5.52526e-14 5.74512e-14 -1.13717e-13 3.94015e-15 3.53557e-14 2.53942e-14 -1.23192e-13 -1.35296e-13 1.35917e-13 -1.39605e-13 1.72844e-13 -4.24507e-13 3.27707e-13 -1.34282e-13 -3.03283e-13 4.07697e-13 -3.77224e-13 2.51084e-13 9.20204e-14 -8.98832e-14 -1.27329e-13 7.736e-14 2.04404e-13 -1.07003e-13 -5.72586e-13 -5.46582e-14 2.85571e-13 4.43714e-14 -2.37222e-13 4.24943e-13 -3.77872e-13 -1.22437e-13 3.78512e-13 -1.25144e-13 3.20844e-15 -7.7353e-13 7.72713e-13 -3.35385e-13 3.07161e-13 -3.57653e-14 -4.42824e-13 2.22105e-13 1.71389e-13 -5.81906e-13 5.19678e-13 -5.61878e-13 6.47069e-13 -1.67806e-14 9.00222e-14 1.34327e-13 -8.73282e-13 8.81241e-13 -1.20547e-12 -5.38671e-13 7.97128e-13 -3.88596e-13 4.19258e-13 -6.90643e-13 4.83993e-13 5.99107e-13 1.73219e-13 2.68069e-13 -4.95077e-13 -6.42027e-15 1.33087e-13 -7.43961e-13 -1.6265e-14 -4.60923e-13 -1.23553e-13 6.1763e-13 -7.3101e-13 1.36675e-12 -7.39866e-13 8.39268e-13 8.49074e-14 -6.31695e-13 6.5295e-13 -1.4383e-12 1.17446e-12 -9.47766e-13 -9.6507e-13 1.4976e-12 -1.19056e-13 -1.24698e-12 1.01919e-12 6.94327e-13 -3.19994e-13 7.04427e-13 -7.99055e-13 5.12248e-11 3.30853e-09 1.69121e-07 6.48474e-06 0.000178119 0.00327434 0.0361847 0.204019 0.508077 0.684695 0.828067 0.827629 0.712486 0.514391 0.298702 0.127507 0.0350354 0.00639478 0.000937754 0.000121972 1.43937e-05 1.55112e-06 1.53256e-07 1.39281e-08 1.16867e-09 9.08507e-11 7.11567e-12 -5.75946e-13 1.81424e-12 -1.39311e-12 1.62566e-12 2.51533e-13 -1.53008e-12 1.32093e-12 -1.52216e-12 1.3929e-12 5.76602e-13 -1.82777e-12 1.40837e-12 -1.46162e-12 1.42142e-12 3.29808e-13 -1.51932e-12 1.2431e-12 -1.47185e-12 1.16615e-12 -2.53812e-13 -2.34434e-12 3.76095e-13 1.18321e-13 -1.07728e-12 2.84092e-12 -1.09947e-12 -2.66176e-13 1.60521e-12 -1.27596e-12 2.66236e-12 -1.89052e-12 -6.02596e-13 1.27331e-12 -1.12927e-12 2.5667e-12 -2.60252e-12 1.08343e-12 -1.41942e-12 1.32339e-12 7.47492e-14 -1.1725e-12 1.24488e-13 -1.0403e-15 2.20821e-12 -7.22811e-13 -1.93931e-12 -6.23308e-13 -1.44262e-13 2.00256e-12 -4.2255e-13 -1.0133e-12 2.17974e-12 -1.66705e-12 -3.39701e-13 1.89754e-12 -1.62077e-12 2.09622e-12 -2.00049e-12 -6.05994e-14 1.55026e-12 -1.26681e-12 1.70544e-12 -1.74149e-12 -7.66146e-13 2.02899e-12 -1.56722e-12 2.00947e-12 -1.92522e-12 -3.34437e-13 1.38379e-12 -2.62615e-12 1.00153e-12 -2.51743e-12 5.73608e-13 3.3035e-12 -3.28345e-12 4.41783e-13 6.11256e-13 5.20615e-13 4.33262e-12 -3.82499e-12 -4.00248e-13 0 0 1.70709e-14 3.03678e-15 1.10786e-14 -2.63726e-14 -1.01083e-13 -1.10322e-13 1.01951e-13 -8.81459e-14 -4.05748e-14 -3.98773e-14 -2.22519e-14 -6.96947e-14 -1.26258e-13 1.13087e-14 -1.79324e-13 1.57999e-14 2.03148e-13 -1.17787e-13 -4.3907e-14 5.69395e-14 -5.79242e-14 2.15921e-13 -6.81125e-14 -1.82316e-13 -1.08229e-13 9.90366e-15 3.48431e-14 4.17842e-14 -2.9726e-13 2.57931e-14 1.58141e-13 6.92335e-14 -1.33718e-13 -2.84349e-13 3.86569e-14 6.89957e-14 9.9621e-14 -1.28937e-13 -1.6071e-13 4.43688e-14 1.84775e-13 -1.97446e-13 -2.45499e-13 1.05863e-13 1.43889e-13 2.01148e-13 -2.31723e-13 -2.17697e-13 -2.69376e-13 -1.60912e-13 4.51343e-13 2.72682e-13 -2.12728e-13 -1.40431e-12 -3.86441e-13 8.62701e-13 2.18825e-13 -1.0421e-13 -5.56815e-13 5.84258e-13 5.54451e-13 -1.27181e-13 2.47837e-13 -1.57597e-13 1.65066e-13 -4.64458e-16 -6.5647e-13 -2.7604e-13 -1.50205e-13 5.07764e-14 -2.77454e-13 -8.3904e-13 1.06422e-12 5.97508e-13 -2.59711e-13 -3.50914e-13 -3.5427e-13 7.48038e-13 -2.63566e-13 -7.88798e-13 3.81167e-13 -1.82243e-13 2.01688e-13 -1.20626e-12 1.25057e-12 5.75244e-13 -4.21035e-13 3.24158e-13 2.71853e-13 1.51723e-12 5.02117e-11 3.30688e-09 1.69122e-07 6.48474e-06 0.000178119 0.00327434 0.0361847 0.204019 0.508077 0.684695 0.828067 0.827629 0.712486 0.514391 0.298702 0.127507 0.0350354 0.00639478 0.000937754 0.000121972 1.43937e-05 1.55112e-06 1.53256e-07 1.39299e-08 1.16756e-09 8.97919e-11 7.2546e-12 6.57425e-13 -3.62699e-14 4.57182e-13 -1.05729e-12 1.59955e-12 -1.62598e-13 -5.10287e-13 7.97901e-14 -1.13518e-12 1.4756e-12 -8.8586e-14 -3.56082e-13 2.15138e-13 -1.26214e-12 1.57055e-12 -8.58121e-14 -3.38269e-13 1.63413e-13 -1.09654e-12 9.69563e-13 -6.07932e-13 -1.52889e-12 7.55516e-13 -9.77576e-14 1.12694e-13 3.59114e-13 6.63445e-13 -7.58481e-13 4.70047e-13 5.79103e-13 -4.02694e-13 6.11395e-13 -1.23195e-12 6.75642e-13 8.22143e-13 -6.60804e-13 -2.50119e-13 5.52719e-13 -1.19372e-12 1.42106e-12 4.82495e-14 5.731e-13 -4.13695e-13 -2.0403e-12 8.17624e-13 5.43469e-13 -5.21426e-14 -7.54412e-13 -1.08296e-12 5.69733e-13 1.15954e-13 2.3842e-13 6.95453e-13 1.23905e-13 4.2637e-14 -5.64996e-13 -3.27304e-13 1.22344e-12 -2.6927e-13 2.84805e-13 -8.41246e-13 -9.47095e-14 6.4908e-13 2.35853e-14 -1.53971e-13 -5.35268e-13 -2.75984e-13 1.24253e-12 -2.0154e-13 -4.99633e-13 -1.69785e-12 -1.25139e-12 1.04316e-12 3.93606e-13 -1.41363e-12 -7.74555e-13 1.88448e-12 9.61955e-13 -3.36983e-13 -1.75535e-13 -3.75058e-15 9.56874e-13 0 0 -9.5693e-15 5.76364e-14 -8.61503e-14 -1.1423e-14 -5.13488e-14 -5.13012e-14 3.4821e-14 -1.36091e-13 -1.51566e-13 -1.64556e-13 1.84318e-13 -2.5167e-13 2.05399e-13 -3.28351e-13 -1.00474e-13 3.24116e-13 -2.7745e-13 1.48477e-13 -8.22512e-14 7.78658e-14 -1.56315e-13 6.87048e-14 3.3421e-14 -1.37158e-13 -1.48421e-13 -5.67301e-14 -4.19203e-14 9.65452e-14 -1.78708e-13 1.47681e-13 -3.67265e-14 9.28499e-14 -1.33054e-13 -2.86658e-13 4.03499e-15 -3.78941e-13 6.48969e-13 -6.52093e-13 2.19546e-13 1.44965e-13 2.764e-13 -6.83159e-14 -3.85416e-13 -2.91983e-13 2.76e-13 -8.53331e-13 9.36897e-13 -5.56579e-13 1.24785e-15 -3.13138e-13 -3.96135e-13 1.30893e-12 -1.06042e-12 -7.54995e-13 -3.70411e-13 6.27597e-13 9.51773e-13 -8.26504e-13 -3.28459e-13 5.17724e-13 6.00534e-13 3.11712e-13 5.57655e-13 -3.43968e-13 -2.86121e-13 -2.01047e-13 -2.75707e-13 -5.24891e-13 -9.32943e-13 1.0005e-12 -9.00313e-13 -3.18369e-13 4.29421e-13 9.71035e-13 -1.21958e-12 6.93988e-13 -1.35476e-13 2.51137e-13 6.49395e-13 -2.95206e-12 -1.5403e-13 1.58599e-12 -6.28667e-13 -3.04671e-13 1.48197e-12 -5.64772e-13 -3.14708e-14 1.13844e-12 -7.9386e-13 2.76395e-12 4.86217e-11 3.30828e-09 1.69122e-07 6.48474e-06 0.000178119 0.00327434 0.0361847 0.204019 0.508077 0.684695 0.828067 0.827629 0.712486 0.514391 0.298702 0.127507 0.0350354 0.00639478 0.000937754 0.000121972 1.43937e-05 1.55112e-06 1.53255e-07 1.39302e-08 1.16754e-09 8.97157e-11 7.122e-12 7.43546e-13 -1.04106e-12 1.81025e-12 -1.71196e-12 1.1861e-12 1.82569e-13 -1.33586e-12 1.7287e-12 -1.84742e-12 1.01738e-12 4.25926e-13 -1.39096e-12 1.83273e-12 -1.67871e-12 1.32706e-12 2.77561e-13 -1.4961e-12 1.55216e-12 -1.81463e-12 7.49236e-13 -2.79214e-13 -1.51121e-12 1.56183e-14 1.99844e-13 -1.12939e-13 2.53856e-13 -1.97275e-14 -1.2022e-12 2.35396e-12 -2.8228e-13 -5.30913e-13 -7.20781e-13 -8.1669e-13 2.59779e-12 -2.21008e-13 3.63855e-13 -1.61632e-12 2.39672e-12 -1.92016e-12 1.00104e-12 -6.00483e-13 -8.03141e-13 1.81543e-12 -1.27602e-12 9.12169e-13 -1.66325e-12 -8.2451e-13 7.9186e-13 -1.17169e-12 1.2153e-12 8.85278e-13 -3.71116e-13 6.11192e-13 -1.26541e-12 -5.64952e-13 2.29105e-12 -9.97977e-13 6.21876e-13 -1.29589e-12 -3.22134e-13 1.92854e-12 -8.31382e-13 9.76993e-14 -1.18608e-12 -7.39629e-13 2.57337e-12 -1.28031e-12 4.96029e-13 -1.18931e-12 -6.52946e-13 6.33053e-13 -2.97807e-12 -8.24269e-13 1.93334e-12 -7.43622e-13 3.64277e-13 -8.28137e-13 1.49157e-13 1.76102e-12 6.17697e-13 -2.24539e-13 -2.21953e-12 0 0 -1.96248e-14 -2.56056e-14 2.19518e-14 -1.63949e-13 -3.81371e-14 9.33141e-15 -7.60586e-14 -1.37738e-13 -1.84995e-13 5.08138e-14 -2.56727e-13 1.84325e-13 -2.90974e-13 1.1243e-13 -1.03936e-13 8.05237e-14 3.00323e-13 -2.88104e-13 1.17449e-13 -2.70232e-14 -2.06994e-13 -4.47335e-13 1.76057e-13 1.50105e-13 -1.66075e-13 -4.94151e-13 1.35673e-13 1.83307e-13 1.1134e-13 -2.46173e-13 3.29534e-13 -3.10171e-13 -1.66111e-13 2.59803e-13 -8.7298e-15 2.4488e-13 -2.30283e-13 3.92202e-13 -6.14144e-13 2.49542e-13 -1.65898e-13 -2.94412e-13 -8.98416e-14 2.76888e-14 -4.11534e-13 3.3726e-14 -2.57096e-13 2.2537e-13 -8.08024e-16 2.55703e-14 1.96298e-14 -1.52277e-13 3.40973e-13 -1.02216e-12 -6.21204e-13 6.93305e-13 -1.18523e-14 3.6519e-13 -4.44907e-13 4.9242e-13 5.41674e-13 4.326e-13 4.14625e-13 -4.7056e-13 -3.35313e-13 -1.44534e-14 -5.36783e-13 -2.97305e-13 -9.22248e-13 1.60449e-13 4.86032e-13 -4.33403e-13 1.89108e-12 -4.02707e-13 -2.53064e-13 -3.31284e-13 -9.5401e-13 1.77543e-13 -6.83337e-13 -1.08462e-14 -2.90958e-12 3.98514e-13 1.55176e-12 4.2514e-13 -1.89332e-12 1.82554e-13 1.35006e-12 -4.37642e-13 1.31598e-12 -2.58718e-13 5.0008e-11 3.31034e-09 1.6912e-07 6.48474e-06 0.000178119 0.00327434 0.0361847 0.204019 0.508077 0.684695 0.828067 0.827629 0.712486 0.514391 0.298702 0.127507 0.0350354 0.00639478 0.000937754 0.000121972 1.43937e-05 1.55112e-06 1.53256e-07 1.39282e-08 1.16874e-09 9.09772e-11 6.37817e-12 -8.12232e-14 1.76362e-12 -1.49813e-12 1.86199e-12 -1.06424e-12 -1.03291e-12 1.78315e-12 -1.43446e-12 1.55969e-12 -4.60673e-13 -1.16284e-12 1.55802e-12 -1.43096e-12 1.47822e-12 -4.69679e-13 -8.81482e-13 1.167e-12 -1.21957e-12 1.09124e-12 -9.9771e-13 -2.17535e-12 1.23203e-12 -1.34418e-12 -1.42344e-12 3.61019e-12 -1.95445e-12 -1.20756e-12 2.30094e-12 -1.41343e-12 3.6252e-12 -1.73137e-12 -1.03262e-12 1.83686e-12 -2.32875e-12 2.17208e-12 -2.7423e-12 1.65027e-12 -1.04164e-12 3.03861e-12 -8.13201e-13 -1.49082e-12 -1.51278e-12 5.60747e-13 4.21143e-12 -3.3873e-12 -2.82591e-12 -3.44505e-13 4.29276e-13 2.13277e-12 -3.73147e-12 2.68848e-13 5.05724e-12 -2.28672e-12 -1.70308e-12 1.56882e-12 2.6324e-13 3.60566e-12 -4.47576e-12 -4.03984e-13 1.01766e-12 1.72996e-14 3.2223e-12 -3.21754e-12 -2.17504e-12 1.6438e-12 6.21837e-13 3.53813e-12 -4.3822e-12 -8.16076e-13 1.30626e-12 -1.26818e-12 9.80313e-13 -6.72944e-12 1.47702e-12 6.76512e-12 -3.45422e-12 -1.55975e-12 9.06854e-14 1.73187e-12 6.60196e-12 -5.553e-12 -2.46333e-12 0 0 8.63089e-15 3.00724e-14 -7.46963e-14 -1.76112e-14 -1.50048e-13 -2.46407e-13 -1.60361e-13 1.40011e-13 5.32325e-14 -7.65521e-14 -3.22834e-13 -2.21575e-13 2.02274e-13 -1.38889e-13 -1.26752e-13 4.38465e-13 3.44371e-13 2.21537e-14 -5.2022e-13 -2.45058e-13 3.99274e-14 -1.40021e-13 1.4865e-14 -6.44875e-13 -1.93742e-13 5.22958e-13 2.05261e-13 -2.17627e-13 -3.98909e-13 2.77327e-13 -2.079e-13 5.06347e-13 -1.35538e-13 -7.80952e-13 7.8933e-13 7.37957e-13 8.47973e-13 -5.72184e-13 -7.8253e-13 -7.29323e-13 -3.3985e-14 5.45501e-14 -9.48936e-13 3.57873e-13 9.81134e-13 -1.4777e-13 -3.12683e-13 -9.58899e-13 -3.08198e-13 1.69004e-13 1.39114e-12 1.00081e-12 -1.84825e-12 -2.64578e-13 -4.91136e-13 -9.99077e-13 1.42594e-12 -1.10918e-12 1.18348e-12 9.4092e-13 3.89078e-13 -3.08386e-13 -1.25909e-12 1.19838e-12 3.61788e-13 -6.30172e-14 -7.54426e-13 -1.9687e-12 1.74527e-12 -1.49567e-13 -1.43018e-12 1.09598e-12 1.48073e-12 2.52268e-12 -1.29511e-12 -3.46455e-12 -1.64405e-13 -1.36121e-12 1.64446e-12 -5.44417e-13 -2.30394e-12 3.3408e-13 -4.197e-13 -2.88338e-13 1.26155e-13 -2.66239e-13 3.20233e-13 -1.15759e-12 1.97734e-12 1.41003e-12 4.96137e-11 3.30921e-09 1.69119e-07 6.48475e-06 0.000178119 0.00327434 0.0361847 0.204019 0.508077 0.684695 0.828067 0.827629 0.712486 0.514391 0.298702 0.127507 0.0350354 0.00639478 0.000937754 0.000121972 1.43937e-05 1.55112e-06 1.53257e-07 1.393e-08 1.16842e-09 8.97312e-11 4.68853e-12 3.84845e-12 2.10479e-13 -1.01686e-13 1.83133e-13 -2.29475e-12 2.52221e-12 -4.6488e-14 -7.00988e-13 2.94807e-13 -1.90256e-12 2.56076e-12 -2.0948e-13 -6.8944e-13 -3.69712e-13 -1.73585e-12 2.6472e-12 -2.8e-13 -1.88387e-13 -2.25449e-13 -2.12183e-12 4.45816e-13 -6.67255e-13 4.71071e-13 -1.27144e-12 -7.3656e-13 2.04728e-12 4.84717e-13 4.42443e-13 -1.25013e-12 -9.85281e-14 3.40693e-12 2.02269e-12 -1.66321e-12 -3.74784e-12 -2.12594e-12 1.0631e-12 1.26654e-12 -5.88557e-13 2.74423e-12 -1.16117e-12 2.01733e-12 -1.04331e-12 -2.03779e-12 7.66516e-13 -5.41454e-12 3.51799e-12 7.59128e-13 -2.05781e-12 -6.15523e-14 -7.76523e-12 3.31721e-12 4.61372e-12 8.03053e-13 2.55761e-13 -1.54494e-12 1.0648e-12 1.54769e-12 -1.60367e-12 9.27828e-13 -1.54151e-12 -3.39871e-13 2.06663e-12 -4.46711e-13 1.74904e-13 -1.95041e-12 1.0858e-12 2.40695e-12 -1.55176e-12 1.06598e-12 -2.56276e-12 -1.98096e-13 -7.86262e-13 -3.47061e-12 2.52264e-12 -2.03346e-12 2.43651e-12 1.82203e-12 1.64571e-12 1.86499e-13 -1.6811e-12 1.23822e-12 9.03965e-13 0
				</DataArray>
				<DataArray Name="VitesseY" type="Float32" format="ascii">