<?xml version="1.0"?>
<VTKFile type="PolyData">
	<PolyData>
		<Piece NumberOfPoints="1206" NumberOfPolys="1000">
			<Points>
				<DataArray type="Float32" NumberOfComponents="3" format="ascii">
 0 0 0 0.005 0 0 0.01 0 0 0.015 0 0 0.02 0 0 0.025 0 0 0.03 0 0 0.035 0 0 0.04 0 0 0.045 0 0 0.05 0 0 0.055 0 0 0.06 0 0 0.065 0 0 0.07 0 0 0.075 0 0 0.08 0 0 0.085 0 0 0.09 0 0 0.095 0 0 0.1 0 0 0.105 0 0 0.11 0 0 0.115 0 0 0.12 0 0 0.125 0 0 0.13 0 0 0.135 0 0 0.14 0 0 0.145 0 0 0.15 0 0 0.155 0 0 0.16 0 0 0.165 0 0 0.17 0 0 0.175 0 0 0.18 0 0 0.185 0 0 0.19 0 0 0.195 0 0 0.2 0 0 0.205 0 0 0.21 0 0 0.215 0 0 0.22 0 0 0.225 0 0 0.23 0 0 0.235 0 0 0.24 0 0 0.245 0 0 0.25 0 0 0.255 0 0 0.26 0 0 0.265 0 0 0.27 0 0 0.275 0 0 0.28 0 0 0.285 0 0 0.29 0 0 0.295 0 0 0.3 0 0 0.305 0 0 0.31 0 0 0.315 0 0 0.32 0 0 0.325 0 0 0.33 0 0 0.335 0 0 0.34 0 0 0.345 0 0 0.35 0 0 0.355 0 0 0.36 0 0 0.365 0 0 0.37 0 0 0.375 0 0 0.38 0 0 0.385 0 0 0.39 0 0 0.395 0 0 0.4 0 0 0.405 0 0 0.41 0 0 0.415 0 0 0.42 0 0 0.425 0 0 0.43 0 0 0.435 0 0 0.44 0 0 0.445 0 0 0.45 0 0 0.455 0 0 0.46 0 0 0.465 0 0 0.47 0 0 0.475 0 0 0.48 0 0 0.485 0 0 0.49 0 0 0.495 0 0 0.5 0 0 0.505 0 0 0.51 0 0 0.515 0 0 0.52 0 0 0.525 0 0 0.53 0 0 0.535 0 0 0.54 0 0 0.545 0 0 0.55 0 0 0.555 0 0 0.56 0 0 0.565 0 0 0.57 0 0 0.575 0 0 0.58 0 0 0.585 0 0 0.59 0 0 0.595 0 0 0.6 0 0 0.605 0 0 0.61 0 0 0.615 0 0 0.62 0 0 0.625 0 0 0.63 0 0 0.635 0 0 0.64 0 0 0.645 0 0 0.65 0 0 0.655 0 0 0.66 0 0 0.665 0 0 0.67 0 0 0.675 0 0 0.68 0 0 0.685 0 0 0.69 0 0 0.695 0 0 0.7 0 0 0.705 0 0 0.71 0 0 0.715 0 0 0.72 0 0 0.725 0 0 0.73 0 0 0.735 0 0 0.74 0 0 0.745 0 0 0.75 0 0 0.755 0 0 0.76 0 0 0.765 0 0 0.77 0 0 0.775 0 0 0.78 0 0 0.785 0 0 0.79 0 0 0.795 0 0 0.8 0 0 0.805 0 0 0.81 0 0 0.815 0 0 0.82 0 0 0.825 0 0 0.83 0 0 0.835 0 0 0.84 0 0 0.845 0 0 0.85 0 0 0.855 0 0 0.86 0 0 0.865 0 0 0.87 0 0 0.875 0 0 0.88 0 0 0.885 0 0 0.89 0 0 0.895 0 0 0.9 0 0 0.905 0 0 0.91 0 0 0.915 0 0 0.92 0 0 0.925 0 0 0.93 0 0 0.935 0 0 0.94 0 0 0.945 0 0 0.95 0 0 0.955 0 0 0.96 0 0 0.965 0 0 0.97 0 0 0.975 0 0 0.98 0 0 0.985 0 0 0.99 0 0 0.995 0 0 1 0 0 0 0.02 0 0.005 0.02 0 0.01 0.02 0 0.015 0.02 0 0.02 0.02 0 0.025 0.02 0 0.03 0.02 0 0.035 0.02 0 0.04 0.02 0 0.045 0.02 0 0.05 0.02 0 0.055 0.02 0 0.06 0.02 0 0.065 0.02 0 0.07 0.02 0 0.075 0.02 0 0.08 0.02 0 0.085 0.02 0 0.09 0.02 0 0.095 0.02 0 0.1 0.02 0 0.105 0.02 0 0.11 0.02 0 0.115 0.02 0 0.12 0.02 0 0.125 0.02 0 0.13 0.02 0 0.135 0.02 0 0.14 0.02 0 0.145 0.02 0 0.15 0.02 0 0.155 0.02 0 0.16 0.02 0 0.165 0.02 0 0.17 0.02 0 0.175 0.02 0 0.18 0.02 0 0.185 0.02 0 0.19 0.02 0 0.195 0.02 0 0.2 0.02 0 0.205 0.02 0 0.21 0.02 0 0.215 0.02 0 0.22 0.02 0 0.225 0.02 0 0.23 0.02 0 0.235 0.02 0 0.24 0.02 0 0.245 0.02 0 0.25 0.02 0 0.255 0.02 0 0.26 0.02 0 0.265 0.02 0 0.27 0.02 0 0.275 0.02 0 0.28 0.02 0 0.285 0.02 0 0.29 0.02 0 0.295 0.02 0 0.3 0.02 0 0.305 0.02 0 0.31 0.02 0 0.315 0.02 0 0.32 0.02 0 0.325 0.02 0 0.33 0.02 0 0.335 0.02 0 0.34 0.02 0 0.345 0.02 0 0.35 0.02 0 0.355 0.02 0 0.36 0.02 0 0.365 0.02 0 0.37 0.02 0 0.375 0.02 0 0.38 0.02 0 0.385 0.02 0 0.39 0.02 0 0.395 0.02 0 0.4 0.02 0 0.405 0.02 0 0.41 0.02 0 0.415 0.02 0 0.42 0.02 0 0.425 0.02 0 0.43 0.02 0 0.435 0.02 0 0.44 0.02 0 0.445 0.02 0 0.45 0.02 0 0.455 0.02 0 0.46 0.02 0 0.465 0.02 0 0.47 0.02 0 0.475 0.02 0 0.48 0.02 0 0.485 0.02 0 0.49 0.02 0 0.495 0.02 0 0.5 0.02 0 0.505 0.02 0 0.51 0.02 0 0.515 0.02 0 0.52 0.02 0 0.525 0.02 0 0.53 0.02 0 0.535 0.02 0 0.54 0.02 0 0.545 0.02 0 0.55 0.02 0 0.555 0.02 0 0.56 0.02 0 0.565 0.02 0 0.57 0.02 0 0.575 0.02 0 0.58 0.02 0 0.585 0.02 0 0.59 0.02 0 0.595 0.02 0 0.6 0.02 0 0.605 0.02 0 0.61 0.02 0 0.615 0.02 0 0.62 0.02 0 0.625 0.02 0 0.63 0.02 0 0.635 0.02 0 0.64 0.02 0 0.645 0.02 0 0.65 0.02 0 0.655 0.02 0 0.66 0.02 0 0.665 0.02 0 0.67 0.02 0 0.675 0.02 0 0.68 0.02 0 0.685 0.02 0 0.69 0.02 0 0.695 0.02 0 0.7 0.02 0 0.705 0.02 0 0.71 0.02 0 0.715 0.02 0 0.72 0.02 0 0.725 0.02 0 0.73 0.02 0 0.735 0.02 0 0.74 0.02 0 0.745 0.02 0 0.75 0.02 0 0.755 0.02 0 0.76 0.02 0 0.765 0.02 0 0.77 0.02 0 0.775 0.02 0 0.78 0.02 0 0.785 0.02 0 0.79 0.02 0 0.795 0.02 0 0.8 0.02 0 0.805 0.02 0 0.81 0.02 0 0.815 0.02 0 0.82 0.02 0 0.825 0.02 0 0.83 0.02 0 0.835 0.02 0 0.84 0.02 0 0.845 0.02 0 0.85 0.02 0 0.855 0.02 0 0.86 0.02 0 0.865 0.02 0 0.87 0.02 0 0.875 0.02 0 0.88 0.02 0 0.885 0.02 0 0.89 0.02 0 0.895 0.02 0 0.9 0.02 0 0.905 0.02 0 0.91 0.02 0 0.915 0.02 0 0.92 0.02 0 0.925 0.02 0 0.93 0.02 0 0.935 0.02 0 0.94 0.02 0 0.945 0.02 0 0.95 0.02 0 0.955 0.02 0 0.96 0.02 0 0.965 0.02 0 0.97 0.02 0 0.975 0.02 0 0.98 0.02 0 0.985 0.02 0 0.99 0.02 0 0.995 0.02 0 1 0.02 0 0 0.04 0 0.005 0.04 0 0.01 0.04 0 0.015 0.04 0 0.02 0.04 0 0.025 0.04 0 0.03 0.04 0 0.035 0.04 0 0.04 0.04 0 0.045 0.04 0 0.05 0.04 0 0.055 0.04 0 0.06 0.04 0 0.065 0.04 0 0.07 0.04 0 0.075 0.04 0 0.08 0.04 0 0.085 0.04 0 0.09 0.04 0 0.095 0.04 0 0.1 0.04 0 0.105 0.04 0 0.11 0.04 0 0.115 0.04 0 0.12 0.04 0 0.125 0.04 0 0.13 0.04 0 0.135 0.04 0 0.14 0.04 0 0.145 0.04 0 0.15 0.04 0 0.155 0.04 0 0.16 0.04 0 0.165 0.04 0 0.17 0.04 0 0.175 0.04 0 0.18 0.04 0 0.185 0.04 0 0.19 0.04 0 0.195 0.04 0 0.2 0.04 0 0.205 0.04 0 0.21 0.04 0 0.215 0.04 0 0.22 0.04 0 0.225 0.04 0 0.23 0.04 0 0.235 0.04 0 0.24 0.04 0 0.245 0.04 0 0.25 0.04 0 0.255 0.04 0 0.26 0.04 0 0.265 0.04 0 0.27 0.04 0 0.275 0.04 0 0.28 0.04 0 0.285 0.04 0 0.29 0.04 0 0.295 0.04 0 0.3 0.04 0 0.305 0.04 0 0.31 0.04 0 0.315 0.04 0 0.32 0.04 0 0.325 0.04 0 0.33 0.04 0 0.335 0.04 0 0.34 0.04 0 0.345 0.04 0 0.35 0.04 0 0.355 0.04 0 0.36 0.04 0 0.365 0.04 0 0.37 0.04 0 0.375 0.04 0 0.38 0.04 0 0.385 0.04 0 0.39 0.04 0 0.395 0.04 0 0.4 0.04 0 0.405 0.04 0 0.41 0.04 0 0.415 0.04 0 0.42 0.04 0 0.425 0.04 0 0.43 0.04 0 0.435 0.04 0 0.44 0.04 0 0.445 0.04 0 0.45 0.04 0 0.455 0.04 0 0.46 0.04 0 0.465 0.04 0 0.47 0.04 0 0.475 0.04 0 0.48 0.04 0 0.485 0.04 0 0.49 0.04 0 0.495 0.04 0 0.5 0.04 0 0.505 0.04 0 0.51 0.04 0 0.515 0.04 0 0.52 0.04 0 0.525 0.04 0 0.53 0.04 0 0.535 0.04 0 0.54 0.04 0 0.545 0.04 0 0.55 0.04 0 0.555 0.04 0 0.56 0.04 0 0.565 0.04 0 0.57 0.04 0 0.575 0.04 0 0.58 0.04 0 0.585 0.04 0 0.59 0.04 0 0.595 0.04 0 0.6 0.04 0 0.605 0.04 0 0.61 0.04 0 0.615 0.04 0 0.62 0.04 0 0.625 0.04 0 0.63 0.04 0 0.635 0.04 0 0.64 0.04 0 0.645 0.04 0 0.65 0.04 0 0.655 0.04 0 0.66 0.04 0 0.665 0.04 0 0.67 0.04 0 0.675 0.04 0 0.68 0.04 0 0.685 0.04 0 0.69 0.04 0 0.695 0.04 0 0.7 0.04 0 0.705 0.04 0 0.71 0.04 0 0.715 0.04 0 0.72 0.04 0 0.725 0.04 0 0.73 0.04 0 0.735 0.04 0 0.74 0.04 0 0.745 0.04 0 0.75 0.04 0 0.755 0.04 0 0.76 0.04 0 0.765 0.04 0 0.77 0.04 0 0.775 0.04 0 0.78 0.04 0 0.785 0.04 0 0.79 0.04 0 0.795 0.04 0 0.8 0.04 0 0.805 0.04 0 0.81 0.04 0 0.815 0.04 0 0.82 0.04 0 0.825 0.04 0 0.83 0.04 0 0.835 0.04 0 0.84 0.04 0 0.845 0.04 0 0.85 0.04 0 0.855 0.04 0 0.86 0.04 0 0.865 0.04 0 0.87 0.04 0 0.875 0.04 0 0.88 0.04 0 0.885 0.04 0 0.89 0.04 0 0.895 0.04 0 0.9 0.04 0 0.905 0.04 0 0.91 0.04 0 0.915 0.04 0 0.92 0.04 0 0.925 0.04 0 0.93 0.04 0 0.935 0.04 0 0.94 0.04 0 0.945 0.04 0 0.95 0.04 0 0.955 0.04 0 0.96 0.04 0 0.965 0.04 0 0.97 0.04 0 0.975 0.04 0 0.98 0.04 0 0.985 0.04 0 0.99 0.04 0 0.995 0.04 0 1 0.04 0 0 0.06 0 0.005 0.06 0 0.01 0.06 0 0.015 0.06 0 0.02 0.06 0 0.025 0.06 0 0.03 0.06 0 0.035 0.06 0 0.04 0.06 0 0.045 0.06 0 0.05 0.06 0 0.055 0.06 0 0.06 0.06 0 0.065 0.06 0 0.07 0.06 0 0.075 0.06 0 0.08 0.06 0 0.085 0.06 0 0.09 0.06 0 0.095 0.06 0 0.1 0.06 0 0.105 0.06 0 0.11 0.06 0 0.115 0.06 0 0.12 0.06 0 0.125 0.06 0 0.13 0.06 0 0.135 0.06 0 0.14 0.06 0 0.145 0.06 0 0.15 0.06 0 0.155 0.06 0 0.16 0.06 0 0.165 0.06 0 0.17 0.06 0 0.175 0.06 0 0.18 0.06 0 0.185 0.06 0 0.19 0.06 0 0.195 0.06 0 0.2 0.06 0 0.205 0.06 0 0.21 0.06 0 0.215 0.06 0 0.22 0.06 0 0.225 0.06 0 0.23 0.06 0 0.235 0.06 0 0.24 0.06 0 0.245 0.06 0 0.25 0.06 0 0.255 0.06 0 0.26 0.06 0 0.265 0.06 0 0.27 0.06 0 0.275 0.06 0 0.28 0.06 0 0.285 0.06 0 0.29 0.06 0 0.295 0.06 0 0.3 0.06 0 0.305 0.06 0 0.31 0.06 0 0.315 0.06 0 0.32 0.06 0 0.325 0.06 0 0.33 0.06 0 0.335 0.06 0 0.34 0.06 0 0.345 0.06 0 0.35 0.06 0 0.355 0.06 0 0.36 0.06 0 0.365 0.06 0 0.37 0.06 0 0.375 0.06 0 0.38 0.06 0 0.385 0.06 0 0.39 0.06 0 0.395 0.06 0 0.4 0.06 0 0.405 0.06 0 0.41 0.06 0 0.415 0.06 0 0.42 0.06 0 0.425 0.06 0 0.43 0.06 0 0.435 0.06 0 0.44 0.06 0 0.445 0.06 0 0.45 0.06 0 0.455 0.06 0 0.46 0.06 0 0.465 0.06 0 0.47 0.06 0 0.475 0.06 0 0.48 0.06 0 0.485 0.06 0 0.49 0.06 0 0.495 0.06 0 0.5 0.06 0 0.505 0.06 0 0.51 0.06 0 0.515 0.06 0 0.52 0.06 0 0.525 0.06 0 0.53 0.06 0 0.535 0.06 0 0.54 0.06 0 0.545 0.06 0 0.55 0.06 0 0.555 0.06 0 0.56 0.06 0 0.565 0.06 0 0.57 0.06 0 0.575 0.06 0 0.58 0.06 0 0.585 0.06 0 0.59 0.06 0 0.595 0.06 0 0.6 0.06 0 0.605 0.06 0 0.61 0.06 0 0.615 0.06 0 0.62 0.06 0 0.625 0.06 0 0.63 0.06 0 0.635 0.06 0 0.64 0.06 0 0.645 0.06 0 0.65 0.06 0 0.655 0.06 0 0.66 0.06 0 0.665 0.06 0 0.67 0.06 0 0.675 0.06 0 0.68 0.06 0 0.685 0.06 0 0.69 0.06 0 0.695 0.06 0 0.7 0.06 0 0.705 0.06 0 0.71 0.06 0 0.715 0.06 0 0.72 0.06 0 0.725 0.06 0 0.73 0.06 0 0.735 0.06 0 0.74 0.06 0 0.745 0.06 0 0.75 0.06 0 0.755 0.06 0 0.76 0.06 0 0.765 0.06 0 0.77 0.06 0 0.775 0.06 0 0.78 0.06 0 0.785 0.06 0 0.79 0.06 0 0.795 0.06 0 0.8 0.06 0 0.805 0.06 0 0.81 0.06 0 0.815 0.06 0 0.82 0.06 0 0.825 0.06 0 0.83 0.06 0 0.835 0.06 0 0.84 0.06 0 0.845 0.06 0 0.85 0.06 0 0.855 0.06 0 0.86 0.06 0 0.865 0.06 0 0.87 0.06 0 0.875 0.06 0 0.88 0.06 0 0.885 0.06 0 0.89 0.06 0 0.895 0.06 0 0.9 0.06 0 0.905 0.06 0 0.91 0.06 0 0.915 0.06 0 0.92 0.06 0 0.925 0.06 0 0.93 0.06 0 0.935 0.06 0 0.94 0.06 0 0.945 0.06 0 0.95 0.06 0 0.955 0.06 0 0.96 0.06 0 0.965 0.06 0 0.97 0.06 0 0.975 0.06 0 0.98 0.06 0 0.985 0.06 0 0.99 0.06 0 0.995 0.06 0 1 0.06 0 0 0.08 0 0.005 0.08 0 0.01 0.08 0 0.015 0.08 0 0.02 0.08 0 0.025 0.08 0 0.03 0.08 0 0.035 0.08 0 0.04 0.08 0 0.045 0.08 0 0.05 0.08 0 0.055 0.08 0 0.06 0.08 0 0.065 0.08 0 0.07 0.08 0 0.075 0.08 0 0.08 0.08 0 0.085 0.08 0 0.09 0.08 0 0.095 0.08 0 0.1 0.08 0 0.105 0.08 0 0.11 0.08 0 0.115 0.08 0 0.12 0.08 0 0.125 0.08 0 0.13 0.08 0 0.135 0.08 0 0.14 0.08 0 0.145 0.08 0 0.15 0.08 0 0.155 0.08 0 0.16 0.08 0 0.165 0.08 0
[...]
			<PointData Scalars="VitesseX">
				<DataArray Name="VitesseX" type="Float32" format="ascii">
 0 6.49706e-15 -5.83182e-15 1.73048e-14 -5.81558e-15 -7.77277e-15 -2.09947e-14 1.4486e-14 -1.76812e-15 -1.50413e-15 -1.55748e-15 -3.89452e-14 -1.50928e-14 -6.2886e-14 -8.80868e-14 -7.33485e-14 -5.49268e-14 -4.58101e-14 -8.60421e-14 -6.78798e-14 -6.91478e-14 -2.86428e-14 5.31699e-14 6.83886e-14 4.97096e-14 8.64635e-14 9.9488e-14 3.58932e-14 -4.04779e-14 9.96292e-14 -2.83601e-14 4.88934e-15 -9.56815e-14 -7.35179e-14 -8.85389e-15 -9.55598e-14 1.91619e-14 -3.8854e-14 -6.0709e-14 -9.48866e-14 -3.61508e-14 5.42525e-14 8.34376e-14 4.17662e-13 3.37236e-12 2.28059e-11 1.40281e-10 8.21717e-10 4.55678e-09 2.38582e-08 1.1767e-07 5.45104e-07 2.36414e-06 9.56371e-06 3.59286e-05 0.000124701 0.000397401 0.00115428 0.00302965 0.00711988 0.014859 0.0274238 0.0449151 0.0661443 0.0894147 0.113468 0.137722 0.161988 0.186213 0.210377 0.234472 0.258492 0.282433 0.306292 0.330067 0.353753 0.377346 0.400842 0.424233 0.447514 0.470674 0.493704 0.516591 0.53932 0.561875 0.584234 0.606375 0.628268 0.649882 0.671177 0.692109 0.712625 0.732668 0.752167 0.771046 0.78922 0.806593 0.823065 0.83853 0.852883 0.866025 0.877869 0.888351 0.897436 0.905125 0.911461 0.916529 0.92045 0.923373 0.925463 0.926885 0.927795 0.928331 0.928605 0.928706 0.928705 0.928661 0.928589 0.9285 0.928399 0.928293 0.928185 0.928079 0.927976 0.927877 0.927783 0.927693 0.927608 0.927526 0.927448 0.927372 0.927299 0.927227 0.927157 0.927087 0.927017 0.926946 0.926873 0.926798 0.926716 0.926623 0.926511 0.926366 0.926163 0.925858 0.925379 0.924603 0.923328 0.921227 0.917776 0.912154 0.90311 0.888804 0.86668 0.833445 0.785334 0.718819 0.631889 0.525796 0.406731 0.286219 0.178844 0.097095 0.0455598 0.0189667 0.00733496 0.00273607 0.00100424 0.000365712 0.000132541 4.78478e-05 1.72072e-05 6.16308e-06 2.19775e-06 7.7998e-07 2.7538e-07 9.66812e-08 3.37391e-08 1.16984e-08 4.02827e-09 1.37703e-09 4.67287e-10 1.57154e-10 5.25719e-11 1.70017e-11 5.58891e-12 1.52078e-12 6.1115e-13 2.09125e-13 2.26644e-14 -1.86607e-14 -1.21353e-13 2.24372e-14 2.72563e-14 -2.389e-13 6.2147e-14 3.02081e-13 -4.39983e-13 9.36088e-14 3.55594e-14 0 0 -5.69078e-15 -9.17075e-16 -1.43245e-14 -1.82585e-15 -3.75277e-15 5.59404e-15 -2.25275e-14 5.69173e-15 -3.45903e-16 -2.38562e-14 -2.72379e-15 -4.42732e-14 -3.99782e-14 -7.09313e-14 -6.00165e-14 -7.65224e-14 -1.02699e-13 -5.27778e-14 -7.89687e-14 -2.05015e-14 -1.04094e-14 1.34612e-14 5.71651e-14 1.08262e-13 4.11474e-14 6.09839e-15 4.49169e-14 9.60979e-14 -5.79e-14 1.0355e-14 -5.70626e-14 -1.7885e-14 -2.96491e-14 -1.2742e-13 2.24956e-14 -7.3091e-14 -2.19644e-14 -5.69169e-14 3.18697e-14 -9.65028e-14 -1.12721e-13 8.20859e-14 5.08387e-13 3.48938e-12 2.25693e-11 1.40232e-10 8.21824e-10 4.55662e-09 2.38584e-08 1.1767e-07 5.45103e-07 2.36414e-06 9.56371e-06 3.59286e-05 0.000124701 0.000397401 0.00115428 0.00302965 0.00711988 0.014859 0.0274238 0.0449151 0.0661443 0.0894147 0.113468 0.137722 0.161988 0.186213 0.210377 0.234472 0.258492 0.282433 0.306292 0.330067 0.353753 0.377346 0.400842 0.424233 0.447514 0.470674 0.493704 0.516591 0.53932 0.561875 0.584234 0.606375 0.628268 0.649882 0.671177 0.692109 0.712625 0.732668 0.752167 0.771046 0.78922 0.806593 0.823065 0.83853 0.852883 0.866025 0.877869 0.888351 0.897436 0.905125 0.911461 0.916529 0.92045 0.923373 0.925463 0.926885 0.927795 0.928331 0.928605 0.928706 0.928705 0.928661 0.928589 0.9285 0.928399 0.928293 0.928185 0.928079 0.927976 0.927877 0.927783 0.927693 0.927608 0.927526 0.927448 0.927372 0.927299 0.927227 0.927157 0.927087 0.927017 0.926946 0.926873 0.926798 0.926716 0.926623 0.926511 0.926366 0.926163 0.925858 0.925379 0.924603 0.923328 0.921227 0.917776 0.912154 0.90311 0.888804 0.86668 0.833445 0.785334 0.718819 0.631889 0.525796 0.406731 0.286219 0.178844 0.097095 0.0455598 0.0189667 0.00733496 0.00273607 0.00100424 0.000365712 0.000132541 4.78478e-05 1.72072e-05 6.16308e-06 2.19775e-06 7.7998e-07 2.75379e-07 9.66812e-08 3.3739e-08 1.16984e-08 4.02846e-09 1.37734e-09 4.67107e-10 1.57239e-10 5.22675e-11 1.74747e-11 5.58841e-12 1.76749e-12 3.63024e-13 1.13398e-13 -2.78648e-14 9.84573e-14 -1.46821e-13 2.03168e-13 6.84287e-14 2.29789e-13 -1.00322e-13 -1.80275e-13 7.11308e-14 -7.00946e-14 1.4583e-13 0 0 -2.56661e-15 -4.27466e-15 -9.72675e-15 -1.44567e-14 -1.04272e-14 -1.29498e-14 -2.12294e-14 -8.30723e-15 -2.61603e-14 -1.24071e-14 -4.15297e-14 -8.83592e-15 -3.91856e-14 -5.98773e-14 -7.42047e-14 -6.88918e-14 -6.18284e-14 -1.04008e-13 -3.25923e-14 -1.28701e-14 6.90872e-16 1.85737e-14 1.36035e-14 3.39596e-14 -9.25458e-17 4.96511e-14 6.58222e-14 -3.18766e-14 6.46831e-14 -3.28927e-14 -6.92262e-15 -4.59324e-14 -3.25898e-14 -1.83925e-14 -5.89337e-14 -7.78269e-14 -4.61355e-14 -3.23745e-14 -8.00533e-14 -2.85674e-14 -2.35987e-14 3.71995e-14 4.67219e-13 3.4369e-12 2.27085e-11 1.40241e-10 8.21655e-10 4.55664e-09 2.38582e-08 1.1767e-07 5.45103e-07 2.36414e-06 9.56371e-06 3.59286e-05 0.000124701 0.000397401 0.00115428 0.00302965 0.00711988 0.014859 0.0274238 0.0449151 0.0661443 0.0894147 0.113468 0.137722 0.161988 0.186213 0.210377 0.234472 0.258492 0.282433 0.306292 0.330067 0.353753 0.377346 0.400842 0.424233 0.447514 0.470674 0.493704 0.516591 0.53932 0.561875 0.584234 0.606375 0.628268 0.649882 0.671177 0.692109 0.712625 0.732668 0.752167 0.771046 0.78922 0.806593 0.823065 0.83853 0.852883 0.866025 0.877869 0.888351 0.897436 0.905125 0.911461 0.916529 0.92045 0.923373 0.925463 0.926885 0.927795 0.928331 0.928605 0.928706 0.928705 0.928661 0.928589 0.9285 0.928399 0.928293 0.928185 0.928079 0.927976 0.927877 0.927783 0.927693 0.927608 0.927526 0.927448 0.927372 0.927299 0.927227 0.927157 0.927087 0.927017 0.926946 0.926873 0.926798 0.926716 0.926623 0.926511 0.926366 0.926163 0.925858 0.925379 0.924603 0.923328 0.921227 0.917776 0.912154 0.90311 0.888804 0.86668 0.833445 0.785334 0.718819 0.631889 0.525796 0.406731 0.286219 0.178844 0.097095 0.0455598 0.0189667 0.00733496 0.00273607 0.00100424 0.000365712 0.000132541 4.78478e-05 1.72072e-05 6.16308e-06 2.19775e-06 7.7998e-07 2.75379e-07 9.66813e-08 3.37391e-08 1.16984e-08 4.02858e-09 1.37733e-09 4.67235e-10 1.57384e-10 5.24477e-11 1.73977e-11 5.61263e-12 1.77823e-12 5.18791e-13 5.24312e-14 -8.07152e-14 -9.67798e-14 7.11842e-14 3.12638e-14 4.15594e-13 -1.60452e-13 3.11272e-14 1.40551e-13 7.36598e-14 -1.22702e-15 -1.02084e-13 0 0 3.93525e-15 3.71744e-16 7.09989e-15 -1.0014e-14 -2.82199e-14 -2.97974e-14 -2.29732e-14 -3.42753e-14 -2.91555e-14 -3.9276e-14 -3.44177e-14 -4.45355e-14 -4.79006e-14 -7.16793e-14 -5.02079e-14 -2.46577e-14 -4.7609e-14 -3.62333e-14 -2.98449e-14 -3.74745e-14 -3.46006e-14 -3.16584e-14 -2.24657e-14 1.24714e-14 8.0665e-14 5.14333e-14 -2.70161e-14 -1.00904e-13 1.20315e-13 -2.87034e-14 1.96495e-14 -7.68493e-14 -5.2698e-14 -3.22625e-14 -7.41011e-14 -1.64669e-14 -3.29134e-14 -6.03364e-14 -7.31947e-14 -9.73956e-16 3.51563e-14 8.49081e-14 4.50846e-13 3.45243e-12 2.26558e-11 1.40255e-10 8.21746e-10 4.55666e-09 2.38581e-08 1.1767e-07 5.45104e-07 2.36414e-06 9.56371e-06 3.59286e-05 0.000124701 0.000397401 0.00115428 0.00302965 0.00711988 0.014859 0.0274238 0.0449151 0.0661443 0.0894147 0.113468 0.137722 0.161988 0.186213 0.210377 0.234472 0.258492 0.282433 0.306292 0.330067 0.353753 0.377346 0.400842 0.424233 0.447514 0.470674 0.493704 0.516591 0.53932 0.561875 0.584234 0.606375 0.628268 0.649882 0.671177 0.692109 0.712625 0.732668 0.752167 0.771046 0.78922 0.806593 0.823065 0.83853 0.852883 0.866025 0.877869 0.888351 0.897436 0.905125 0.911461 0.916529 0.92045 0.923373 0.925463 0.926885 0.927795 0.928331 0.928605 0.928706 0.928705 0.928661 0.928589 0.9285 0.928399 0.928293 0.928185 0.928079 0.927976 0.927877 0.927783 0.927693 0.927608 0.927526 0.927448 0.927372 0.927299 0.927227 0.927157 0.927087 0.927017 0.926946 0.926873 0.926798 0.926716 0.926623 0.926511 0.926366 0.926163 0.925858 0.925379 0.924603 0.923328 0.921227 0.917776 0.912154 0.90311 0.888804 0.86668 0.833445 0.785334 0.718819 0.631889 0.525796 0.406731 0.286219 0.178844 0.097095 0.0455598 0.0189667 0.00733496 0.00273607 0.00100424 0.000365712 0.000132541 4.78478e-05 1.72072e-05 6.16308e-06 2.19775e-06 7.7998e-07 2.7538e-07 9.66814e-08 3.37391e-08 1.16986e-08 4.02862e-09 1.37705e-09 4.67421e-10 1.572e-10 5.24641e-11 1.7147e-11 5.7812e-12 1.66513e-12 4.39633e-13 2.29317e-13 -3.57673e-14 -1.72022e-13 7.57383e-15 1.27808e-13 -1.19162e-13 3.04684e-14 7.64219e-14 1.84725e-13 -3.00593e-14 -3.61397e-13 5.54188e-13 0 0 -6.34518e-15 -4.8116e-15 -8.86066e-15 -1.26079e-14 -2.85153e-14 -2.35079e-14 -4.95619e-14 -3.88788e-14 -1.81027e-14 -6.08375e-14 -2.40643e-14 -5.33612e-14 -2.03979e-14 -4.39265e-14 -1.6119e-14 -4.47929e-14 -5.98195e-14 -9.96943e-15 -5.86468e-14 -5.63792e-14 -3.96629e-14 -5.46353e-14 2.58814e-14 4.0419e-14 7.14535e-14 -2.68042e-14 -6.59955e-14 -8.88584e-15 -9.41554e-14 -2.06598e-14 -4.02109e-14 -6.86326e-15 -7.68394e-16 -8.18696e-14 4.17506e-14 -8.81641e-14 -6.54752e-15 -7.89121e-14 3.1132e-14 -4.94858e-14 -2.40571e-14 9.52383e-14 4.45964e-13 3.45043e-12 2.24958e-11 1.40181e-10 8.21882e-10 4.55664e-09 2.38584e-08 1.1767e-07 5.45103e-07 2.36414e-06 9.56371e-06 3.59286e-05 0.000124701 0.000397401 0.00115428 0.00302965 0.00711988 0.014859 0.0274238 0.0449151 0.0661443 0.0894147 0.113468 0.137722 0.161988 0.186213 0.210377 0.234472 0.258492 0.282433 0.306292 0.330067 0.353753 0.377346 0.400842 0.424233 0.447514 0.470674 0.493704 0.516591 0.53932 0.561875 0.584234 0.606375 0.628268 0.649882 0.671177 0.692109 0.712625 0.732668 0.752167 0.771046 0.78922 0.806593 0.823065 0.83853 0.852883 0.866025 0.877869 0.888351 0.897436 0.905125 0.911461 0.916529 0.92045 0.923373 0.925463 0.926885 0.927795 0.928331 0.928605 0.928706 0.928705 0.928661 0.928589 0.9285 0.928399 0.928293 0.928185 0.928079 0.927976 0.927877 0.927783 0.927693 0.927608 0.927526 0.927448 0.927372 0.927299 0.927227 0.927157 0.927087 0.927017 0.926946 0.926873 0.926798 0.926716 0.926623 0.926511 0.926366 0.926163 0.925858 0.925379 0.924603 0.923328 0.921227 0.917776 0.912154 0.90311 0.888804 0.86668 0.833445 0.785334 0.718819 0.631889 0.525796 0.406731 0.286219 0.178844 0.097095 0.0455598 0.0189667 0.00733496 0.00273607 0.00100424 0.000365712 0.000132541 4.78478e-05 1.72072e-05 6.16308e-06 2.19775e-06 7.7998e-07 2.7538e-07 9.66813e-08 3.3739e-08 1.16985e-08 4.02851e-09 1.37748e-09 4.67126e-10 1.57184e-10 5.24269e-11 1.74226e-11 5.7236e-12 1.76933e-12 2.67249e-13 7.66389e-14 -2.32252e-14 -8.42315e-14 -2.30656e-13 2.90635e-13 -2.0702e-13 4.26522e-13 2.90702e-14 -2.51022e-13 1.12358e-13 -3.07741e-13 3.20861e-13 0 0 -7.81546e-15 -2.29137e-14 -5.42087e-15 -3.62652e-14 -2.17124e-14 -4.55034e-14 -3.60952e-14 -3.8973e-14 -3.10274e-14 -2.17823e-14 -9.58502e-14 3.81306e-14 -6.2954e-15 -1.04731e-14 -3.3547e-14 -7.99359e-14 1.15099e-14 -1.35974e-13 -3.27308e-14 -9.16944e-14 -1.65669e-14 1.74408e-14 7.79596e-14 -4.29995e-14 -1.44394e-14 3.01185e-14 -2.54958e-16 -1.12391e-13 -8.41455e-14 -9.87682e-14 -1.45516e-14 -1.18043e-14 2.446e-14 1.09988e-13 -2.6715e-14 -1.33704e-13 -3.44644e-14 -4.87756e-14 -1.10079e-13 2.69652e-15 1.14071e-13 1.43254e-14 3.25565e-13 3.2634e-12 2.27642e-11 1.40151e-10 8.21652e-10 4.55677e-09 2.38584e-08 1.1767e-07 5.45104e-07 2.36414e-06 9.56371e-06 3.59286e-05 0.000124701 0.000397401 0.00115428 0.00302965 0.00711988 0.014859 0.0274238 0.0449151 0.0661443 0.0894147 0.113468 0.137722 0.161988 0.186213 0.210377 0.234472 0.258492 0.282433 0.306292 0.330067 0.353753 0.377346 0.400842 0.424233 0.447514 0.470674 0.493704 0.516591 0.53932 0.561875 0.584234 0.606375 0.628268 0.649882 0.671177 0.692109 0.712625 0.732668 0.752167 0.771046 0.78922 0.806593 0.823065 0.83853 0.852883 0.866025 0.877869 0.888351 0.897436 0.905125 0.911461 0.916529 0.92045 0.923373 0.925463 0.926885 0.927795 0.928331 0.928605 0.928706 0.928705 0.928661 0.928589 0.9285 0.928399 0.928293 0.928185 0.928079 0.927976 0.927877 0.927783 0.927693 0.927608 0.927526 0.927448 0.927372 0.927299 0.927227 0.927157 0.927087 0.927017 0.926946 0.926873 0.926798 0.926716 0.926623 0.926511 0.926366 0.926163 0.925858 0.925379 0.924603 0.923328 0.921227 0.917776 0.912154 0.90311 0.888804 0.86668 0.833445 0.785334 0.718819 0.631889 0.525796 0.406731 0.286219 0.178844 0.097095 0.0455598 0.0189667 0.00733496 0.00273607 0.00100424 0.000365712 0.000132541 4.78478e-05 1.72072e-05 6.16308e-06 2.19775e-06 7.7998e-07 2.7538e-07 9.66813e-08 3.37392e-08 1.16982e-08 4.0283e-09 1.37786e-09 4.66953e-10 1.57409e-10 5.28579e-11 1.73988e-11 5.52214e-12 1.75067e-12 5.77914e-13 -2.18164e-13 -5.79521e-14 -2.33555e-13 -1.61803e-13 4.28167e-15 5.45872e-13 -2.27273e-13 2.30342e-13 7.22383e-14 -1.50091e-13 3.38657e-13 -9.26922e-13 0
				</DataArray>
				<DataArray Name="VitesseY" type="Float32" format="ascii">