<?xml version="1.0"?>
<VTKFile type="PolyData">
	<PolyData>
		<Piece NumberOfPoints="1206" NumberOfPolys="1000">
			<Points>
				<DataArray type="Float32" NumberOfComponents="3" format="ascii">
 0 0 0 0.005 0 0 0.01 0 0 0.015 0 0 0.02 0 0 0.025 0 0 0.03 0 0 0.035 0 0 0.04 0 0 0.045 0 0 0.05 0 0 0.055 0 0 0.06 0 0 0.065 0 0 0.07 0 0 0.075 0 0 0.08 0 0 0.085 0 0 0.09 0 0 0.095 0 0 0.1 0 0 0.105 0 0 0.11 0 0 0.115 0 0 0.12 0 0 0.125 0 0 0.13 0 0 0.135 0 0 0.14 0 0 0.145 0 0 0.15 0 0 0.155 0 0 0.16 0 0 0.165 0 0 0.17 0 0 0.175 0 0 0.18 0 0 0.185 0 0 0.19 0 0 0.195 0 0 0.2 0 0 0.205 0 0 0.21 0 0 0.215 0 0 0.22 0 0 0.225 0 0 0.23 0 0 0.235 0 0 0.24 0 0 0.245 0 0 0.25 0 0 0.255 0 0 0.26 0 0 0.265 0 0 0.27 0 0 0.275 0 0 0.28 0 0 0.285 0 0 0.29 0 0 0.295 0 0 0.3 0 0 0.305 0 0 0.31 0 0 0.315 0 0 0.32 0 0 0.325 0 0 0.33 0 0 0.335 0 0 0.34 0 0 0.345 0 0 0.35 0 0 0.355 0 0 0.36 0 0 0.365 0 0 0.37 0 0 0.375 0 0 0.38 0 0 0.385 0 0 0.39 0 0 0.395 0 0 0.4 0 0 0.405 0 0 0.41 0 0 0.415 0 0 0.42 0 0 0.425 0 0 0.43 0 0 0.435 0 0 0.44 0 0 0.445 0 0 0.45 0 0 0.455 0 0 0.46 0 0 0.465 0 0 0.47 0 0 0.475 0 0 0.48 0 0 0.485 0 0 0.49 0 0 0.495 0 0 0.5 0 0 0.505 0 0 0.51 0 0 0.515 0 0 0.52 0 0 0.525 0 0 0.53 0 0 0.535 0 0 0.54 0 0 0.545 0 0 0.55 0 0 0.555 0 0 0.56 0 0 0.565 0 0 0.57 0 0 0.575 0 0 0.58 0 0 0.585 0 0 0.59 0 0 0.595 0 0 0.6 0 0 0.605 0 0 0.61 0 0 0.615 0 0 0.62 0 0 0.625 0 0 0.63 0 0 0.635 0 0 0.64 0 0 0.645 0 0 0.65 0 0 0.655 0 0 0.66 0 0 0.665 0 0 0.67 0 0 0.675 0 0 0.68 0 0 0.685 0 0 0.69 0 0 0.695 0 0 0.7 0 0 0.705 0 0 0.71 0 0 0.715 0 0 0.72 0 0 0.725 0 0 0.73 0 0 0.735 0 0 0.74 0 0 0.745 0 0 0.75 0 0 0.755 0 0 0.76 0 0 0.765 0 0 0.77 0 0 0.775 0 0 0.78 0 0 0.785 0 0 0.79 0 0 0.795 0 0 0.8 0 0 0.805 0 0 0.81 0 0 0.815 0 0 0.82 0 0 0.825 0 0 0.83 0 0 0.835 0 0 0.84 0 0 0.845 0 0 0.85 0 0 0.855 0 0 0.86 0 0 0.865 0 0 0.87 0 0 0.875 0 0 0.88 0 0 0.885 0 0 0.89 0 0 0.895 0 0 0.9 0 0 0.905 0 0 0.91 0 0 0.915 0 0 0.92 0 0 0.925 0 0 0.93 0 0 0.935 0 0 0.94 0 0 0.945 0 0 0.95 0 0 0.955 0 0 0.96 0 0 0.965 0 0 0.97 0 0 0.975 0 0 0.98 0 0 0.985 0 0 0.99 0 0 0.995 0 0 1 0 0 0 0.02 0 0.005 0.02 0 0.01 0.02 0 0.015 0.02 0 0.02 0.02 0 0.025 0.02 0 0.03 0.02 0 0.035 0.02 0 0.04 0.02 0 0.045 0.02 0 0.05 0.02 0 0.055 0.02 0 0.06 0.02 0 0.065 0.02 0 0.07 0.02 0 0.075 0.02 0 0.08 0.02 0 0.085 0.02 0 0.09 0.02 0 0.095 0.02 0 0.1 0.02 0 0.105 0.02 0 0.11 0.02 0 0.115 0.02 0 0.12 0.02 0 0.125 0.02 0 0.13 0.02 0 0.135 0.02 0 0.14 0.02 0 0.145 0.02 0 0.15 0.02 0 0.155 0.02 0 0.16 0.02 0 0.165 0.02 0 0.17 0.02 0 0.175 0.02 0 0.18 0.02 0 0.185 0.02 0 0.19 0.02 0 0.195 0.02 0 0.2 0.02 0 0.205 0.02 0 0.21 0.02 0 0.215 0.02 0 0.22 0.02 0 0.225 0.02 0 0.23 0.02 0 0.235 0.02 0 0.24 0.02 0 0.245 0.02 0 0.25 0.02 0 0.255 0.02 0 0.26 0.02 0 0.265 0.02 0 0.27 0.02 0 0.275 0.02 0 0.28 0.02 0 0.285 0.02 0 0.29 0.02 0 0.295 0.02 0 0.3 0.02 0 0.305 0.02 0 0.31 0.02 0 0.315 0.02 0 0.32 0.02 0 0.325 0.02 0 0.33 0.02 0 0.335 0.02 0 0.34 0.02 0 0.345 0.02 0 0.35 0.02 0 0.355 0.02 0 0.36 0.02 0 0.365 0.02 0 0.37 0.02 0 0.375 0.02 0 0.38 0.02 0 0.385 0.02 0 0.39 0.02 0 0.395 0.02 0 0.4 0.02 0 0.405 0.02 0 0.41 0.02 0 0.415 0.02 0 0.42 0.02 0 0.425 0.02 0 0.43 0.02 0 0.435 0.02 0 0.44 0.02 0 0.445 0.02 0 0.45 0.02 0 0.455 0.02 0 0.46 0.02 0 0.465 0.02 0 0.47 0.02 0 0.475 0.02 0 0.48 0.02 0 0.485 0.02 0 0.49 0.02 0 0.495 0.02 0 0.5 0.02 0 0.505 0.02 0 0.51 0.02 0 0.515 0.02 0 0.52 0.02 0 0.525 0.02 0 0.53 0.02 0 0.535 0.02 0 0.54 0.02 0 0.545 0.02 0 0.55 0.02 0 0.555 0.02 0 0.56 0.02 0 0.565 0.02 0 0.57 0.02 0 0.575 0.02 0 0.58 0.02 0 0.585 0.02 0 0.59 0.02 0 0.595 0.02 0 0.6 0.02 0 0.605 0.02 0 0.61 0.02 0 0.615 0.02 0 0.62 0.02 0 0.625 0.02 0 0.63 0.02 0 0.635 0.02 0 0.64 0.02 0 0.645 0.02 0 0.65 0.02 0 0.655 0.02 0 0.66 0.02 0 0.665 0.02 0 0.67 0.02 0 0.675 0.02 0 0.68 0.02 0 0.685 0.02 0 0.69 0.02 0 0.695 0.02 0 0.7 0.02 0 0.705 0.02 0 0.71 0.02 0 0.715 0.02 0 0.72 0.02 0 0.725 0.02 0 0.73 0.02 0 0.735 0.02 0 0.74 0.02 0 0.745 0.02 0 0.75 0.02 0 0.755 0.02 0 0.76 0.02 0 0.765 0.02 0 0.77 0.02 0 0.775 0.02 0 0.78 0.02 0 0.785 0.02 0 0.79 0.02 0 0.795 0.02 0 0.8 0.02 0 0.805 0.02 0 0.81 0.02 0 0.815 0.02 0 0.82 0.02 0 0.825 0.02 0 0.83 0.02 0 0.835 0.02 0 0.84 0.02 0 0.845 0.02 0 0.85 0.02 0 0.855 0.02 0 0.86 0.02 0 0.865 0.02 0 0.87 0.02 0 0.875 0.02 0 0.88 0.02 0 0.885 0.02 0 0.89 0.02 0 0.895 0.02 0 0.9 0.02 0 0.905 0.02 0 0.91 0.02 0 0.915 0.02 0 0.92 0.02 0 0.925 0.02 0 0.93 0.02 0 0.935 0.02 0 0.94 0.02 0 0.945 0.02 0 0.95 0.02 0 0.955 0.02 0 0.96 0.02 0 0.965 0.02 0 0.97 0.02 0 0.975 0.02 0 0.98 0.02 0 0.985 0.02 0 0.99 0.02 0 0.995 0.02 0 1 0.02 0 0 0.04 0 0.005 0.04 0 0.01 0.04 0 0.015 0.04 0 0.02 0.04 0 0.025 0.04 0 0.03 0.04 0 0.035 0.04 0 0.04 0.04 0 0.045 0.04 0 0.05 0.04 0 0.055 0.04 0 0.06 0.04 0 0.065 0.04 0 0.07 0.04 0 0.075 0.04 0 0.08 0.04 0 0.085 0.04 0 0.09 0.04 0 0.095 0.04 0 0.1 0.04 0 0.105 0.04 0 0.11 0.04 0 0.115 0.04 0 0.12 0.04 0 0.125 0.04 0 0.13 0.04 0 0.135 0.04 0 0.14 0.04 0 0.145 0.04 0 0.15 0.04 0 0.155 0.04 0 0.16 0.04 0 0.165 0.04 0 0.17 0.04 0 0.175 0.04 0 0.18 0.04 0 0.185 0.04 0 0.19 0.04 0 0.195 0.04 0 0.2 0.04 0 0.205 0.04 0 0.21 0.04 0 0.215 0.04 0 0.22 0.04 0 0.225 0.04 0 0.23 0.04 0 0.235 0.04 0 0.24 0.04 0 0.245 0.04 0 0.25 0.04 0 0.255 0.04 0 0.26 0.04 0 0.265 0.04 0 0.27 0.04 0 0.275 0.04 0 0.28 0.04 0 0.285 0.04 0 0.29 0.04 0 0.295 0.04 0 0.3 0.04 0 0.305 0.04 0 0.31 0.04 0 0.315 0.04 0 0.32 0.04 0 0.325 0.04 0 0.33 0.04 0 0.335 0.04 0 0.34 0.04 0 0.345 0.04 0 0.35 0.04 0 0.355 0.04 0 0.36 0.04 0 0.365 0.04 0 0.37 0.04 0 0.375 0.04 0 0.38 0.04 0 0.385 0.04 0 0.39 0.04 0 0.395 0.04 0 0.4 0.04 0 0.405 0.04 0 0.41 0.04 0 0.415 0.04 0 0.42 0.04 0 0.425 0.04 0 0.43 0.04 0 0.435 0.04 0 0.44 0.04 0 0.445 0.04 0 0.45 0.04 0 0.455 0.04 0 0.46 0.04 0 0.465 0.04 0 0.47 0.04 0 0.475 0.04 0 0.48 0.04 0 0.485 0.04 0 0.49 0.04 0 0.495 0.04 0 0.5 0.04 0 0.505 0.04 0 0.51 0.04 0 0.515 0.04 0 0.52 0.04 0 0.525 0.04 0 0.53 0.04 0 0.535 0.04 0 0.54 0.04 0 0.545 0.04 0 0.55 0.04 0 0.555 0.04 0 0.56 0.04 0 0.565 0.04 0 0.57 0.04 0 0.575 0.04 0 0.58 0.04 0 0.585 0.04 0 0.59 0.04 0 0.595 0.04 0 0.6 0.04 0 0.605 0.04 0 0.61 0.04 0 0.615 0.04 0 0.62 0.04 0 0.625 0.04 0 0.63 0.04 0 0.635 0.04 0 0.64 0.04 0 0.645 0.04 0 0.65 0.04 0 0.655 0.04 0 0.66 0.04 0 0.665 0.04 0 0.67 0.04 0 0.675 0.04 0 0.68 0.04 0 0.685 0.04 0 0.69 0.04 0 0.695 0.04 0 0.7 0.04 0 0.705 0.04 0 0.71 0.04 0 0.715 0.04 0 0.72 0.04 0 0.725 0.04 0 0.73 0.04 0 0.735 0.04 0 0.74 0.04 0 0.745 0.04 0 0.75 0.04 0 0.755 0.04 0 0.76 0.04 0 0.765 0.04 0 0.77 0.04 0 0.775 0.04 0 0.78 0.04 0 0.785 0.04 0 0.79 0.04 0 0.795 0.04 0 0.8 0.04 0 0.805 0.04 0 0.81 0.04 0 0.815 0.04 0 0.82 0.04 0 0.825 0.04 0 0.83 0.04 0 0.835 0.04 0 0.84 0.04 0 0.845 0.04 0 0.85 0.04 0 0.855 0.04 0 0.86 0.04 0 0.865 0.04 0 0.87 0.04 0 0.875 0.04 0 0.88 0.04 0 0.885 0.04 0 0.89 0.04 0 0.895 0.04 0 0.9 0.04 0 0.905 0.04 0 0.91 0.04 0 0.915 0.04 0 0.92 0.04 0 0.925 0.04 0 0.93 0.04 0 0.935 0.04 0 0.94 0.04 0 0.945 0.04 0 0.95 0.04 0 0.955 0.04 0 0.96 0.04 0 0.965 0.04 0 0.97 0.04 0 0.975 0.04 0 0.98 0.04 0 0.985 0.04 0 0.99 0.04 0 0.995 0.04 0 1 0.04 0 0 0.06 0 0.005 0.06 0 0.01 0.06 0 0.015 0.06 0 0.02 0.06 0 0.025 0.06 0 0.03 0.06 0 0.035 0.06 0 0.04 0.06 0 0.045 0.06 0 0.05 0.06 0 0.055 0.06 0 0.06 0.06 0 0.065 0.06 0 0.07 0.06 0 0.075 0.06 0 0.08 0.06 0 0.085 0.06 0 0.09 0.06 0 0.095 0.06 0 0.1 0.06 0 0.105 0.06 0 0.11 0.06 0 0.115 0.06 0 0.12 0.06 0 0.125 0.06 0 0.13 0.06 0 0.135 0.06 0 0.14 0.06 0 0.145 0.06 0 0.15 0.06 0 0.155 0.06 0 0.16 0.06 0 0.165 0.06 0 0.17 0.06 0 0.175 0.06 0 0.18 0.06 0 0.185 0.06 0 0.19 0.06 0 0.195 0.06 0 0.2 0.06 0 0.205 0.06 0 0.21 0.06 0 0.215 0.06 0 0.22 0.06 0 0.225 0.06 0 0.23 0.06 0 0.235 0.06 0 0.24 0.06 0 0.245 0.06 0 0.25 0.06 0 0.255 0.06 0 0.26 0.06 0 0.265 0.06 0 0.27 0.06 0 0.275 0.06 0 0.28 0.06 0 0.285 0.06 0 0.29 0.06 0 0.295 0.06 0 0.3 0.06 0 0.305 0.06 0 0.31 0.06 0 0.315 0.06 0 0.32 0.06 0 0.325 0.06 0 0.33 0.06 0 0.335 0.06 0 0.34 0.06 0 0.345 0.06 0 0.35 0.06 0 0.355 0.06 0 0.36 0.06 0 0.365 0.06 0 0.37 0.06 0 0.375 0.06 0 0.38 0.06 0 0.385 0.06 0 0.39 0.06 0 0.395 0.06 0 0.4 0.06 0 0.405 0.06 0 0.41 0.06 0 0.415 0.06 0 0.42 0.06 0 0.425 0.06 0 0.43 0.06 0 0.435 0.06 0 0.44 0.06 0 0.445 0.06 0 0.45 0.06 0 0.455 0.06 0 0.46 0.06 0 0.465 0.06 0 0.47 0.06 0 0.475 0.06 0 0.48 0.06 0 0.485 0.06 0 0.49 0.06 0 0.495 0.06 0 0.5 0.06 0 0.505 0.06 0 0.51 0.06 0 0.515 0.06 0 0.52 0.06 0 0.525 0.06 0 0.53 0.06 0 0.535 0.06 0 0.54 0.06 0 0.545 0.06 0 0.55 0.06 0 0.555 0.06 0 0.56 0.06 0 0.565 0.06 0 0.57 0.06 0 0.575 0.06 0 0.58 0.06 0 0.585 0.06 0 0.59 0.06 0 0.595 0.06 0 0.6 0.06 0 0.605 0.06 0 0.61 0.06 0 0.615 0.06 0 0.62 0.06 0 0.625 0.06 0 0.63 0.06 0 0.635 0.06 0 0.64 0.06 0 0.645 0.06 0 0.65 0.06 0 0.655 0.06 0 0.66 0.06 0 0.665 0.06 0 0.67 0.06 0 0.675 0.06 0 0.68 0.06 0 0.685 0.06 0 0.69 0.06 0 0.695 0.06 0 0.7 0.06 0 0.705 0.06 0 0.71 0.06 0 0.715 0.06 0 0.72 0.06 0 0.725 0.06 0 0.73 0.06 0 0.735 0.06 0 0.74 0.06 0 0.745 0.06 0 0.75 0.06 0 0.755 0.06 0 0.76 0.06 0 0.765 0.06 0 0.77 0.06 0 0.775 0.06 0 0.78 0.06 0 0.785 0.06 0 0.79 0.06 0 0.795 0.06 0 0.8 0.06 0 0.805 0.06 0 0.81 0.06 0 0.815 0.06 0 0.82 0.06 0 0.825 0.06 0 0.83 0.06 0 0.835 0.06 0 0.84 0.06 0 0.845 0.06 0 0.85 0.06 0 0.855 0.06 0 0.86 0.06 0 0.865 0.06 0 0.87 0.06 0 0.875 0.06 0 0.88 0.06 0 0.885 0.06 0 0.89 0.06 0 0.895 0.06 0 0.9 0.06 0 0.905 0.06 0 0.91 0.06 0 0.915 0.06 0 0.92 0.06 0 0.925 0.06 0 0.93 0.06 0 0.935 0.06 0 0.94 0.06 0 0.945 0.06 0 0.95 0.06 0 0.955 0.06 0 0.96 0.06 0 0.965 0.06 0 0.97 0.06 0 0.975 0.06 0 0.98 0.06 0 0.985 0.06 0 0.99 0.06 0 0.995 0.06 0 1 0.06 0 0 0.08 0 0.005 0.08 0 0.01 0.08 0 0.015 0.08 0 0.02 0.08 0 0.025 0.08 0 0.03 0.08 0 0.035 0.08 0 0.04 0.08 0 0.045 0.08 0 0.05 0.08 0 0.055 0.08 0 0.06 0.08 0 0.065 0.08 0 0.07 0.08 0 0.075 0.08 0 0.08 0.08 0 0.085 0.08 0 0.09 0.08 0 0.095 0.08 0 0.1 0.08 0 0.105 0.08 0 0.11 0.08 0 0.115 0.08 0 0.12 0.08 0 0.125 0.08 0 0.13 0.08 0 0.135 0.08 0 0.14 0.08 0 0.145 0.08 0 0.15 0.08 0 0.155 0.08 0 0.16 0.08 0 0.165 0.08 0
[...]
			<PointData Scalars="VitesseX">
				<DataArray Name="VitesseX" type="Float32" format="ascii">
 0 -3.41486e-16 2.94001e-15 6.00837e-15 -7.32266e-15 2.32552e-14 5.16632e-14 -3.71165e-15 -2.86213e-14 -4.39374e-14 -3.76515e-14 8.99115e-15 4.43865e-14 -5.14046e-14 1.88721e-14 6.83209e-15 -1.00019e-13 -5.4557e-14 -9.89668e-14 3.70166e-14 -6.91548e-14 -1.05549e-13 -1.8509e-13 -5.47743e-14 1.14819e-14 -5.32845e-14 -1.94245e-13 -1.1947e-13 7.05683e-14 -4.27226e-14 -8.79917e-14 -2.14151e-14 -1.31924e-13 -7.7431e-14 2.25589e-14 -1.26227e-13 -1.44762e-13 -2.92856e-13 -7.59161e-14 -1.91152e-13 -8.15181e-14 -7.41508e-14 9.60178e-14 2.10477e-13 -8.8506e-14 -1.41911e-13 -3.32903e-14 1.51419e-13 2.01883e-14 -4.23286e-14 -1.4387e-13 -4.91485e-13 -8.73976e-14 1.70391e-13 5.37774e-14 -3.72174e-14 -1.29856e-13 -3.61495e-14 2.06459e-14 -1.63471e-13 -1.71706e-13 -1.62811e-13 -1.85748e-13 -1.91566e-13 -3.17834e-13 4.79122e-14 1.23509e-12 9.99678e-12 9.8507e-11 9.01585e-10 7.64511e-09 5.93901e-08 4.20768e-07 2.70276e-06 1.56299e-05 8.06862e-05 0.000367939 0.00146273 0.0049874 0.0143146 0.0340055 0.0664888 0.108808 0.155114 0.201786 0.247962 0.293585 0.338641 0.383112 0.426964 0.470149 0.512595 0.554208 0.59486 0.634388 0.672586 0.709201 0.743931 0.776429 0.806314 0.833199 0.856732 0.876648 0.892836 0.905378 0.914567 0.920877 0.924892 0.927211 0.928376 0.92883 0.928866 0.928751 0.928554 0.928307 0.928026 0.927713 0.927336 0.92682 0.926003 0.924577 0.92199 0.917298 0.908991 0.894789 0.87152 0.835193 0.781463 0.706657 0.609438 0.492855 0.365924 0.243144 0.140578 0.0691918 0.0291433 0.010949 0.00385379 0.00131011 0.000435759 0.000142413 4.57722e-05 1.44639e-05 4.49093e-06 1.3692e-06 4.09645e-07 1.20202e-07 3.45767e-08 9.74525e-09 2.69044e-09 7.27784e-10 1.91933e-10 4.97925e-11 1.14818e-11 3.20282e-12 4.0451e-13 4.19743e-13 7.89863e-14 -6.35156e-13 3.51987e-14 -2.77107e-13 6.17636e-13 -3.79198e-13 -2.94141e-13 3.28529e-13 -1.01565e-14 5.94058e-14 -3.109e-13 -7.98194e-13 8.92504e-13 -4.01468e-13 -3.33719e-13 1.70886e-13 -9.24394e-13 3.83223e-13 -8.65939e-13 -3.01057e-13 4.41378e-13 4.2048e-14 4.85595e-13 -6.45738e-13 -2.71169e-13 8.33101e-13 -3.08125e-13 2.72926e-13 -9.08488e-13 -2.63834e-13 6.92237e-13 -5.58588e-13 1.29135e-13 -1.05511e-12 -6.06311e-13 1.26009e-12 -8.38964e-13 -4.48898e-14 -4.87569e-13 -8.95806e-14 1.98116e-12 -9.1464e-13 1.45518e-13 0 0 1.65754e-14 1.073e-14 1.15408e-14 2.90019e-14 9.75275e-15 -2.32482e-14 -9.72624e-15 -7.56241e-15 -1.4042e-14 -2.90892e-14 -3.64961e-14 -3.13928e-14 6.00017e-14 -5.5118e-14 -1.59982e-14 2.45942e-14 -6.21292e-14 -2.26005e-14 -1.23748e-13 -7.36845e-14 -1.07362e-14 1.62918e-14 -1.61655e-13 -1.81421e-13 -7.29286e-14 5.02175e-14 -3.13857e-14 -1.56605e-13 -4.84643e-14 -6.56991e-15 -8.66725e-14 -3.54783e-14 -1.08592e-13 -2.09172e-13 -1.07844e-13 -1.03084e-13 -2.35786e-14 -2.04876e-13 -1.64115e-13 -1.03719e-13 1.58436e-13 5.64098e-14 -1.91678e-13 4.6389e-14 7.8685e-14 5.96664e-14 -5.90272e-14 -1.7851e-13 -2.27429e-13 -2.09456e-13 1.06816e-13 -5.10519e-14 -3.37092e-13 -9.56904e-14 5.33681e-14 6.16708e-15 -1.16844e-13 -9.85338e-14 2.28155e-14 -6.34257e-14 -1.03244e-13 -1.88857e-13 -2.07884e-13 3.84189e-14 7.04075e-14 9.53289e-13 9.9231e-12 9.80296e-11 9.02542e-10 7.64491e-09 5.93895e-08 4.20768e-07 2.70276e-06 1.56299e-05 8.06862e-05 0.000367939 0.00146273 0.0049874 0.0143146 0.0340055 0.0664888 0.108808 0.155114 0.201786 0.247962 0.293585 0.338641 0.383112 0.426964 0.470149 0.512595 0.554208 0.59486 0.634388 0.672586 0.709201 0.743931 0.776429 0.806314 0.833199 0.856732 0.876648 0.892836 0.905378 0.914567 0.920877 0.924892 0.927211 0.928376 0.92883 0.928866 0.928751 0.928554 0.928307 0.928026 0.927713 0.927336 0.92682 0.926003 0.924577 0.92199 0.917298 0.908991 0.894789 0.87152 0.835193 0.781463 0.706657 0.609438 0.492855 0.365924 0.243144 0.140578 0.0691918 0.0291433 0.010949 0.00385379 0.00131011 0.000435759 0.000142413 4.57722e-05 1.44639e-05 4.49093e-06 1.3692e-06 4.09645e-07 1.20203e-07 3.45756e-08 9.74589e-09 2.69069e-09 7.26823e-10 1.92512e-10 4.92594e-11 1.28544e-11 2.52242e-12 7.03039e-13 -6.36949e-13 -1.49444e-13 2.93045e-13 2.22906e-13 1.20375e-13 -6.65189e-13 9.72344e-14 1.95972e-13 -2.70571e-13 -9.50101e-14 -3.17546e-13 2.71613e-14 4.88286e-13 -7.5897e-13 1.22139e-13 -1.57755e-13 -8.54206e-13 2.19162e-13 -7.00442e-13 3.87998e-13 -2.54469e-13 -3.34214e-13 2.36376e-13 -3.76226e-13 5.82521e-13 1.89391e-13 -3.69947e-13 3.8172e-13 -3.43486e-13 3.24565e-13 -6.14285e-14 -5.02626e-13 2.14355e-13 -7.50562e-13 9.29165e-14 -1.44724e-13 -1.16892e-12 7.48662e-13 -6.38963e-14 3.86482e-14 5.10575e-13 -1.15005e-12 1.36212e-12 1.45276e-13 0 0 -4.04498e-15 7.28945e-15 2.27505e-14 -3.04274e-15 8.0905e-15 1.34508e-14 -1.17671e-14 -1.7642e-14 -2.67877e-14 -4.03437e-16 -3.03843e-14 -1.45369e-15 -4.00532e-14 1.08897e-14 5.9409e-15 -1.02393e-14 -4.94375e-14 -2.1367e-14 -1.65123e-15 -1.62181e-14 -7.49286e-14 -9.56584e-14 -2.89202e-14 -3.37787e-14 -4.26888e-14 -1.10445e-13 -3.42432e-14 -6.68599e-14 -7.43527e-15 -1.06157e-13 -1.00417e-13 -1.21466e-13 -1.31001e-13 -1.59904e-13 -1.03135e-13 -2.15844e-13 -1.14214e-13 -1.69712e-14 -2.5621e-14 2.45198e-14 9.28752e-15 -6.63362e-14 -1.04642e-14 1.82788e-14 -2.92563e-15 -4.84385e-14 -1.41699e-13 3.72872e-15 -1.60839e-13 -1.24824e-13 -2.55875e-13 -1.22353e-13 -1.3327e-15 -2.22508e-13 -1.81122e-14 -4.97383e-14 -5.6681e-14 -2.11737e-14 -2.63463e-14 -4.90888e-14 -6.98407e-14 9.99043e-14 -5.86235e-14 -1.06528e-13 2.08721e-14 7.46322e-13 9.95344e-12 9.82452e-11 9.02261e-10 7.64509e-09 5.93896e-08 4.20768e-07 2.70276e-06 1.56299e-05 8.06862e-05 0.000367939 0.00146273 0.0049874 0.0143146 0.0340055 0.0664888 0.108808 0.155114 0.201786 0.247962 0.293585 0.338641 0.383112 0.426964 0.470149 0.512595 0.554208 0.59486 0.634388 0.672586 0.709201 0.743931 0.776429 0.806314 0.833199 0.856732 0.876648 0.892836 0.905378 0.914567 0.920877 0.924892 0.927211 0.928376 0.92883 0.928866 0.928751 0.928554 0.928307 0.928026 0.927713 0.927336 0.92682 0.926003 0.924577 0.92199 0.917298 0.908991 0.894789 0.87152 0.835193 0.781463 0.706657 0.609438 0.492855 0.365924 0.243144 0.140578 0.0691918 0.0291433 0.010949 0.00385379 0.00131011 0.000435759 0.000142413 4.57722e-05 1.44639e-05 4.49093e-06 1.3692e-06 4.09645e-07 1.20203e-07 3.45762e-08 9.74539e-09 2.69029e-09 7.2725e-10 1.922e-10 4.98639e-11 1.24822e-11 3.01465e-12 1.56798e-13 1.47831e-13 -1.1251e-13 2.05716e-13 1.09443e-13 -1.29243e-13 3.19941e-13 -3.80172e-13 -4.03786e-13 -1.49684e-13 -1.89932e-13 -1.25074e-13 5.83307e-14 -2.30063e-13 -1.41736e-13 -2.56415e-13 -3.82076e-13 -1.47056e-13 -4.67775e-13 -7.12664e-14 -2.68179e-13 -1.10816e-13 4.67345e-14 -3.53621e-13 2.44545e-13 9.88628e-14 2.87577e-14 3.98348e-13 -1.79053e-13 2.27136e-13 7.08531e-14 6.80726e-14 -8.64995e-14 -3.5092e-13 -1.8212e-13 -3.92634e-13 -3.82995e-13 3.9319e-14 -1.0721e-13 2.77779e-13 -8.19213e-14 -2.34974e-13 3.62826e-13 -9.46686e-14 7.19926e-13 0 0 -1.64734e-14 -2.10126e-14 -1.4987e-14 -2.51499e-14 -5.19814e-15 6.51866e-15 2.25317e-14 5.58685e-15 6.69373e-15 -2.06805e-14 2.11425e-14 2.69694e-14 -2.24852e-14 4.01271e-15 -2.5766e-14 -4.18705e-14 -1.21596e-14 -3.93474e-14 2.05723e-14 -2.70632e-15 -1.24732e-14 -4.18696e-14 -2.75612e-14 -1.64838e-14 -4.1024e-14 -9.62392e-14 -8.59845e-14 -7.53015e-14 -8.75046e-14 -9.28816e-14 -1.10096e-13 -1.40907e-13 -1.35558e-13 -7.42088e-14 -6.95545e-14 -7.65616e-14 -1.22649e-13 -1.16828e-13 -9.07531e-14 -7.92022e-14 3.46971e-14 2.3069e-14 4.52496e-14 7.03204e-15 2.40688e-14 1.48084e-15 -6.04838e-14 2.22976e-14 -5.48456e-14 -1.49383e-13 -4.23569e-13 -6.69516e-14 -5.53e-14 -2.24296e-14 -9.63249e-14 1.10756e-14 -6.23657e-14 -4.79858e-14 1.59316e-14 -2.00383e-14 -4.1663e-14 -2.17852e-13 -2.81545e-13 -1.23504e-13 1.14513e-13 9.87077e-13 9.90371e-12 9.83312e-11 9.02241e-10 7.64536e-09 5.93896e-08 4.20768e-07 2.70276e-06 1.56299e-05 8.06862e-05 0.000367939 0.00146273 0.0049874 0.0143146 0.0340055 0.0664888 0.108808 0.155114 0.201786 0.247962 0.293585 0.338641 0.383112 0.426964 0.470149 0.512595 0.554208 0.59486 0.634388 0.672586 0.709201 0.743931 0.776429 0.806314 0.833199 0.856732 0.876648 0.892836 0.905378 0.914567 0.920877 0.924892 0.927211 0.928376 0.92883 0.928866 0.928751 0.928554 0.928307 0.928026 0.927713 0.927336 0.92682 0.926003 0.924577 0.92199 0.917298 0.908991 0.894789 0.87152 0.835193 0.781463 0.706657 0.609438 0.492855 0.365924 0.243144 0.140578 0.0691918 0.0291433 0.010949 0.00385379 0.00131011 0.000435759 0.000142413 4.57722e-05 1.44639e-05 4.49093e-06 1.3692e-06 4.09645e-07 1.20203e-07 3.45762e-08 9.74536e-09 2.69055e-09 7.27341e-10 1.92418e-10 4.98752e-11 1.23756e-11 3.22218e-12 6.23715e-13 5.05659e-13 1.66214e-13 -3.54074e-13 -9.56163e-14 -1.34718e-13 5.10726e-13 -3.74276e-14 -2.72255e-13 8.7875e-14 -5.22962e-15 -3.40563e-15 -5.13149e-13 -5.69031e-13 2.36856e-13 -4.04791e-13 -9.77924e-14 -1.20272e-13 -4.60676e-13 -5.21978e-13 -5.95102e-13 -2.4729e-13 1.93242e-14 3.32889e-13 1.38634e-13 -1.54994e-13 -1.25938e-13 3.13845e-13 -3.42462e-14 -1.81928e-13 -5.61276e-14 2.74443e-14 1.55827e-13 -3.253e-13 -3.62919e-13 -1.2107e-13 -6.01236e-13 -9.31479e-14 -2.64899e-13 2.34976e-13 -4.68677e-13 -5.34664e-14 8.30909e-13 -5.65448e-13 -1.93544e-13 0 0 -7.20132e-15 -2.41325e-14 -4.21962e-14 -1.55221e-14 -2.87228e-14 -3.88779e-14 1.1769e-14 2.61754e-14 4.08499e-14 -7.76813e-15 -5.28624e-16 -8.69614e-16 8.67664e-14 -4.6579e-14 -1.91593e-14 3.71842e-14 7.96488e-15 3.10285e-14 -5.98929e-14 -3.35535e-14 9.44245e-14 8.47141e-14 -1.2529e-13 -1.47078e-13 -1.27412e-13 1.70665e-14 -1.43647e-13 -2.08065e-13 -1.54867e-13 -1.32865e-14 -5.68452e-14 3.69276e-15 -5.3258e-14 -1.20349e-13 -9.87189e-14 -2.6736e-14 5.00826e-14 -2.49573e-13 -1.21711e-13 -1.30077e-13 4.35104e-14 1.16644e-13 -1.0121e-13 5.33879e-14 1.34682e-13 1.08404e-13 -5.88572e-14 -1.4036e-13 -9.27341e-14 -1.60805e-13 1.23108e-13 -1.36769e-13 -4.56713e-13 1.19152e-13 6.3592e-14 5.51521e-14 -6.64982e-14 -7.5719e-14 5.90712e-14 -1.22696e-13 -1.50931e-13 -3.73811e-13 -3.64776e-13 3.41679e-14 1.12744e-13 1.13325e-12 9.88721e-12 9.81299e-11 9.02695e-10 7.64513e-09 5.93894e-08 4.20768e-07 2.70276e-06 1.56299e-05 8.06862e-05 0.000367939 0.00146273 0.0049874 0.0143146 0.0340055 0.0664888 0.108808 0.155114 0.201786 0.247962 0.293585 0.338641 0.383112 0.426964 0.470149 0.512595 0.554208 0.59486 0.634388 0.672586 0.709201 0.743931 0.776429 0.806314 0.833199 0.856732 0.876648 0.892836 0.905378 0.914567 0.920877 0.924892 0.927211 0.928376 0.92883 0.928866 0.928751 0.928554 0.928307 0.928026 0.927713 0.927336 0.92682 0.926003 0.924577 0.92199 0.917298 0.908991 0.894789 0.87152 0.835193 0.781463 0.706657 0.609438 0.492855 0.365924 0.243144 0.140578 0.0691918 0.0291433 0.010949 0.00385379 0.00131011 0.000435759 0.000142413 4.57722e-05 1.44639e-05 4.49093e-06 1.3692e-06 4.09645e-07 1.20203e-07 3.45758e-08 9.74588e-09 2.69088e-09 7.26912e-10 1.92717e-10 4.93476e-11 1.30587e-11 3.05902e-12 1.08105e-12 -1.70231e-13 3.78876e-13 2.65994e-13 2.46128e-13 1.79256e-13 -7.4249e-13 3.02925e-13 5.2061e-13 -2.99463e-13 -5.3302e-14 -3.32575e-13 -4.40524e-13 3.48254e-13 -6.04767e-13 2.24549e-13 -4.18303e-14 -7.39529e-13 1.57858e-13 -1.22981e-12 -1.9811e-13 -2.34459e-13 -2.39478e-13 4.403e-13 -3.87007e-13 3.86443e-13 -1.32896e-14 -6.27955e-13 4.58393e-13 -3.25128e-13 4.10173e-13 -1.31673e-13 -4.9564e-13 2.65357e-13 -6.47231e-13 2.71201e-13 -3.7082e-13 -1.29951e-12 5.89611e-13 1.18685e-13 2.34664e-13 6.16022e-13 -1.05895e-12 8.79144e-13 -5.9075e-13 0 0 -2.3038e-14 -1.01809e-14 -2.59908e-14 -5.21563e-14 -2.71187e-14 3.42682e-14 -2.93188e-14 -7.60332e-15 -1.11639e-15 4.55446e-14 -2.21274e-14 4.85868e-14 -3.30114e-14 4.9704e-14 6.39237e-14 -1.15766e-14 1.10755e-14 4.42522e-14 1.2028e-13 -1.59164e-14 -2.01379e-14 -1.55823e-13 1.52372e-14 4.55779e-14 -1.6558e-13 -2.88959e-13 -2.4051e-13 -1.5469e-14 -9.53888e-14 -1.27977e-13 5.75967e-14 -1.46992e-14 4.235e-14 2.88135e-14 -1.75137e-13 -2.70631e-13 -1.28664e-13 3.44034e-14 2.39187e-14 7.32091e-14 -3.54822e-13 3.7677e-14 2.79986e-13 -5.20147e-14 -8.39058e-14 -3.56529e-14 -1.0671e-14 5.93511e-14 1.5076e-14 2.55113e-15 -1.23515e-13 -3.69636e-13 3.90823e-14 8.33061e-14 1.39656e-13 -1.53513e-13 7.59105e-14 1.199e-13 -1.75516e-13 -3.48347e-13 -3.14541e-13 7.98563e-14 -5.95068e-14 -2.92386e-13 -5.4695e-14 1.11351e-12 1.00245e-11 9.85356e-11 9.01932e-10 7.645e-09 5.93897e-08 4.20768e-07 2.70276e-06 1.56299e-05 8.06862e-05 0.000367939 0.00146273 0.0049874 0.0143146 0.0340055 0.0664888 0.108808 0.155114 0.201786 0.247962 0.293585 0.338641 0.383112 0.426964 0.470149 0.512595 0.554208 0.59486 0.634388 0.672586 0.709201 0.743931 0.776429 0.806314 0.833199 0.856732 0.876648 0.892836 0.905378 0.914567 0.920877 0.924892 0.927211 0.928376 0.92883 0.928866 0.928751 0.928554 0.928307 0.928026 0.927713 0.927336 0.92682 0.926003 0.924577 0.92199 0.917298 0.908991 0.894789 0.87152 0.835193 0.781463 0.706657 0.609438 0.492855 0.365924 0.243144 0.140578 0.0691918 0.0291433 0.010949 0.00385379 0.00131011 0.000435759 0.000142413 4.57722e-05 1.44639e-05 4.49093e-06 1.3692e-06 4.09646e-07 1.20202e-07 3.45771e-08 9.74529e-09 2.69029e-09 7.2778e-10 1.91908e-10 4.99462e-11 1.21035e-11 3.86095e-12 2.26705e-13 6.37522e-13 5.78179e-13 4.30322e-13 4.91762e-13 -1.48396e-13 8.14652e-14 -6.53305e-13 9.2072e-14 -2.04372e-13 -2.96146e-13 -2.13989e-13 -1.03311e-13 -4.00321e-13 4.43726e-13 1.00105e-13 -6.70437e-13 3.46672e-13 -1.0612e-12 2.2591e-13 -1.38431e-12 1.19109e-14 6.8567e-13 -9.23124e-13 6.75854e-13 -5.30183e-13 -3.6714e-13 4.86091e-13 -4.44392e-13 1.12777e-12 -4.8331e-13 -3.23067e-13 2.21555e-13 -5.07826e-13 6.97393e-13 -1.24167e-12 -6.2202e-13 1.26385e-12 -8.41687e-13 4.05879e-13 6.77975e-13 -2.41702e-13 1.22721e-12 -9.39026e-13 5.00404e-13 0
				</DataArray>
				<DataArray Name="VitesseY" type="Float32" format="ascii">