<?xml version="1.0"?>
<VTKFile type="PolyData">
	<PolyData>
		<Piece NumberOfPoints="1206" NumberOfPolys="1000">
			<Points>
				<DataArray type="Float32" NumberOfComponents="3" format="ascii">
 0 0 0 0.005 0 0 0.01 0 0 0.015 0 0 0.02 0 0 0.025 0 0 0.03 0 0 0.035 0 0 0.04 0 0 0.045 0 0 0.05 0 0 0.055 0 0 0.06 0 0 0.065 0 0 0.07 0 0 0.075 0 0 0.08 0 0 0.085 0 0 0.09 0 0 0.095 0 0 0.1 0 0 0.105 0 0 0.11 0 0 0.115 0 0 0.12 0 0 0.125 0 0 0.13 0 0 0.135 0 0 0.14 0 0 0.145 0 0 0.15 0 0 0.155 0 0 0.16 0 0 0.165 0 0 0.17 0 0 0.175 0 0 0.18 0 0 0.185 0 0 0.19 0 0 0.195 0 0 0.2 0 0 0.205 0 0 0.21 0 0 0.215 0 0 0.22 0 0 0.225 0 0 0.23 0 0 0.235 0 0 0.24 0 0 0.245 0 0 0.25 0 0 0.255 0 0 0.26 0 0 0.265 0 0 0.27 0 0 0.275 0 0 0.28 0 0 0.285 0 0 0.29 0 0 0.295 0 0 0.3 0 0 0.305 0 0 0.31 0 0 0.315 0 0 0.32 0 0 0.325 0 0 0.33 0 0 0.335 0 0 0.34 0 0 0.345 0 0 0.35 0 0 0.355 0 0 0.36 0 0 0.365 0 0 0.37 0 0 0.375 0 0 0.38 0 0 0.385 0 0 0.39 0 0 0.395 0 0 0.4 0 0 0.405 0 0 0.41 0 0 0.415 0 0 0.42 0 0 0.425 0 0 0.43 0 0 0.435 0 0 0.44 0 0 0.445 0 0 0.45 0 0 0.455 0 0 0.46 0 0 0.465 0 0 0.47 0 0 0.475 0 0 0.48 0 0 0.485 0 0 0.49 0 0 0.495 0 0 0.5 0 0 0.505 0 0 0.51 0 0 0.515 0 0 0.52 0 0 0.525 0 0 0.53 0 0 0.535 0 0 0.54 0 0 0.545 0 0 0.55 0 0 0.555 0 0 0.56 0 0 0.565 0 0 0.57 0 0 0.575 0 0 0.58 0 0 0.585 0 0 0.59 0 0 0.595 0 0 0.6 0 0 0.605 0 0 0.61 0 0 0.615 0 0 0.62 0 0 0.625 0 0 0.63 0 0 0.635 0 0 0.64 0 0 0.645 0 0 0.65 0 0 0.655 0 0 0.66 0 0 0.665 0 0 0.67 0 0 0.675 0 0 0.68 0 0 0.685 0 0 0.69 0 0 0.695 0 0 0.7 0 0 0.705 0 0 0.71 0 0 0.715 0 0 0.72 0 0 0.725 0 0 0.73 0 0 0.735 0 0 0.74 0 0 0.745 0 0 0.75 0 0 0.755 0 0 0.76 0 0 0.765 0 0 0.77 0 0 0.775 0 0 0.78 0 0 0.785 0 0 0.79 0 0 0.795 0 0 0.8 0 0 0.805 0 0 0.81 0 0 0.815 0 0 0.82 0 0 0.825 0 0 0.83 0 0 0.835 0 0 0.84 0 0 0.845 0 0 0.85 0 0 0.855 0 0 0.86 0 0 0.865 0 0 0.87 0 0 0.875 0 0 0.88 0 0 0.885 0 0 0.89 0 0 0.895 0 0 0.9 0 0 0.905 0 0 0.91 0 0 0.915 0 0 0.92 0 0 0.925 0 0 0.93 0 0 0.935 0 0 0.94 0 0 0.945 0 0 0.95 0 0 0.955 0 0 0.96 0 0 0.965 0 0 0.97 0 0 0.975 0 0 0.98 0 0 0.985 0 0 0.99 0 0 0.995 0 0 1 0 0 0 0.02 0 0.005 0.02 0 0.01 0.02 0 0.015 0.02 0 0.02 0.02 0 0.025 0.02 0 0.03 0.02 0 0.035 0.02 0 0.04 0.02 0 0.045 0.02 0 0.05 0.02 0 0.055 0.02 0 0.06 0.02 0 0.065 0.02 0 0.07 0.02 0 0.075 0.02 0 0.08 0.02 0 0.085 0.02 0 0.09 0.02 0 0.095 0.02 0 0.1 0.02 0 0.105 0.02 0 0.11 0.02 0 0.115 0.02 0 0.12 0.02 0 0.125 0.02 0 0.13 0.02 0 0.135 0.02 0 0.14 0.02 0 0.145 0.02 0 0.15 0.02 0 0.155 0.02 0 0.16 0.02 0 0.165 0.02 0 0.17 0.02 0 0.175 0.02 0 0.18 0.02 0 0.185 0.02 0 0.19 0.02 0 0.195 0.02 0 0.2 0.02 0 0.205 0.02 0 0.21 0.02 0 0.215 0.02 0 0.22 0.02 0 0.225 0.02 0 0.23 0.02 0 0.235 0.02 0 0.24 0.02 0 0.245 0.02 0 0.25 0.02 0 0.255 0.02 0 0.26 0.02 0 0.265 0.02 0 0.27 0.02 0 0.275 0.02 0 0.28 0.02 0 0.285 0.02 0 0.29 0.02 0 0.295 0.02 0 0.3 0.02 0 0.305 0.02 0 0.31 0.02 0 0.315 0.02 0 0.32 0.02 0 0.325 0.02 0 0.33 0.02 0 0.335 0.02 0 0.34 0.02 0 0.345 0.02 0 0.35 0.02 0 0.355 0.02 0 0.36 0.02 0 0.365 0.02 0 0.37 0.02 0 0.375 0.02 0 0.38 0.02 0 0.385 0.02 0 0.39 0.02 0 0.395 0.02 0 0.4 0.02 0 0.405 0.02 0 0.41 0.02 0 0.415 0.02 0 0.42 0.02 0 0.425 0.02 0 0.43 0.02 0 0.435 0.02 0 0.44 0.02 0 0.445 0.02 0 0.45 0.02 0 0.455 0.02 0 0.46 0.02 0 0.465 0.02 0 0.47 0.02 0 0.475 0.02 0 0.48 0.02 0 0.485 0.02 0 0.49 0.02 0 0.495 0.02 0 0.5 0.02 0 0.505 0.02 0 0.51 0.02 0 0.515 0.02 0 0.52 0.02 0 0.525 0.02 0 0.53 0.02 0 0.535 0.02 0 0.54 0.02 0 0.545 0.02 0 0.55 0.02 0 0.555 0.02 0 0.56 0.02 0 0.565 0.02 0 0.57 0.02 0 0.575 0.02 0 0.58 0.02 0 0.585 0.02 0 0.59 0.02 0 0.595 0.02 0 0.6 0.02 0 0.605 0.02 0 0.61 0.02 0 0.615 0.02 0 0.62 0.02 0 0.625 0.02 0 0.63 0.02 0 0.635 0.02 0 0.64 0.02 0 0.645 0.02 0 0.65 0.02 0 0.655 0.02 0 0.66 0.02 0 0.665 0.02 0 0.67 0.02 0 0.675 0.02 0 0.68 0.02 0 0.685 0.02 0 0.69 0.02 0 0.695 0.02 0 0.7 0.02 0 0.705 0.02 0 0.71 0.02 0 0.715 0.02 0 0.72 0.02 0 0.725 0.02 0 0.73 0.02 0 0.735 0.02 0 0.74 0.02 0 0.745 0.02 0 0.75 0.02 0 0.755 0.02 0 0.76 0.02 0 0.765 0.02 0 0.77 0.02 0 0.775 0.02 0 0.78 0.02 0 0.785 0.02 0 0.79 0.02 0 0.795 0.02 0 0.8 0.02 0 0.805 0.02 0 0.81 0.02 0 0.815 0.02 0 0.82 0.02 0 0.825 0.02 0 0.83 0.02 0 0.835 0.02 0 0.84 0.02 0 0.845 0.02 0 0.85 0.02 0 0.855 0.02 0 0.86 0.02 0 0.865 0.02 0 0.87 0.02 0 0.875 0.02 0 0.88 0.02 0 0.885 0.02 0 0.89 0.02 0 0.895 0.02 0 0.9 0.02 0 0.905 0.02 0 0.91 0.02 0 0.915 0.02 0 0.92 0.02 0 0.925 0.02 0 0.93 0.02 0 0.935 0.02 0 0.94 0.02 0 0.945 0.02 0 0.95 0.02 0 0.955 0.02 0 0.96 0.02 0 0.965 0.02 0 0.97 0.02 0 0.975 0.02 0 0.98 0.02 0 0.985 0.02 0 0.99 0.02 0 0.995 0.02 0 1 0.02 0 0 0.04 0 0.005 0.04 0 0.01 0.04 0 0.015 0.04 0 0.02 0.04 0 0.025 0.04 0 0.03 0.04 0 0.035 0.04 0 0.04 0.04 0 0.045 0.04 0 0.05 0.04 0 0.055 0.04 0 0.06 0.04 0 0.065 0.04 0 0.07 0.04 0 0.075 0.04 0 0.08 0.04 0 0.085 0.04 0 0.09 0.04 0 0.095 0.04 0 0.1 0.04 0 0.105 0.04 0 0.11 0.04 0 0.115 0.04 0 0.12 0.04 0 0.125 0.04 0 0.13 0.04 0 0.135 0.04 0 0.14 0.04 0 0.145 0.04 0 0.15 0.04 0 0.155 0.04 0 0.16 0.04 0 0.165 0.04 0 0.17 0.04 0 0.175 0.04 0 0.18 0.04 0 0.185 0.04 0 0.19 0.04 0 0.195 0.04 0 0.2 0.04 0 0.205 0.04 0 0.21 0.04 0 0.215 0.04 0 0.22 0.04 0 0.225 0.04 0 0.23 0.04 0 0.235 0.04 0 0.24 0.04 0 0.245 0.04 0 0.25 0.04 0 0.255 0.04 0 0.26 0.04 0 0.265 0.04 0 0.27 0.04 0 0.275 0.04 0 0.28 0.04 0 0.285 0.04 0 0.29 0.04 0 0.295 0.04 0 0.3 0.04 0 0.305 0.04 0 0.31 0.04 0 0.315 0.04 0 0.32 0.04 0 0.325 0.04 0 0.33 0.04 0 0.335 0.04 0 0.34 0.04 0 0.345 0.04 0 0.35 0.04 0 0.355 0.04 0 0.36 0.04 0 0.365 0.04 0 0.37 0.04 0 0.375 0.04 0 0.38 0.04 0 0.385 0.04 0 0.39 0.04 0 0.395 0.04 0 0.4 0.04 0 0.405 0.04 0 0.41 0.04 0 0.415 0.04 0 0.42 0.04 0 0.425 0.04 0 0.43 0.04 0 0.435 0.04 0 0.44 0.04 0 0.445 0.04 0 0.45 0.04 0 0.455 0.04 0 0.46 0.04 0 0.465 0.04 0 0.47 0.04 0 0.475 0.04 0 0.48 0.04 0 0.485 0.04 0 0.49 0.04 0 0.495 0.04 0 0.5 0.04 0 0.505 0.04 0 0.51 0.04 0 0.515 0.04 0 0.52 0.04 0 0.525 0.04 0 0.53 0.04 0 0.535 0.04 0 0.54 0.04 0 0.545 0.04 0 0.55 0.04 0 0.555 0.04 0 0.56 0.04 0 0.565 0.04 0 0.57 0.04 0 0.575 0.04 0 0.58 0.04 0 0.585 0.04 0 0.59 0.04 0 0.595 0.04 0 0.6 0.04 0 0.605 0.04 0 0.61 0.04 0 0.615 0.04 0 0.62 0.04 0 0.625 0.04 0 0.63 0.04 0 0.635 0.04 0 0.64 0.04 0 0.645 0.04 0 0.65 0.04 0 0.655 0.04 0 0.66 0.04 0 0.665 0.04 0 0.67 0.04 0 0.675 0.04 0 0.68 0.04 0 0.685 0.04 0 0.69 0.04 0 0.695 0.04 0 0.7 0.04 0 0.705 0.04 0 0.71 0.04 0 0.715 0.04 0 0.72 0.04 0 0.725 0.04 0 0.73 0.04 0 0.735 0.04 0 0.74 0.04 0 0.745 0.04 0 0.75 0.04 0 0.755 0.04 0 0.76 0.04 0 0.765 0.04 0 0.77 0.04 0 0.775 0.04 0 0.78 0.04 0 0.785 0.04 0 0.79 0.04 0 0.795 0.04 0 0.8 0.04 0 0.805 0.04 0 0.81 0.04 0 0.815 0.04 0 0.82 0.04 0 0.825 0.04 0 0.83 0.04 0 0.835 0.04 0 0.84 0.04 0 0.845 0.04 0 0.85 0.04 0 0.855 0.04 0 0.86 0.04 0 0.865 0.04 0 0.87 0.04 0 0.875 0.04 0 0.88 0.04 0 0.885 0.04 0 0.89 0.04 0 0.895 0.04 0 0.9 0.04 0 0.905 0.04 0 0.91 0.04 0 0.915 0.04 0 0.92 0.04 0 0.925 0.04 0 0.93 0.04 0 0.935 0.04 0 0.94 0.04 0 0.945 0.04 0 0.95 0.04 0 0.955 0.04 0 0.96 0.04 0 0.965 0.04 0 0.97 0.04 0 0.975 0.04 0 0.98 0.04 0 0.985 0.04 0 0.99 0.04 0 0.995 0.04 0 1 0.04 0 0 0.06 0 0.005 0.06 0 0.01 0.06 0 0.015 0.06 0 0.02 0.06 0 0.025 0.06 0 0.03 0.06 0 0.035 0.06 0 0.04 0.06 0 0.045 0.06 0 0.05 0.06 0 0.055 0.06 0 0.06 0.06 0 0.065 0.06 0 0.07 0.06 0 0.075 0.06 0 0.08 0.06 0 0.085 0.06 0 0.09 0.06 0 0.095 0.06 0 0.1 0.06 0 0.105 0.06 0 0.11 0.06 0 0.115 0.06 0 0.12 0.06 0 0.125 0.06 0 0.13 0.06 0 0.135 0.06 0 0.14 0.06 0 0.145 0.06 0 0.15 0.06 0 0.155 0.06 0 0.16 0.06 0 0.165 0.06 0 0.17 0.06 0 0.175 0.06 0 0.18 0.06 0 0.185 0.06 0 0.19 0.06 0 0.195 0.06 0 0.2 0.06 0 0.205 0.06 0 0.21 0.06 0 0.215 0.06 0 0.22 0.06 0 0.225 0.06 0 0.23 0.06 0 0.235 0.06 0 0.24 0.06 0 0.245 0.06 0 0.25 0.06 0 0.255 0.06 0 0.26 0.06 0 0.265 0.06 0 0.27 0.06 0 0.275 0.06 0 0.28 0.06 0 0.285 0.06 0 0.29 0.06 0 0.295 0.06 0 0.3 0.06 0 0.305 0.06 0 0.31 0.06 0 0.315 0.06 0 0.32 0.06 0 0.325 0.06 0 0.33 0.06 0 0.335 0.06 0 0.34 0.06 0 0.345 0.06 0 0.35 0.06 0 0.355 0.06 0 0.36 0.06 0 0.365 0.06 0 0.37 0.06 0 0.375 0.06 0 0.38 0.06 0 0.385 0.06 0 0.39 0.06 0 0.395 0.06 0 0.4 0.06 0 0.405 0.06 0 0.41 0.06 0 0.415 0.06 0 0.42 0.06 0 0.425 0.06 0 0.43 0.06 0 0.435 0.06 0 0.44 0.06 0 0.445 0.06 0 0.45 0.06 0 0.455 0.06 0 0.46 0.06 0 0.465 0.06 0 0.47 0.06 0 0.475 0.06 0 0.48 0.06 0 0.485 0.06 0 0.49 0.06 0 0.495 0.06 0 0.5 0.06 0 0.505 0.06 0 0.51 0.06 0 0.515 0.06 0 0.52 0.06 0 0.525 0.06 0 0.53 0.06 0 0.535 0.06 0 0.54 0.06 0 0.545 0.06 0 0.55 0.06 0 0.555 0.06 0 0.56 0.06 0 0.565 0.06 0 0.57 0.06 0 0.575 0.06 0 0.58 0.06 0 0.585 0.06 0 0.59 0.06 0 0.595 0.06 0 0.6 0.06 0 0.605 0.06 0 0.61 0.06 0 0.615 0.06 0 0.62 0.06 0 0.625 0.06 0 0.63 0.06 0 0.635 0.06 0 0.64 0.06 0 0.645 0.06 0 0.65 0.06 0 0.655 0.06 0 0.66 0.06 0 0.665 0.06 0 0.67 0.06 0 0.675 0.06 0 0.68 0.06 0 0.685 0.06 0 0.69 0.06 0 0.695 0.06 0 0.7 0.06 0 0.705 0.06 0 0.71 0.06 0 0.715 0.06 0 0.72 0.06 0 0.725 0.06 0 0.73 0.06 0 0.735 0.06 0 0.74 0.06 0 0.745 0.06 0 0.75 0.06 0 0.755 0.06 0 0.76 0.06 0 0.765 0.06 0 0.77 0.06 0 0.775 0.06 0 0.78 0.06 0 0.785 0.06 0 0.79 0.06 0 0.795 0.06 0 0.8 0.06 0 0.805 0.06 0 0.81 0.06 0 0.815 0.06 0 0.82 0.06 0 0.825 0.06 0 0.83 0.06 0 0.835 0.06 0 0.84 0.06 0 0.845 0.06 0 0.85 0.06 0 0.855 0.06 0 0.86 0.06 0 0.865 0.06 0 0.87 0.06 0 0.875 0.06 0 0.88 0.06 0 0.885 0.06 0 0.89 0.06 0 0.895 0.06 0 0.9 0.06 0 0.905 0.06 0 0.91 0.06 0 0.915 0.06 0 0.92 0.06 0 0.925 0.06 0 0.93 0.06 0 0.935 0.06 0 0.94 0.06 0 0.945 0.06 0 0.95 0.06 0 0.955 0.06 0 0.96 0.06 0 0.965 0.06 0 0.97 0.06 0 0.975 0.06 0 0.98 0.06 0 0.985 0.06 0 0.99 0.06 0 0.995 0.06 0 1 0.06 0 0 0.08 0 0.005 0.08 0 0.01 0.08 0 0.015 0.08 0 0.02 0.08 0 0.025 0.08 0 0.03 0.08 0 0.035 0.08 0 0.04 0.08 0 0.045 0.08 0 0.05 0.08 0 0.055 0.08 0 0.06 0.08 0 0.065 0.08 0 0.07 0.08 0 0.075 0.08 0 0.08 0.08 0 0.085 0.08 0 0.09 0.08 0 0.095 0.08 0 0.1 0.08 0 0.105 0.08 0 0.11 0.08 0 0.115 0.08 0 0.12 0.08 0 0.125 0.08 0 0.13 0.08 0 0.135 0.08 0 0.14 0.08 0 0.145 0.08 0 0.15 0.08 0 0.155 0.08 0 0.16 0.08 0 0.165 0.08 0
[...]
			<PointData Scalars="VitesseX">
				<DataArray Name="VitesseX" type="Float32" format="ascii">
 0 6.94126e-15 -3.84188e-17 1.25114e-14 1.12491e-14 -2.61879e-14 -7.54959e-14 2.45214e-15 -1.57452e-14 5.09115e-14 -6.80318e-15 -9.45736e-14 -3.96204e-14 -4.12836e-14 -1.05147e-13 -9.64708e-14 2.06943e-14 8.34262e-14 -7.42549e-14 -1.45445e-13 -1.07788e-13 -1.71651e-14 -3.70676e-15 -1.19927e-13 -2.03008e-13 -1.11642e-13 1.26504e-13 8.33201e-15 -2.33234e-13 -7.29676e-14 1.74073e-15 9.85577e-14 1.99619e-14 -1.0448e-13 -1.54827e-13 -6.42019e-14 4.58238e-14 4.4856e-14 -1.82213e-13 -2.7724e-13 -2.4957e-13 -1.24301e-13 -1.79585e-13 -5.3834e-13 -7.83194e-14 1.32469e-13 2.82253e-13 -2.10667e-13 -2.82603e-13 -8.47896e-14 2.26253e-13 4.64073e-13 -4.4653e-14 -3.36144e-13 -3.78002e-13 -1.19548e-13 -7.02135e-15 -2.12937e-13 2.70213e-14 -8.08357e-14 3.43836e-14 9.57268e-14 7.17609e-14 7.05751e-14 9.88287e-14 -1.77929e-13 -4.13868e-13 -4.49487e-13 -1.88162e-13 2.01568e-13 -2.84281e-13 2.62783e-14 7.37993e-13 9.94517e-12 1.20511e-10 1.35181e-09 1.38064e-08 1.27079e-07 1.04664e-06 7.64985e-06 4.91213e-05 0.000273649 0.00130155 0.00517792 0.0168095 0.0434848 0.0888454 0.146861 0.207994 0.268163 0.32705 0.384681 0.441008 0.495936 0.549304 0.600875 0.650319 0.69721 0.74102 0.781135 0.816902 0.84771 0.873111 0.892952 0.907474 0.917315 0.923401 0.926761 0.928324 0.928834 0.928811 0.928553 0.928038 0.927051 0.925092 0.921194 0.913679 0.899917 0.876188 0.837862 0.780076 0.699061 0.594109 0.469836 0.337583 0.214062 0.116053 0.0526823 0.0203491 0.00704452 0.00229322 0.00071953 0.000219558 6.5311e-05 1.89423e-05 5.35403e-06 1.47394e-06 3.95004e-07 1.03004e-07 2.6126e-08 6.44454e-09 1.54548e-09 3.59496e-10 8.2105e-11 1.84443e-11 3.48936e-12 1.03035e-12 -7.33181e-13 2.11929e-13 5.16376e-13 -1.18753e-12 -2.99985e-15 -4.67166e-13 1.16603e-12 -3.92416e-13 1.48264e-13 -1.01669e-12 2.5774e-13 1.11129e-12 1.67731e-13 -2.12651e-13 -1.69944e-12 7.16318e-13 8.81151e-13 -4.18496e-14 -3.42559e-13 -8.34085e-13 3.54104e-13 9.40245e-13 -8.90501e-13 4.17518e-13 3.79424e-13 -5.7681e-13 2.25767e-13 -1.10356e-12 7.25745e-13 3.50312e-13 -9.50044e-13 -6.39258e-13 -8.62725e-13 7.4735e-13 9.14746e-13 -8.56414e-13 -3.22895e-13 -4.02617e-13 1.18949e-12 5.0709e-13 -1.33104e-12 -4.20054e-13 -5.26546e-13 1.00784e-12 -9.92816e-14 -2.21163e-12 1.64661e-13 6.22491e-13 4.37738e-13 -9.62241e-13 -2.29956e-12 1.24797e-12 1.34904e-12 0 0 -8.15571e-15 -3.47442e-16 -7.22012e-15 -1.39281e-14 1.0061e-14 4.17244e-14 -1.9746e-14 -4.57529e-15 -3.62465e-14 -2.60243e-14 3.00952e-15 -4.84855e-14 -8.0513e-14 -6.42562e-14 -4.53503e-14 -6.43246e-14 -8.54367e-14 6.81728e-15 1.8036e-14 -7.81033e-14 -1.31541e-13 -1.24959e-13 -4.54359e-14 3.55007e-14 -5.88199e-14 -2.03882e-13 -1.12114e-13 9.33112e-14 -2.3306e-14 -1.00275e-14 -4.43998e-14 -6.32318e-14 1.86412e-14 8.55802e-14 -5.07758e-14 -1.52122e-13 -1.84083e-13 -7.30667e-14 -1.07063e-13 -2.08723e-13 -2.28827e-13 -2.18489e-13 -8.11432e-15 -1.89083e-13 -1.48306e-13 -8.22835e-14 1.72e-13 1.66489e-13 2.53165e-13 4.32148e-14 -3.01161e-13 -4.84249e-14 -1.74044e-14 -1.7991e-14 -1.82253e-13 -2.53012e-13 -4.45865e-15 -1.13466e-13 -6.0391e-14 -1.06066e-13 -7.17412e-15 1.891e-13 -1.75106e-14 -1.5437e-13 -3.10612e-13 -1.58379e-13 -2.98408e-15 -6.95704e-14 -4.25148e-13 4.86758e-14 2.99247e-13 1.21588e-12 9.6816e-12 1.20005e-10 1.35193e-09 1.38067e-08 1.2708e-07 1.04664e-06 7.64985e-06 4.91213e-05 0.000273649 0.00130155 0.00517792 0.0168095 0.0434848 0.0888454 0.146861 0.207994 0.268163 0.32705 0.384681 0.441008 0.495936 0.549304 0.600875 0.650319 0.69721 0.74102 0.781135 0.816902 0.84771 0.873111 0.892952 0.907474 0.917315 0.923401 0.926761 0.928324 0.928834 0.928811 0.928553 0.928038 0.927051 0.925092 0.921194 0.913679 0.899917 0.876188 0.837862 0.780076 0.699061 0.594109 0.469836 0.337583 0.214062 0.116053 0.0526823 0.0203491 0.00704452 0.00229322 0.00071953 0.000219558 6.5311e-05 1.89423e-05 5.35403e-06 1.47394e-06 3.95003e-07 1.03003e-07 2.61268e-08 6.44419e-09 1.54544e-09 3.60947e-10 8.11439e-11 1.75836e-11 4.14497e-12 6.47757e-13 9.10076e-13 -7.32685e-13 -6.40997e-13 5.10638e-13 -3.59892e-13 2.59522e-13 -1.03207e-12 3.37416e-13 -1.16151e-13 6.78967e-13 2.39272e-14 -8.54519e-13 -3.27089e-13 -3.0493e-14 1.05821e-12 -3.89801e-13 -7.80194e-13 -2.49147e-13 2.80596e-13 4.4927e-13 1.60068e-14 -4.69023e-13 6.4512e-13 -5.12143e-13 2.78475e-14 7.09602e-13 -4.61382e-13 3.26143e-13 -1.01546e-12 -4.08749e-13 3.77666e-13 -3.12526e-13 1.18331e-14 -7.8846e-13 -4.26021e-13 8.65865e-13 -8.15696e-14 3.14984e-13 -7.84752e-13 -6.83906e-14 8.52936e-13 -1.77546e-13 4.80802e-14 -1.23957e-12 -3.35921e-13 1.45591e-12 -1.12048e-12 -9.241e-13 -8.70303e-13 1.26729e-13 1.35863e-12 -1.34536e-12 -8.79607e-13 0 0 1.64116e-14 1.44624e-14 1.50979e-14 1.39405e-14 1.45378e-14 6.67128e-15 3.3615e-14 1.52368e-14 -3.54024e-15 -2.78035e-14 -5.13257e-14 -2.78645e-14 -3.97708e-14 -8.73754e-14 -3.92952e-14 -6.1208e-14 -5.68881e-14 -2.88076e-14 -8.34615e-14 -8.6492e-14 -1.7238e-14 -3.66281e-14 -1.02956e-13 -7.50701e-14 -5.82639e-14 7.71705e-15 -1.83474e-14 -1.55874e-13 2.72419e-14 -3.14494e-14 -3.90701e-14 3.20354e-14 1.28335e-14 -1.07644e-13 -3.69283e-15 1.22224e-14 -6.85998e-14 -2.00647e-13 -2.05899e-13 -1.93161e-13 -7.90111e-14 -6.81308e-14 -1.7484e-13 -1.35093e-14 4.53495e-14 2.57106e-14 1.09808e-13 7.31982e-14 -1.66237e-13 -1.2062e-13 9.97515e-14 2.16561e-14 -6.62532e-14 -1.27571e-13 -7.52781e-14 -1.44234e-13 -2.62381e-13 -6.70264e-14 -1.71382e-14 2.262e-14 -4.63234e-14 -1.93022e-13 -1.18567e-13 -1.07445e-13 3.99594e-14 6.13877e-14 -7.71026e-14 -3.83675e-13 1.68563e-14 2.67166e-14 2.22047e-13 9.59065e-13 1.02288e-11 1.20248e-10 1.35197e-09 1.3806e-08 1.2708e-07 1.04664e-06 7.64985e-06 4.91213e-05 0.000273649 0.00130155 0.00517792 0.0168095 0.0434848 0.0888454 0.146861 0.207994 0.268163 0.32705 0.384681 0.441008 0.495936 0.549304 0.600875 0.650319 0.69721 0.74102 0.781135 0.816902 0.84771 0.873111 0.892952 0.907474 0.917315 0.923401 0.926761 0.928324 0.928834 0.928811 0.928553 0.928038 0.927051 0.925092 0.921194 0.913679 0.899917 0.876188 0.837862 0.780076 0.699061 0.594109 0.469836 0.337583 0.214062 0.116053 0.0526823 0.0203491 0.00704452 0.00229322 0.00071953 0.000219558 6.5311e-05 1.89423e-05 5.35403e-06 1.47394e-06 3.95003e-07 1.03003e-07 2.61266e-08 6.44457e-09 1.54578e-09 3.60112e-10 8.18595e-11 1.79523e-11 3.6064e-12 8.40667e-13 -4.06087e-13 4.68867e-13 3.2005e-13 -1.42292e-13 -2.20632e-13 -8.18281e-13 -3.16537e-13 -1.05787e-13 3.98102e-13 -3.53655e-13 -2.98155e-13 -3.51097e-14 -1.1647e-13 -3.81164e-13 -7.36522e-13 7.97389e-14 3.14115e-13 -5.3018e-14 1.12968e-13 -5.97454e-13 -2.32679e-13 4.1518e-13 -3.09555e-14 5.33958e-13 9.95358e-14 -2.53486e-13 9.32182e-15 -5.01774e-13 -6.66122e-14 -4.95616e-13 -2.05247e-13 1.39258e-13 -4.4635e-13 2.39722e-14 -8.80817e-14 -5.03186e-15 4.22209e-13 -1.69257e-13 -1.14613e-13 9.54783e-14 1.29031e-13 5.74006e-13 -3.30201e-13 -2.25397e-13 -1.61858e-13 -8.44733e-13 2.23798e-13 3.07374e-14 -7.47115e-13 -5.26186e-13 -6.80977e-13 7.38017e-13 -3.32209e-14 0 0 2.65108e-14 5.61114e-14 5.60034e-14 4.84768e-14 2.68931e-14 -2.06732e-15 1.41829e-14 -2.49324e-14 -2.49336e-15 1.02948e-14 -3.51646e-14 -2.19093e-14 -5.35198e-14 -5.32055e-14 -1.99619e-14 -1.27042e-15 -4.91139e-14 -8.89809e-14 -1.09692e-13 -8.40384e-14 2.32076e-15 -4.74416e-14 -7.87767e-14 -4.44129e-14 -2.77825e-14 6.27875e-14 -2.34186e-14 -1.15112e-13 -6.92584e-15 -7.77437e-14 -2.27119e-14 -6.50666e-14 -8.65822e-14 -9.52918e-14 -1.08893e-13 -6.99676e-14 -1.6851e-14 -1.4939e-13 -8.59135e-14 -8.76059e-14 -7.04451e-14 -1.03573e-13 -1.97069e-13 4.13968e-14 1.39037e-13 3.9904e-14 -7.33573e-14 -2.10064e-13 -1.55104e-13 -2.7122e-14 1.68321e-13 2.94087e-14 -2.8793e-13 -2.16146e-13 -1.22763e-13 -1.0636e-13 -9.66414e-14 -1.09626e-13 -7.70616e-14 9.84346e-14 2.91274e-14 7.03643e-14 1.48666e-13 -7.09238e-14 -3.85565e-14 -2.36669e-13 -2.68913e-13 -2.60133e-13 -1.4527e-14 -1.65067e-13 9.95634e-14 1.03285e-12 1.03053e-11 1.2049e-10 1.35191e-09 1.38066e-08 1.27079e-07 1.04664e-06 7.64985e-06 4.91213e-05 0.000273649 0.00130155 0.00517792 0.0168095 0.0434848 0.0888454 0.146861 0.207994 0.268163 0.32705 0.384681 0.441008 0.495936 0.549304 0.600875 0.650319 0.69721 0.74102 0.781135 0.816902 0.84771 0.873111 0.892952 0.907474 0.917315 0.923401 0.926761 0.928324 0.928834 0.928811 0.928553 0.928038 0.927051 0.925092 0.921194 0.913679 0.899917 0.876188 0.837862 0.780076 0.699061 0.594109 0.469836 0.337583 0.214062 0.116053 0.0526823 0.0203491 0.00704452 0.00229322 0.00071953 0.000219558 6.5311e-05 1.89423e-05 5.35403e-06 1.47394e-06 3.95004e-07 1.03004e-07 2.61265e-08 6.44446e-09 1.54565e-09 3.60384e-10 8.18852e-11 1.81754e-11 3.81096e-12 5.61268e-13 -4.63715e-13 2.85739e-13 4.07066e-13 -3.12068e-13 -3.66177e-13 -5.07083e-13 4.4576e-13 -2.60724e-13 -3.03843e-13 -8.16393e-13 -1.94269e-13 5.89278e-13 1.37955e-13 -2.32066e-13 -1.13995e-12 -3.85664e-14 2.8664e-13 1.38793e-13 -1.55257e-13 -3.65794e-13 -1.17269e-13 6.45275e-13 -3.21628e-13 6.78642e-15 -1.99777e-13 -4.68415e-13 -2.7811e-13 -4.34935e-13 3.77269e-13 1.67387e-13 -6.73952e-13 -7.9604e-13 -1.61106e-13 3.40794e-13 6.38677e-13 -1.46755e-13 1.21377e-13 -3.34453e-13 3.84019e-13 1.79301e-13 -4.57343e-13 1.12136e-13 4.05313e-14 -1.83743e-15 -2.11148e-13 -9.87828e-13 1.38401e-13 3.77548e-13 -2.15483e-13 -9.09687e-13 -1.1895e-12 1.02387e-12 1.07487e-12 0 0 2.91157e-14 6.05968e-14 5.20579e-14 4.15615e-14 4.75788e-14 5.72815e-14 -1.265e-14 -2.27453e-14 -4.07002e-14 -1.43674e-14 2.86734e-14 -2.61665e-14 -6.43689e-14 1.49873e-14 -2.68916e-14 -1.58137e-14 -8.78917e-14 -4.24667e-14 2.48785e-14 -7.67905e-14 -1.21597e-13 -1.32698e-13 1.51165e-14 1.13815e-13 8.8563e-14 -1.3287e-13 -6.47636e-14 1.58053e-13 -8.82948e-14 -3.94219e-14 -1.73823e-13 -2.47994e-13 -1.23009e-13 8.58482e-14 -1.16207e-13 -1.4836e-13 -1.70919e-13 -6.33294e-14 3.32711e-14 -2.65113e-14 -1.81065e-13 -1.71194e-13 1.20487e-13 -1.05863e-13 2.38567e-15 -9.28245e-14 9.04802e-14 8.65761e-14 1.96718e-13 3.5844e-14 -3.89005e-13 -5.01085e-14 -1.59309e-13 -7.1739e-14 -2.9482e-13 -3.05011e-13 -3.33246e-14 -2.20715e-13 -1.1667e-13 1.06729e-13 1.86083e-13 3.08677e-13 1.58937e-13 -1.55754e-13 -4.60544e-13 -2.21971e-13 -2.55354e-13 -4.51092e-14 -4.01653e-13 8.32574e-14 3.92149e-13 1.37825e-12 1.00458e-11 1.20272e-10 1.35174e-09 1.38071e-08 1.27079e-07 1.04664e-06 7.64985e-06 4.91213e-05 0.000273649 0.00130155 0.00517792 0.0168095 0.0434848 0.0888454 0.146861 0.207994 0.268163 0.32705 0.384681 0.441008 0.495936 0.549304 0.600875 0.650319 0.69721 0.74102 0.781135 0.816902 0.84771 0.873111 0.892952 0.907474 0.917315 0.923401 0.926761 0.928324 0.928834 0.928811 0.928553 0.928038 0.927051 0.925092 0.921194 0.913679 0.899917 0.876188 0.837862 0.780076 0.699061 0.594109 0.469836 0.337583 0.214062 0.116053 0.0526823 0.0203491 0.00704452 0.00229322 0.00071953 0.000219558 6.5311e-05 1.89423e-05 5.35403e-06 1.47394e-06 3.95004e-07 1.03003e-07 2.61269e-08 6.44419e-09 1.54548e-09 3.61158e-10 8.11267e-11 1.78418e-11 4.262e-12 6.29482e-13 5.45033e-13 -8.29475e-13 -7.19812e-13 4.75439e-13 -6.08144e-13 4.88345e-13 -6.64887e-13 1.09219e-13 -6.49442e-13 4.89021e-13 3.30881e-13 -4.50437e-13 1.44235e-13 8.77548e-14 8.00277e-13 -5.24228e-13 -1.10784e-12 -4.3709e-13 2.61569e-13 9.49975e-13 6.95776e-14 -3.77186e-13 4.7156e-13 -7.82028e-13 -5.58365e-13 4.49623e-13 -8.24567e-13 2.92312e-13 -8.44605e-13 -1.66068e-13 -2.45371e-13 -1.03364e-12 8.44925e-14 -5.99303e-13 3.39356e-13 1.11032e-12 1.4306e-13 1.90516e-13 -6.10871e-13 -2.14547e-13 6.12712e-13 -3.6903e-13 2.49566e-13 -1.08344e-12 -1.89342e-13 1.41298e-12 -8.00305e-13 -8.95192e-13 -8.18425e-13 6.20274e-14 1.11557e-12 -1.03801e-12 -3.33006e-13 0 0 6.12857e-14 3.85522e-14 4.92566e-14 5.31558e-14 2.41369e-14 -2.69045e-14 5.55084e-14 2.82533e-14 3.99103e-14 -5.96861e-14 -7.55681e-14 -6.89301e-15 1.85025e-14 -1.50002e-14 -9.82201e-14 -2.15899e-15 6.29677e-14 -5.24762e-14 -7.92993e-14 -1.10069e-13 -3.63928e-14 2.44093e-15 -4.7182e-14 -1.07693e-13 1.22161e-13 1.58387e-13 1.13176e-13 -1.85275e-13 -1.3461e-13 3.55403e-14 -1.93005e-13 -1.55359e-13 -1.88949e-13 -1.78996e-13 1.53348e-14 2.17728e-13 -3.23132e-14 -2.65254e-13 -2.36542e-13 -9.62572e-14 -4.59098e-14 -1.41094e-14 -2.36681e-13 -2.16914e-14 2.46479e-13 2.32784e-13 -7.37498e-15 1.24094e-13 -2.1995e-13 2.45158e-14 1.51248e-13 -6.35252e-14 -1.766e-13 -3.08347e-13 -2.49712e-13 -1.86768e-13 -6.02149e-13 -1.02277e-13 -7.35479e-14 3.08344e-13 3.31339e-13 -2.15858e-13 -1.10995e-13 2.30179e-14 -3.20763e-13 5.5061e-14 -5.70607e-13 -3.86324e-13 3.11325e-13 1.6845e-13 4.57051e-13 9.15158e-13 1.05206e-11 1.20561e-10 1.35156e-09 1.3806e-08 1.2708e-07 1.04664e-06 7.64985e-06 4.91213e-05 0.000273649 0.00130155 0.00517792 0.0168095 0.0434848 0.0888454 0.146861 0.207994 0.268163 0.32705 0.384681 0.441008 0.495936 0.549304 0.600875 0.650319 0.69721 0.74102 0.781135 0.816902 0.84771 0.873111 0.892952 0.907474 0.917315 0.923401 0.926761 0.928324 0.928834 0.928811 0.928553 0.928038 0.927051 0.925092 0.921194 0.913679 0.899917 0.876188 0.837862 0.780076 0.699061 0.594109 0.469836 0.337583 0.214062 0.116053 0.0526823 0.0203491 0.00704452 0.00229322 0.00071953 0.000219558 6.5311e-05 1.89423e-05 5.35403e-06 1.47394e-06 3.95004e-07 1.03004e-07 2.61263e-08 6.44475e-09 1.54582e-09 3.59372e-10 8.20193e-11 1.85144e-11 3.31429e-12 1.5526e-12 -1.34801e-12 3.84605e-13 1.84714e-13 -9.18375e-13 -2.08413e-13 -6.31916e-13 3.75805e-13 -5.38938e-13 4.85573e-13 -4.71106e-13 6.63877e-13 6.70675e-13 6.01529e-13 -2.74353e-13 -1.40845e-12 6.84075e-13 2.808e-13 -8.01358e-13 1.55836e-13 -2.95995e-13 2.30425e-13 6.63727e-13 -6.56275e-13 9.32091e-13 -1.94375e-13 -6.66911e-13 7.42609e-14 -1.3049e-12 1.79683e-13 -4.90333e-13 -1.25871e-12 -2.1089e-13 -1.2879e-12 4.92021e-13 9.91983e-13 -8.4061e-14 7.28028e-13 -3.21161e-13 5.39986e-13 4.71322e-14 -6.38745e-13 1.20717e-13 -8.65041e-13 8.72991e-13 2.92456e-13 -2.0113e-12 9.75809e-13 -1.33162e-14 -5.2177e-13 -3.24642e-13 -1.76863e-12 1.29096e-12 2.26066e-13 0
				</DataArray>
				<DataArray Name="VitesseY" type="Float32" format="ascii">