<?xml version="1.0"?>
<VTKFile type="PolyData">
	<PolyData>
		<Piece NumberOfPoints="1206" NumberOfPolys="1000">
			<Points>
				<DataArray type="Float32" NumberOfComponents="3" format="ascii">
 0 0 0 0.005 0 0 0.01 0 0 0.015 0 0 0.02 0 0 0.025 0 0 0.03 0 0 0.035 0 0 0.04 0 0 0.045 0 0 0.05 0 0 0.055 0 0 0.06 0 0 0.065 0 0 0.07 0 0 0.075 0 0 0.08 0 0 0.085 0 0 0.09 0 0 0.095 0 0 0.1 0 0 0.105 0 0 0.11 0 0 0.115 0 0 0.12 0 0 0.125 0 0 0.13 0 0 0.135 0 0 0.14 0 0 0.145 0 0 0.15 0 0 0.155 0 0 0.16 0 0 0.165 0 0 0.17 0 0 0.175 0 0 0.18 0 0 0.185 0 0 0.19 0 0 0.195 0 0 0.2 0 0 0.205 0 0 0.21 0 0 0.215 0 0 0.22 0 0 0.225 0 0 0.23 0 0 0.235 0 0 0.24 0 0 0.245 0 0 0.25 0 0 0.255 0 0 0.26 0 0 0.265 0 0 0.27 0 0 0.275 0 0 0.28 0 0 0.285 0 0 0.29 0 0 0.295 0 0 0.3 0 0 0.305 0 0 0.31 0 0 0.315 0 0 0.32 0 0 0.325 0 0 0.33 0 0 0.335 0 0 0.34 0 0 0.345 0 0 0.35 0 0 0.355 0 0 0.36 0 0 0.365 0 0 0.37 0 0 0.375 0 0 0.38 0 0 0.385 0 0 0.39 0 0 0.395 0 0 0.4 0 0 0.405 0 0 0.41 0 0 0.415 0 0 0.42 0 0 0.425 0 0 0.43 0 0 0.435 0 0 0.44 0 0 0.445 0 0 0.450003 0 0 0.455019 0 0 0.460094 0 0 0.465343 0 0 0.470972 0 0 0.47724 0 0 0.484458 0 0 0.493056 0 0 0.503649 0 0 0.516395 0 0 0.52901 0 0 0.531359 0 0 0.533712 0 0 0.53607 0 0 0.538427 0 0 0.54075 0 0 0.543064 0 0 0.545506 0 0 0.54814 0 0 0.550958 0 0 0.554072 0 0 0.557545 0 0 0.561406 0 0 0.565672 0 0 0.570269 0 0 0.57509 0 0 0.580026 0 0 0.585007 0 0 0.590002 0 0 0.595 0 0 0.6 0 0 0.605 0 0 0.61 0 0 0.615 0 0 0.62 0 0 0.625 0 0 0.63 0 0 0.635 0 0 0.64 0 0 0.645 0 0 0.65 0 0 0.655 0 0 0.66 0 0 0.665 0 0 0.67 0 0 0.675 0 0 0.68 0 0 0.685 0 0 0.69 0 0 0.695 0 0 0.7 0 0 0.705 0 0 0.71 0 0 0.715 0 0 0.72 0 0 0.725 0 0 0.73 0 0 0.735 0 0 0.74 0 0 0.745 0 0 0.75 0 0 0.755 0 0 0.76 0 0 0.765 0 0 0.77 0 0 0.775 0 0 0.78 0 0 0.785 0 0 0.79 0 0 0.795 0 0 0.8 0 0 0.805 0 0 0.81 0 0 0.815 0 0 0.82 0 0 0.825 0 0 0.83 0 0 0.835 0 0 0.84 0 0 0.845 0 0 0.85 0 0 0.855 0 0 0.86 0 0 0.865 0 0 0.87 0 0 0.875 0 0 0.88 0 0 0.885 0 0 0.89 0 0 0.895 0 0 0.9 0 0 0.905 0 0 0.91 0 0 0.915 0 0 0.92 0 0 0.925 0 0 0.93 0 0 0.935 0 0 0.94 0 0 0.945 0 0 0.95 0 0 0.955 0 0 0.96 0 0 0.965 0 0 0.97 0 0 0.975 0 0 0.98 0 0 0.985 0 0 0.99 0 0 0.995 0 0 1 0 0 0 0.02 0 0.005 0.02 0 0.01 0.02 0 0.015 0.02 0 0.02 0.02 0 0.025 0.02 0 0.03 0.02 0 0.035 0.02 0 0.04 0.02 0 0.045 0.02 0 0.05 0.02 0 0.055 0.02 0 0.06 0.02 0 0.065 0.02 0 0.07 0.02 0 0.075 0.02 0 0.08 0.02 0 0.085 0.02 0 0.09 0.02 0 0.095 0.02 0 0.1 0.02 0 0.105 0.02 0 0.11 0.02 0 0.115 0.02 0 0.12 0.02 0 0.125 0.02 0 0.13 0.02 0 0.135 0.02 0 0.14 0.02 0 0.145 0.02 0 0.15 0.02 0 0.155 0.02 0 0.16 0.02 0 0.165 0.02 0 0.17 0.02 0 0.175 0.02 0 0.18 0.02 0 0.185 0.02 0 0.19 0.02 0 0.195 0.02 0 0.2 0.02 0 0.205 0.02 0 0.21 0.02 0 0.215 0.02 0 0.22 0.02 0 0.225 0.02 0 0.23 0.02 0 0.235 0.02 0 0.24 0.02 0 0.245 0.02 0 0.25 0.02 0 0.255 0.02 0 0.26 0.02 0 0.265 0.02 0 0.27 0.02 0 0.275 0.02 0 0.28 0.02 0 0.285 0.02 0 0.29 0.02 0 0.295 0.02 0 0.3 0.02 0 0.305 0.02 0 0.31 0.02 0 0.315 0.02 0 0.32 0.02 0 0.325 0.02 0 0.33 0.02 0 0.335 0.02 0 0.34 0.02 0 0.345 0.02 0 0.35 0.02 0 0.355 0.02 0 0.36 0.02 0 0.365 0.02 0 0.37 0.02 0 0.375 0.02 0 0.38 0.02 0 0.385 0.02 0 0.39 0.02 0 0.395 0.02 0 0.4 0.02 0 0.405 0.02 0 0.41 0.02 0 0.415 0.02 0 0.42 0.02 0 0.425 0.02 0 0.43 0.02 0 0.435 0.02 0 0.44 0.02 0 0.445 0.02 0 0.450003 0.02 0 0.455019 0.02 0 0.460094 0.02 0 0.465343 0.02 0 0.470972 0.02 0 0.47724 0.02 0 0.484458 0.02 0 0.493056 0.02 0 0.503649 0.02 0 0.516395 0.02 0 0.52901 0.02 0 0.531359 0.02 0 0.533712 0.02 0 0.53607 0.02 0 0.538427 0.02 0 0.54075 0.02 0 0.543064 0.02 0 0.545506 0.02 0 0.54814 0.02 0 0.550958 0.02 0 0.554072 0.02 0 0.557545 0.02 0 0.561406 0.02 0 0.565672 0.02 0 0.570269 0.02 0 0.57509 0.02 0 0.580026 0.02 0 0.585007 0.02 0 0.590002 0.02 0 0.595 0.02 0 0.6 0.02 0 0.605 0.02 0 0.61 0.02 0 0.615 0.02 0 0.62 0.02 0 0.625 0.02 0 0.63 0.02 0 0.635 0.02 0 0.64 0.02 0 0.645 0.02 0 0.65 0.02 0 0.655 0.02 0 0.66 0.02 0 0.665 0.02 0 0.67 0.02 0 0.675 0.02 0 0.68 0.02 0 0.685 0.02 0 0.69 0.02 0 0.695 0.02 0 0.7 0.02 0 0.705 0.02 0 0.71 0.02 0 0.715 0.02 0 0.72 0.02 0 0.725 0.02 0 0.73 0.02 0 0.735 0.02 0 0.74 0.02 0 0.745 0.02 0 0.75 0.02 0 0.755 0.02 0 0.76 0.02 0 0.765 0.02 0 0.77 0.02 0 0.775 0.02 0 0.78 0.02 0 0.785 0.02 0 0.79 0.02 0 0.795 0.02 0 0.8 0.02 0 0.805 0.02 0 0.81 0.02 0 0.815 0.02 0 0.82 0.02 0 0.825 0.02 0 0.83 0.02 0 0.835 0.02 0 0.84 0.02 0 0.845 0.02 0 0.85 0.02 0 0.855 0.02 0 0.86 0.02 0 0.865 0.02 0 0.87 0.02 0 0.875 0.02 0 0.88 0.02 0 0.885 0.02 0 0.89 0.02 0 0.895 0.02 0 0.9 0.02 0 0.905 0.02 0 0.91 0.02 0 0.915 0.02 0 0.92 0.02 0 0.925 0.02 0 0.93 0.02 0 0.935 0.02 0 0.94 0.02 0 0.945 0.02 0 0.95 0.02 0 0.955 0.02 0 0.96 0.02 0 0.965 0.02 0 0.97 0.02 0 0.975 0.02 0 0.98 0.02 0 0.985 0.02 0 0.99 0.02 0 0.995 0.02 0 1 0.02 0 0 0.04 0 0.005 0.04 0 0.01 0.04 0 0.015 0.04 0 0.02 0.04 0 0.025 0.04 0 0.03 0.04 0 0.035 0.04 0 0.04 0.04 0 0.045 0.04 0 0.05 0.04 0 0.055 0.04 0 0.06 0.04 0 0.065 0.04 0 0.07 0.04 0 0.075 0.04 0 0.08 0.04 0 0.085 0.04 0 0.09 0.04 0 0.095 0.04 0 0.1 0.04 0 0.105 0.04 0 0.11 0.04 0 0.115 0.04 0 0.12 0.04 0 0.125 0.04 0 0.13 0.04 0 0.135 0.04 0 0.14 0.04 0 0.145 0.04 0 0.15 0.04 0 0.155 0.04 0 0.16 0.04 0 0.165 0.04 0 0.17 0.04 0 0.175 0.04 0 0.18 0.04 0 0.185 0.04 0 0.19 0.04 0 0.195 0.04 0 0.2 0.04 0 0.205 0.04 0 0.21 0.04 0 0.215 0.04 0 0.22 0.04 0 0.225 0.04 0 0.23 0.04 0 0.235 0.04 0 0.24 0.04 0 0.245 0.04 0 0.25 0.04 0 0.255 0.04 0 0.26 0.04 0 0.265 0.04 0 0.27 0.04 0 0.275 0.04 0 0.28 0.04 0 0.285 0.04 0 0.29 0.04 0 0.295 0.04 0 0.3 0.04 0 0.305 0.04 0 0.31 0.04 0 0.315 0.04 0 0.32 0.04 0 0.325 0.04 0 0.33 0.04 0 0.335 0.04 0 0.34 0.04 0 0.345 0.04 0 0.35 0.04 0 0.355 0.04 0 0.36 0.04 0 0.365 0.04 0 0.37 0.04 0 0.375 0.04 0 0.38 0.04 0 0.385 0.04 0 0.39 0.04 0 0.395 0.04 0 0.4 0.04 0 0.405 0.04 0 0.41 0.04 0 0.415 0.04 0 0.42 0.04 0 0.425 0.04 0 0.43 0.04 0 0.435 0.04 0 0.44 0.04 0 0.445 0.04 0 0.450003 0.04 0 0.455019 0.04 0 0.460094 0.04 0 0.465343 0.04 0 0.470972 0.04 0 0.47724 0.04 0 0.484458 0.04 0 0.493056 0.04 0 0.503649 0.04 0 0.516395 0.04 0 0.52901 0.04 0 0.531359 0.04 0 0.533712 0.04 0 0.53607 0.04 0 0.538427 0.04 0 0.54075 0.04 0 0.543064 0.04 0 0.545506 0.04 0 0.54814 0.04 0 0.550958 0.04 0 0.554072 0.04 0 0.557545 0.04 0 0.561406 0.04 0 0.565672 0.04 0 0.570269 0.04 0 0.57509 0.04 0 0.580026 0.04 0 0.585007 0.04 0 0.590002 0.04 0 0.595 0.04 0 0.6 0.04 0 0.605 0.04 0 0.61 0.04 0 0.615 0.04 0 0.62 0.04 0 0.625 0.04 0 0.63 0.04 0 0.635 0.04 0 0.64 0.04 0 0.645 0.04 0 0.65 0.04 0 0.655 0.04 0 0.66 0.04 0 0.665 0.04 0 0.67 0.04 0 0.675 0.04 0 0.68 0.04 0 0.685 0.04 0 0.69 0.04 0 0.695 0.04 0 0.7 0.04 0 0.705 0.04 0 0.71 0.04 0 0.715 0.04 0 0.72 0.04 0 0.725 0.04 0 0.73 0.04 0 0.735 0.04 0 0.74 0.04 0 0.745 0.04 0 0.75 0.04 0 0.755 0.04 0 0.76 0.04 0 0.765 0.04 0 0.77 0.04 0 0.775 0.04 0 0.78 0.04 0 0.785 0.04 0 0.79 0.04 0 0.795 0.04 0 0.8 0.04 0 0.805 0.04 0 0.81 0.04 0 0.815 0.04 0 0.82 0.04 0 0.825 0.04 0 0.83 0.04 0 0.835 0.04 0 0.84 0.04 0 0.845 0.04 0 0.85 0.04 0 0.855 0.04 0 0.86 0.04 0 0.865 0.04 0 0.87 0.04 0 0.875 0.04 0 0.88 0.04 0 0.885 0.04 0 0.89 0.04 0 0.895 0.04 0 0.9 0.04 0 0.905 0.04 0 0.91 0.04 0 0.915 0.04 0 0.92 0.04 0 0.925 0.04 0 0.93 0.04 0 0.935 0.04 0 0.94 0.04 0 0.945 0.04 0 0.95 0.04 0 0.955 0.04 0 0.96 0.04 0 0.965 0.04 0 0.97 0.04 0 0.975 0.04 0 0.98 0.04 0 0.985 0.04 0 0.99 0.04 0 0.995 0.04 0 1 0.04 0 0 0.06 0 0.005 0.06 0 0.01 0.06 0 0.015 0.06 0 0.02 0.06 0 0.025 0.06 0 0.03 0.06 0 0.035 0.06 0 0.04 0.06 0 0.045 0.06 0 0.05 0.06 0 0.055 0.06 0 0.06 0.06 0 0.065 0.06 0 0.07 0.06 0 0.075 0.06 0 0.08 0.06 0 0.085 0.06 0 0.09 0.06 0 0.095 0.06 0 0.1 0.06 0 0.105 0.06 0 0.11 0.06 0 0.115 0.06 0 0.12 0.06 0 0.125 0.06 0 0.13 0.06 0 0.135 0.06 0 0.14 0.06 0 0.145 0.06 0 0.15 0.06 0 0.155 0.06 0 0.16 0.06 0 0.165 0.06 0 0.17 0.06 0 0.175 0.06 0 0.18 0.06 0 0.185 0.06 0 0.19 0.06 0 0.195 0.06 0 0.2 0.06 0 0.205 0.06 0 0.21 0.06 0 0.215 0.06 0 0.22 0.06 0 0.225 0.06 0 0.23 0.06 0 0.235 0.06 0 0.24 0.06 0 0.245 0.06 0 0.25 0.06 0 0.255 0.06 0 0.26 0.06 0 0.265 0.06 0 0.27 0.06 0 0.275 0.06 0 0.28 0.06 0 0.285 0.06 0 0.29 0.06 0 0.295 0.06 0 0.3 0.06 0 0.305 0.06 0 0.31 0.06 0 0.315 0.06 0 0.32 0.06 0 0.325 0.06 0 0.33 0.06 0 0.335 0.06 0 0.34 0.06 0 0.345 0.06 0 0.35 0.06 0 0.355 0.06 0 0.36 0.06 0 0.365 0.06 0 0.37 0.06 0 0.375 0.06 0 0.38 0.06 0 0.385 0.06 0 0.39 0.06 0 0.395 0.06 0 0.4 0.06 0 0.405 0.06 0 0.41 0.06 0 0.415 0.06 0 0.42 0.06 0 0.425 0.06 0 0.43 0.06 0 0.435 0.06 0 0.44 0.06 0 0.445 0.06 0 0.450003 0.06 0 0.455019 0.06 0 0.460094 0.06 0 0.465343 0.06 0 0.470972 0.06 0 0.47724 0.06 0 0.484458 0.06 0 0.493056 0.06 0 0.503649 0.06 0 0.516395 0.06 0 0.52901 0.06 0 0.531359 0.06 0 0.533712 0.06 0 0.53607 0.06 0 0.538427 0.06 0 0.54075 0.06 0 0.543064 0.06 0 0.545506 0.06 0 0.54814 0.06 0 0.550958 0.06 0 0.554072 0.06 0 0.557545 0.06 0 0.561406 0.06 0 0.565672 0.06 0 0.570269 0.06 0 0.57509 0.06 0 0.580026 0.06 0 0.585007 0.06 0 0.590002 0.06 0 0.595 0.06 0 0.6 0.06 0 0.605 0.06 0 0.61 0.06 0 0.615 0.06 0 0.62 0.06 0 0.625 0.06 0 0.63 0.06 0 0.635 0.06 0 0.64 0.06 0 0.645 0.06 0 0.65 0.06 0 0.655 0.06 0 0.66 0.06 0 0.665 0.06 0 0.67 0.06 0 0.675 0.06 0 0.68 0.06 0 0.685 0.06 0 0.69 0.06 0 0.695 0.06 0 0.7 0.06 0 0.705 0.06 0 0.71 0.06 0 0.715 0.06 0 0.72 0.06 0 0.725 0.06 0 0.73 0.06 0 0.735 0.06 0 0.74 0.06 0 0.745 0.06 0 0.75 0.06 0 0.755 0.06 0 0.76 0.06 0 0.765 0.06 0 0.77 0.06 0 0.775 0.06 0 0.78 0.06 0 0.785 0.06 0 0.79 0.06 0 0.795 0.06 0 0.8 0.06 0 0.805 0.06 0 0.81 0.06 0 0.815 0.06 0 0.82 0.06 0 0.825 0.06 0 0.83 0.06 0 0.835 0.06 0 0.84 0.06 0 0.845 0.06 0 0.85 0.06 0 0.855 0.06 0 0.86 0.06 0 0.865 0.06 0 0.87 0.06 0 0.875 0.06 0 0.88 0.06 0 0.885 0.06 0 0.89 0.06 0 0.895 0.06 0 0.9 0.06 0 0.905 0.06 0 0.91 0.06 0 0.915 0.06 0 0.92 0.06 0 0.925 0.06 0 0.93 0.06 0 0.935 0.06 0 0.94 0.06 0 0.945 0.06 0 0.95 0.06 0 0.955 0.06 0 0.96 0.06 0 0.965 0.06 0 0.97 0.06 0 0.975 0.06 0 0.98 0.06 0 0.985 0.06 0 0.99 0.06 0 0.995 0.06 0 1 0.06 0 0 0.08 0 0.005 0.08 0 0.01 0.08 
[...]
			<PointData Scalars="VitesseX">
				<DataArray Name="VitesseX" type="Float32" format="ascii">
 0 -1.67009e-16 -1.73865e-15 -5.2811e-16 3.26247e-15 3.47011e-16 -2.32435e-15 -3.76092e-15 4.46082e-15 1.16001e-16 4.59507e-15 -8.38478e-15 3.91035e-15 1.3428e-15 -8.18315e-16 -1.25487e-15 -1.33093e-15 -6.86025e-16 -2.1249e-16 8.87061e-16 -2.10231e-15 -1.38739e-15 8.22761e-15 1.51599e-15 -1.12189e-14 1.00122e-14 2.46699e-15 -1.8703e-14 -2.97268e-16 2.47131e-14 -1.21414e-14 -4.9851e-15 2.56504e-14 -1.86803e-14 -1.1134e-14 2.19391e-14 -6.65544e-15 -2.10913e-14 6.01983e-15 -2.02689e-15 1.76082e-14 1.42038e-15 -8.65821e-15 -1.43798e-14 2.08993e-14 1.22171e-14 -2.11784e-14 -1.18574e-14 1.90061e-14 -2.65397e-14 4.8411e-14 -6.1381e-15 -3.71184e-14 3.12487e-14 1.02368e-14 -4.72977e-14 6.40478e-14 -3.69465e-14 1.5359e-14 -1.07981e-14 -1.79604e-15 -1.44813e-15 2.99579e-14 -1.08705e-14 5.01003e-15 -2.65907e-14 9.22823e-15 -4.20661e-15 -7.42096e-15 4.25832e-14 2.2066e-15 -9.64026e-15 1.07623e-14 5.13461e-15 5.12641e-14 -5.01888e-14 3.17043e-14 -4.57627e-14 3.31742e-14 -1.77758e-14 5.50283e-15 2.83946e-14 9.6722e-13 2.3904e-11 5.09586e-10 9.40713e-09 1.48688e-07 1.98535e-06 2.20211e-05 0.000198532 0.00141356 0.00766186 0.0304498 0.0874689 0.188246 0.328056 0.500852 0.70528 0.925457 1.01127 0.940984 0.935771 0.931677 0.925616 0.930935 0.939156 0.898744 0.823421 0.867073 0.722015 0.594717 0.492231 0.328937 0.195796 0.0955984 0.036966 0.0118497 0.00334378 0.000868331 0.000211278 4.84574e-05 1.04986e-05 2.15113e-06 4.17235e-07 7.66795e-08 1.33644e-08 2.21091e-09 3.47425e-10 5.18641e-11 7.42076e-12 9.28543e-13 1.82154e-13 2.02149e-14 -2.27093e-14 6.01626e-15 7.23662e-14 -1.19901e-14 -6.62896e-14 -1.85283e-14 -1.49791e-14 4.17302e-14 -1.66748e-14 2.45004e-14 4.28575e-14 -7.66114e-14 -4.97869e-15 7.12776e-14 5.17666e-15 -5.8026e-14 1.01535e-14 4.02616e-14 -3.46956e-14 2.99637e-14 -9.0933e-15 4.54755e-15 1.98582e-14 9.44891e-14 -6.56173e-14 3.53564e-14 4.09349e-15 2.0553e-14 -3.63543e-14 -5.5652e-14 -1.99425e-14 -7.82857e-14 5.66706e-14 1.17818e-13 -8.48713e-14 4.68441e-14 -5.4052e-14 -3.20907e-14 6.06554e-14 3.38365e-14 -7.96827e-14 5.44286e-15 1.12798e-14 5.12131e-14 -1.42107e-14 -4.83483e-14 9.24231e-15 -6.92277e-14 7.77773e-14 -7.79194e-14 7.95129e-15 4.32913e-14 1.462e-15 1.70066e-14 -6.78379e-14 6.74482e-14 -1.05423e-13 -1.37646e-14 6.17744e-14 -9.31577e-14 4.79093e-14 -2.01005e-14 3.01857e-14 6.17541e-14 -7.85956e-14 -1.71856e-14 -1.28497e-14 0 0 1.14155e-16 1.06361e-15 -2.525e-15 -3.19776e-15 1.44094e-15 -5.35491e-16 5.12966e-15 -3.5459e-15 2.00049e-15 5.16439e-16 -1.99895e-16 -1.42111e-15 -1.7678e-15 3.7425e-15 9.86836e-16 -8.11588e-15 5.09606e-15 -5.32457e-15 6.06238e-15 3.45716e-15 -4.79905e-15 1.7625e-15 -5.39278e-15 -2.82338e-15 2.00037e-16 -4.61466e-15 1.24263e-14 6.85704e-15 1.85749e-16 7.17316e-15 -9.74302e-15 4.42882e-15 -5.6779e-15 -2.4213e-15 8.84083e-15 -1.4601e-14 5.88121e-15 -1.53253e-14 -1.44073e-15 2.46175e-14 -1.6434e-14 7.61577e-15 -2.92599e-16 -2.90787e-16 7.08829e-15 -1.32931e-14 -9.16632e-15 2.64563e-16 1.02768e-14 2.18867e-14 -3.27867e-15 -1.70091e-14 3.80851e-14 -1.67988e-14 -1.43531e-14 2.44318e-15 2.34e-14 -1.16965e-14 -3.63443e-15 4.31656e-15 -2.74637e-15 2.34938e-14 -5.27161e-15 -9.40853e-15 -2.00365e-14 2.88311e-14 7.93094e-15 -2.15315e-14 1.82867e-16 4.1672e-14 -2.73545e-14 1.01547e-14 1.83072e-14 3.88998e-14 -2.45031e-14 -2.53554e-14 3.14504e-14 5.23402e-15 -1.30087e-14 3.44706e-15 2.03376e-14 9.99497e-13 2.38519e-11 5.09578e-10 9.4072e-09 1.48688e-07 1.98535e-06 2.20211e-05 0.000198532 0.00141356 0.00766186 0.0304498 0.0874689 0.188246 0.328056 0.500852 0.70528 0.925457 1.01127 0.940984 0.935771 0.931677 0.925616 0.930935 0.939156 0.898744 0.823421 0.867073 0.722015 0.594717 0.492231 0.328937 0.195796 0.0955984 0.036966 0.0118497 0.00334378 0.000868331 0.000211278 4.84574e-05 1.04986e-05 2.15113e-06 4.17235e-07 7.66794e-08 1.33645e-08 2.21088e-09 3.47437e-10 5.18831e-11 7.38911e-12 1.00665e-12 1.13278e-13 5.97651e-14 -9.36961e-14 3.38295e-14 7.06633e-14 -2.87261e-14 2.69606e-14 -7.60362e-14 2.42761e-14 2.16431e-14 -9.01271e-15 2.26783e-14 3.50678e-14 -6.77779e-14 -3.1555e-14 1.08018e-13 -9.52994e-14 5.24807e-14 -2.60607e-14 7.18451e-14 -1.10624e-14 -3.03971e-14 -1.37288e-15 -3.11891e-15 1.73092e-14 3.1073e-14 2.96786e-14 1.7513e-16 6.0222e-15 1.42922e-14 3.39562e-14 -9.3534e-14 -3.55467e-14 -2.82649e-14 9.55744e-14 -3.01291e-14 -5.54588e-14 7.2734e-14 -5.57e-15 -8.89483e-14 8.75044e-14 4.37099e-14 -1.24321e-13 -1.36093e-14 2.96611e-14 2.05946e-14 1.73097e-14 2.83131e-14 -8.18129e-14 2.23314e-14 -1.9706e-14 -4.61717e-15 4.57505e-14 -8.73438e-14 3.79527e-14 -4.14202e-14 2.66228e-14 3.14008e-15 -8.01468e-14 -2.76447e-14 4.40311e-14 -6.51878e-14 3.92629e-14 2.7823e-14 -8.19588e-15 -1.4503e-14 3.8732e-14 -4.61001e-14 -3.17597e-14 0 0 6.07405e-16 1.55548e-15 -1.39479e-15 -2.89395e-15 -2.46171e-15 4.33319e-15 1.60805e-15 -4.18982e-15 3.48752e-15 -1.38172e-15 2.87508e-15 1.46549e-15 -2.03006e-15 -7.0065e-15 1.25462e-14 -3.05717e-15 3.36467e-16 -3.07229e-15 5.71214e-15 -1.15426e-15 -7.78284e-15 -6.81568e-15 9.23131e-15 6.72023e-15 -9.28508e-15 -1.02274e-14 1.56441e-14 2.48273e-14 1.80244e-16 -5.94916e-15 -2.01494e-15 5.7179e-15 -2.77493e-14 1.884e-14 -2.27376e-14 1.32784e-14 -1.65132e-14 1.10315e-14 -7.71353e-15 1.58889e-14 -1.1627e-15 -1.06329e-14 9.94633e-15 2.03618e-15 -1.14596e-14 -3.91383e-15 -1.17395e-14 1.28664e-14 3.12157e-14 -5.06633e-15 1.39466e-14 -2.61265e-14 4.32785e-14 -1.226e-14 -2.2056e-14 -1.92047e-14 1.67784e-14 2.03099e-14 2.28181e-14 1.80041e-14 -3.11731e-14 -1.06886e-14 2.5526e-14 -8.0917e-15 -2.71425e-14 3.25088e-14 4.33394e-14 -1.73033e-15 -8.55434e-14 2.69454e-14 1.60913e-14 -2.8904e-14 3.98852e-14 1.98203e-14 4.42706e-14 -6.29409e-14 8.72896e-14 -2.86507e-14 -3.64471e-14 1.36991e-14 6.60769e-14 9.30634e-13 2.38809e-11 5.09567e-10 9.40718e-09 1.48688e-07 1.98535e-06 2.20211e-05 0.000198532 0.00141356 0.00766186 0.0304498 0.0874689 0.188246 0.328056 0.500852 0.70528 0.925457 1.01127 0.940984 0.935771 0.931677 0.925616 0.930935 0.939156 0.898744 0.823421 0.867073 0.722015 0.594717 0.492231 0.328937 0.195796 0.0955984 0.036966 0.0118497 0.00334378 0.000868331 0.000211278 4.84574e-05 1.04986e-05 2.15113e-06 4.17235e-07 7.66794e-08 1.33646e-08 2.21082e-09 3.47427e-10 5.19547e-11 7.33845e-12 1.07808e-12 3.88878e-14 3.98398e-14 -1.99648e-14 7.23874e-14 1.33517e-15 2.77773e-14 4.08543e-14 -1.2517e-13 1.70741e-14 -6.14118e-14 9.59497e-14 7.97778e-14 -5.74905e-14 -3.27327e-14 8.36771e-14 -1.14541e-13 1.28589e-13 -2.72297e-14 -4.38129e-14 5.42736e-14 -1.56001e-15 -6.54076e-14 9.29003e-14 -5.66291e-14 3.14e-14 7.55086e-15 1.32052e-14 -4.7254e-14 -4.51753e-15 8.51226e-14 2.0263e-14 -4.04838e-14 -1.303e-13 5.12573e-14 -2.89209e-14 -3.23432e-14 2.09012e-14 9.00645e-14 6.65775e-14 -8.78688e-14 1.57122e-14 -4.71335e-14 -7.69829e-14 4.76115e-14 5.73433e-14 -6.40784e-14 1.43287e-14 9.13154e-14 -4.46603e-14 -1.23785e-13 -1.82621e-14 2.39295e-14 6.82028e-14 -6.67641e-14 3.4124e-14 -2.67312e-14 1.27861e-14 -6.38749e-14 -3.33864e-14 -8.33385e-14 5.19673e-14 6.71218e-14 -7.63959e-14 -4.27524e-15 -1.93718e-14 1.86473e-14 4.29708e-14 -7.58313e-14 -2.21862e-15 0 0 -4.95669e-16 -1.62952e-15 3.99456e-16 2.15263e-15 -1.22101e-15 1.83407e-15 -4.66071e-15 1.91306e-15 -3.75121e-15 -1.30772e-15 5.14486e-15 -3.50326e-16 8.33847e-15 -1.52625e-14 1.27513e-14 -3.83219e-15 9.2035e-15 -1.9632e-15 -1.34679e-15 -7.03503e-15 -5.26235e-16 -4.47923e-15 1.11323e-14 4.497e-15 -1.26349e-14 1.88021e-14 7.32525e-15 -9.35259e-17 2.152e-14 -4.04509e-14 6.14801e-15 1.19619e-14 3.45852e-15 -1.72022e-14 -2.2727e-14 1.85544e-14 -1.32345e-14 2.67803e-14 -1.41616e-14 1.93567e-14 -1.34307e-14 -1.11395e-14 1.58285e-14 1.69142e-14 -1.12983e-14 -1.34407e-14 -3.66343e-15 2.43591e-14 4.72798e-15 -3.41027e-15 3.07747e-14 -2.36052e-14 -2.58806e-14 3.11387e-14 1.77623e-14 -2.30314e-14 -8.97293e-15 3.11597e-14 9.58189e-15 2.29806e-14 -6.38563e-14 -3.93505e-15 5.38253e-15 2.07824e-14 7.67056e-16 3.52478e-14 3.12905e-15 -2.41228e-14 1.20629e-14 -1.33134e-14 -5.46311e-15 -3.78438e-14 8.10766e-14 3.77177e-14 8.29703e-15 -1.81388e-14 1.19243e-14 2.02269e-14 1.57431e-14 8.18964e-15 5.50468e-14 9.69633e-13 2.38811e-11 5.0953e-10 9.40711e-09 1.48688e-07 1.98535e-06 2.20211e-05 0.000198532 0.00141356 0.00766186 0.0304498 0.0874689 0.188246 0.328056 0.500852 0.70528 0.925457 1.01127 0.940984 0.935771 0.931677 0.925616 0.930935 0.939156 0.898744 0.823421 0.867073 0.722015 0.594717 0.492231 0.328937 0.195796 0.0955984 0.036966 0.0118497 0.00334378 0.000868331 0.000211278 4.84574e-05 1.04986e-05 2.15113e-06 4.17235e-07 7.66794e-08 1.33645e-08 2.21083e-09 3.47406e-10 5.20263e-11 7.33897e-12 1.04115e-12 -1.49206e-15 1.99512e-14 8.83059e-14 2.2494e-14 4.26993e-14 7.33618e-14 -1.21515e-13 9.82895e-14 -7.90048e-14 -7.14981e-14 5.05902e-14 1.0111e-13 3.18118e-14 -6.69602e-14 1.08371e-13 -1.51413e-13 1.68913e-13 -6.12026e-14 -9.88231e-14 7.21898e-14 -2.4653e-14 -8.26892e-14 1.9231e-13 -3.15643e-14 9.74545e-14 3.06189e-14 -7.88631e-14 -1.10946e-13 -1.27667e-13 1.85549e-13 -2.25616e-14 4.20669e-14 -1.51489e-13 -6.26852e-15 -1.31983e-14 -1.40869e-14 -6.67733e-17 4.70239e-14 -7.73411e-14 1.97021e-13 -1.83402e-14 -1.41857e-13 4.71492e-14 9.2349e-14 1.25172e-13 -1.13646e-13 -4.71978e-15 -5.01592e-14 -3.2323e-14 -6.84206e-14 -8.54837e-14 5.50457e-14 3.02354e-14 -1.81749e-15 7.32367e-14 -3.59508e-14 -2.32224e-14 -1.8863e-13 1.11628e-13 -9.39893e-14 6.21472e-14 1.46696e-14 -2.15268e-14 -1.00139e-13 -3.82092e-14 7.23102e-14 4.03571e-15 -1.09775e-15 1.34616e-14 0 0 -6.16243e-16 -2.00443e-15 3.59293e-16 1.2947e-15 2.57724e-15 2.07492e-16 2.95869e-15 -1.44419e-15 -7.77857e-15 5.22396e-15 3.07867e-15 -4.49548e-15 7.28127e-15 -6.19624e-16 1.54087e-15 -9.35725e-15 1.79173e-14 -4.62327e-16 3.36603e-17 -7.6803e-15 4.13588e-15 -5.05638e-15 9.50974e-15 -7.99029e-15 -6.61953e-15 2.51303e-14 8.90731e-16 -1.31195e-14 1.60107e-14 -2.12065e-14 5.03237e-15 1.40384e-15 2.11455e-14 -2.89888e-14 -7.65558e-15 -1.26288e-16 3.80665e-14 -1.7129e-14 -4.93979e-15 2.02336e-14 -2.71054e-14 2.10848e-14 -2.39247e-14 2.40197e-14 -1.34182e-14 -4.7318e-15 1.76962e-15 -4.91222e-16 2.20786e-14 3.55599e-15 -2.29594e-15 -3.46897e-15 -4.45324e-14 5.53692e-14 1.15175e-14 -1.3188e-14 1.26974e-14 -3.79528e-15 -7.51952e-15 2.88923e-14 -5.85701e-14 -4.95379e-15 -1.34893e-14 3.13575e-14 2.27242e-14 3.73051e-14 2.20544e-14 -2.95277e-14 1.7449e-14 -6.48809e-15 -4.82096e-14 1.99089e-14 5.80179e-14 6.22067e-14 3.74672e-14 -3.34491e-14 -3.57088e-14 5.44815e-14 5.65635e-14 7.59054e-15 -4.85256e-15 1.01461e-12 2.3833e-11 5.096e-10 9.40706e-09 1.48688e-07 1.98535e-06 2.20211e-05 0.000198532 0.00141356 0.00766186 0.0304498 0.0874689 0.188246 0.328056 0.500852 0.70528 0.925457 1.01127 0.940984 0.935771 0.931677 0.925616 0.930935 0.939156 0.898744 0.823421 0.867073 0.722015 0.594718 0.492231 0.328937 0.195796 0.0955984 0.036966 0.0118497 0.00334378 0.000868331 0.000211278 4.84574e-05 1.04986e-05 2.15113e-06 4.17235e-07 7.66794e-08 1.33645e-08 2.21095e-09 3.47369e-10 5.20261e-11 7.32485e-12 1.03788e-12 2.34095e-14 5.44425e-14 -4.82023e-15 -6.12548e-14 5.21738e-14 9.69376e-14 -2.68266e-14 1.00852e-13 -2.40072e-14 -1.24085e-13 -3.28643e-14 1.23329e-13 1.15998e-13 -6.5604e-14 1.97943e-14 1.02632e-14 -5.3008e-14 4.87734e-14 -9.50982e-14 4.74872e-14 1.71351e-14 -1.36723e-15 7.35783e-15 8.93277e-14 3.43605e-14 1.67345e-13 -2.51423e-14 -1.19066e-13 -2.16438e-13 -1.4927e-14 5.39132e-14 8.15258e-14 -7.52046e-14 -4.34056e-14 9.71522e-14 -8.17517e-14 -9.35359e-14 5.85594e-15 -1.08001e-13 1.37842e-13 1.72943e-13 -2.82629e-14 -7.90804e-14 1.14883e-13 1.7642e-13 -1.32655e-13 -3.45529e-14 -2.20442e-13 4.09694e-14 6.95717e-14 4.68805e-14 -1.92233e-13 6.31273e-14 -8.90625e-14 1.04367e-13 -9.53048e-16 5.57463e-14 -2.30736e-13 1.17018e-13 7.01418e-15 2.44591e-14 -4.84872e-14 1.19734e-13 -1.7579e-13 -9.09638e-14 -4.54885e-14 5.37471e-14 9.90437e-14 -6.71952e-14 0 0 5.78343e-16 -1.50474e-15 1.65198e-15 2.15422e-15 1.38209e-16 4.15987e-15 4.43466e-15 -3.54152e-15 -4.96467e-15 1.38621e-14 -6.36722e-15 1.39324e-15 -1.29614e-15 6.96938e-15 -5.56995e-16 -2.26365e-15 7.2224e-15 7.29382e-15 2.94748e-15 -1.26157e-14 1.96926e-15 -1.0083e-14 2.75191e-14 -1.71062e-14 3.07263e-15 3.89773e-15 -2.51364e-14 9.59133e-15 1.36835e-14 1.0273e-16 8.23976e-15 7.11243e-15 -2.74491e-14 7.81549e-15 -1.10751e-14 1.17421e-14 3.67218e-14 -2.90853e-14 3.87123e-15 1.90501e-15 4.61376e-15 1.9293e-14 -7.34083e-14 3.97643e-14 -2.91185e-14 1.49981e-14 -6.13766e-15 -5.4909e-15 5.00393e-14 8.4374e-15 -3.78288e-14 -1.50807e-14 4.33197e-15 6.77755e-14 -7.51928e-14 4.04388e-14 -6.84926e-15 9.46174e-15 7.9042e-15 3.74024e-14 -4.77291e-14 -4.04444e-14 1.29811e-14 2.87938e-14 3.11166e-15 2.06983e-14 1.04461e-13 2.13716e-14 -1.18097e-13 -1.3596e-14 -8.24181e-15 4.81503e-14 2.17319e-15 6.20831e-14 1.45699e-13 -7.40873e-14 -2.93502e-14 3.39139e-14 1.69881e-14 2.48086e-14 7.44373e-17 9.19438e-13 2.38659e-11 5.09705e-10 9.40699e-09 1.48688e-07 1.98535e-06 2.20211e-05 0.000198532 0.00141356 0.00766186 0.0304498 0.0874689 0.188246 0.328056 0.500852 0.70528 0.925457 1.01127 0.940984 0.935771 0.931677 0.925616 0.930935 0.939156 0.898744 0.823421 0.867073 0.722015 0.594718 0.492231 0.328937 0.195796 0.0955984 0.036966 0.0118497 0.00334378 0.000868331 0.000211278 4.84574e-05 1.04986e-05 2.15113e-06 4.17235e-07 7.66796e-08 1.33645e-08 2.21102e-09 3.4733e-10 5.20068e-11 7.29111e-12 1.06504e-12 8.31373e-14 4.94293e-14 -6.12874e-14 -8.4104e-14 -4.71157e-14 1.48074e-13 1.50868e-13 -1.11509e-13 8.06151e-14 -2.29741e-13 2.63275e-14 1.83106e-13 2.60684e-14 -3.74558e-15 4.85171e-14 -5.03752e-14 9.07578e-15 2.75341e-15 -1.76289e-14 -4.4077e-14 6.81171e-14 1.22778e-13 -1.90268e-13 1.39159e-13 -7.8357e-14 3.20935e-13 9.12493e-15 -7.53853e-14 -1.94465e-13 -2.38758e-13 8.91948e-14 1.29146e-13 -5.7367e-14 6.17913e-15 2.83383e-14 -2.18061e-14 -1.18953e-13 -6.47913e-16 2.91563e-14 -1.48156e-13 2.99713e-13 7.9482e-14 -2.37151e-13 1.73133e-13 1.69255e-13 -1.56169e-13 -7.99603e-14 -2.62827e-13 2.30046e-13 -8.5674e-14 3.4546e-13 -5.15451e-13 1.18757e-13 -8.97471e-14 5.60576e-14 1.16479e-13 6.23573e-14 -1.51009e-13 -9.40573e-16 7.68205e-14 2.03906e-15 4.49806e-14 9.89233e-14 -2.35793e-13 -9.80145e-14 -1.07827e-13 2.91818e-14 1.23307e-13 -1.15491e-13 0
				</DataArray>
				<DataArray Name="VitesseY" type="Float32" format="ascii">