<?xml version="1.0"?>
<VTKFile type="PolyData">
	<PolyData>
		<Piece NumberOfPoints="1206" NumberOfPolys="1000">
			<Points>
				<DataArray type="Float32" NumberOfComponents="3" format="ascii">
 0 0 0 0.005 0 0 0.01 0 0 0.015 0 0 0.02 0 0 0.025 0 0 0.03 0 0 0.035 0 0 0.04 0 0 0.045 0 0 0.05 0 0 0.055 0 0 0.06 0 0 0.065 0 0 0.07 0 0 0.075 0 0 0.08 0 0 0.085 0 0 0.09 0 0 0.095 0 0 0.1 0 0 0.105 0 0 0.11 0 0 0.115 0 0 0.12 0 0 0.125 0 0 0.13 0 0 0.135 0 0 0.14 0 0 0.145 0 0 0.15 0 0 0.155 0 0 0.16 0 0 0.165 0 0 0.17 0 0 0.175 0 0 0.18 0 0 0.185 0 0 0.19 0 0 0.195 0 0 0.2 0 0 0.205 0 0 0.21 0 0 0.215 0 0 0.22 0 0 0.225 0 0 0.23 0 0 0.235 0 0 0.24 0 0 0.245 0 0 0.25 0 0 0.255 0 0 0.26 0 0 0.265 0 0 0.27 0 0 0.275 0 0 0.28 0 0 0.285 0 0 0.290002 0 0 0.295005 0 0 0.300013 0 0 0.305034 0 0 0.310078 0 0 0.315163 0 0 0.320308 0 0 0.325535 0 0 0.33086 0 0 0.336299 0 0 0.341863 0 0 0.347564 0 0 0.353412 0 0 0.359417 0 0 0.365589 0 0 0.371941 0 0 0.378485 0 0 0.385236 0 0 0.392208 0 0 0.399418 0 0 0.406885 0 0 0.41463 0 0 0.422678 0 0 0.431053 0 0 0.439788 0 0 0.448915 0 0 0.458472 0 0 0.468501 0 0 0.479046 0 0 0.490147 0 0 0.50182 0 0 0.513992 0 0 0.526349 0 0 0.538594 0 0 0.550706 0 0 0.562694 0 0 0.574595 0 0 0.586445 0 0 0.59827 0 0 0.610085 0 0 0.621896 0 0 0.633705 0 0 0.645516 0 0 0.647797 0 0 0.650078 0 0 0.652359 0 0 0.654639 0 0 0.656919 0 0 0.659198 0 0 0.661472 0 0 0.663746 0 0 0.666025 0 0 0.668304 0 0 0.670583 0 0 0.672864 0 0 0.675145 0 0 0.677426 0 0 0.679706 0 0 0.681986 0 0 0.684265 0 0 0.686544 0 0 0.688822 0 0 0.691101 0 0 0.693379 0 0 0.695658 0 0 0.697937 0 0 0.700218 0 0 0.702499 0 0 0.70478 0 0 0.707059 0 0 0.709339 0 0 0.711622 0 0 0.713904 0 0 0.716185 0 0 0.718466 0 0 0.720748 0 0 0.72303 0 0 0.72531 0 0 0.727591 0 0 0.729873 0 0 0.732156 0 0 0.734438 0 0 0.736721 0 0 0.739003 0 0 0.741284 0 0 0.743569 0 0 0.745853 0 0 0.748131 0 0 0.750413 0 0 0.752728 0 0 0.755078 0 0 0.757544 0 0 0.760129 0 0 0.762872 0 0 0.76583 0 0 0.769074 0 0 0.772642 0 0 0.77657 0 0 0.780842 0 0 0.785405 0 0 0.790176 0 0 0.795072 0 0 0.800028 0 0 0.805011 0 0 0.810004 0 0 0.815002 0 0 0.820001 0 0 0.825 0 0 0.83 0 0 0.835 0 0 0.84 0 0 0.845 0 0 0.85 0 0 0.855 0 0 0.86 0 0 0.865 0 0 0.87 0 0 0.875 0 0 0.88 0 0 0.885 0 0 0.89 0 0 0.895 0 0 0.9 0 0 0.905 0 0 0.91 0 0 0.915 0 0 0.92 0 0 0.925 0 0 0.93 0 0 0.935 0 0 0.94 0 0 0.945 0 0 0.95 0 0 0.955 0 0 0.96 0 0 0.965 0 0 0.97 0 0 0.975 0 0 0.98 0 0 0.985 0 0 0.99 0 0 0.995 0 0 1 0 0 0 0.02 0 0.005 0.02 0 0.01 0.02 0 0.015 0.02 0 0.02 0.02 0 0.025 0.02 0 0.03 0.02 0 0.035 0.02 0 0.04 0.02 0 0.045 0.02 0 0.05 0.02 0 0.055 0.02 0 0.06 0.02 0 0.065 0.02 0 0.07 0.02 0 0.075 0.02 0 0.08 0.02 0 0.085 0.02 0 0.09 0.02 0 0.095 0.02 0 0.1 0.02 0 0.105 0.02 0 0.11 0.02 0 0.115 0.02 0 0.12 0.02 0 0.125 0.02 0 0.13 0.02 0 0.135 0.02 0 0.14 0.02 0 0.145 0.02 0 0.15 0.02 0 0.155 0.02 0 0.16 0.02 0 0.165 0.02 0 0.17 0.02 0 0.175 0.02 0 0.18 0.02 0 0.185 0.02 0 0.19 0.02 0 0.195 0.02 0 0.2 0.02 0 0.205 0.02 0 0.21 0.02 0 0.215 0.02 0 0.22 0.02 0 0.225 0.02 0 0.23 0.02 0 0.235 0.02 0 0.24 0.02 0 0.245 0.02 0 0.25 0.02 0 0.255 0.02 0 0.26 0.02 0 0.265 0.02 0 0.27 0.02 0 0.275 0.02 0 0.28 0.02 0 0.285 0.02 0 0.290002 0.02 0 0.295005 0.02 0 0.300013 0.02 0 0.305034 0.02 0 0.310078 0.02 0 0.315163 0.02 0 0.320308 0.02 0 0.325535 0.02 0 0.33086 0.02 0 0.336299 0.02 0 0.341863 0.02 0 0.347564 0.02 0 0.353412 0.02 0 0.359417 0.02 0 0.365589 0.02 0 0.371941 0.02 0 0.378485 0.02 0 0.385236 0.02 0 0.392208 0.02 0 0.399418 0.02 0 0.406885 0.02 0 0.41463 0.02 0 0.422678 0.02 0 0.431053 0.02 0 0.439788 0.02 0 0.448915 0.02 0 0.458472 0.02 0 0.468501 0.02 0 0.479046 0.02 0 0.490147 0.02 0 0.50182 0.02 0 0.513992 0.02 0 0.526349 0.02 0 0.538594 0.02 0 0.550706 0.02 0 0.562694 0.02 0 0.574595 0.02 0 0.586445 0.02 0 0.59827 0.02 0 0.610085 0.02 0 0.621896 0.02 0 0.633705 0.02 0 0.645516 0.02 0 0.647797 0.02 0 0.650078 0.02 0 0.652359 0.02 0 0.654639 0.02 0 0.656919 0.02 0 0.659198 0.02 0 0.661472 0.02 0 0.663746 0.02 0 0.666025 0.02 0 0.668304 0.02 0 0.670583 0.02 0 0.672864 0.02 0 0.675145 0.02 0 0.677426 0.02 0 0.679706 0.02 0 0.681986 0.02 0 0.684265 0.02 0 0.686544 0.02 0 0.688822 0.02 0 0.691101 0.02 0 0.693379 0.02 0 0.695658 0.02 0 0.697937 0.02 0 0.700218 0.02 0 0.702499 0.02 0 0.70478 0.02 0 0.707059 0.02 0 0.709339 0.02 0 0.711622 0.02 0 0.713904 0.02 0 0.716185 0.02 0 0.718466 0.02 0 0.720748 0.02 0 0.72303 0.02 0 0.72531 0.02 0 0.727591 0.02 0 0.729873 0.02 0 0.732156 0.02 0 0.734438 0.02 0 0.736721 0.02 0 0.739003 0.02 0 0.741284 0.02 0 0.743569 0.02 0 0.745853 0.02 0 0.748131 0.02 0 0.750413 0.02 0 0.752728 0.02 0 0.755078 0.02 0 0.757544 0.02 0 0.760129 0.02 0 0.762872 0.02 0 0.76583 0.02 0 0.769074 0.02 0 0.772642 0.02 0 0.77657 0.02 0 0.780842 0.02 0 0.785405 0.02 0 0.790176 0.02 0 0.795072 0.02 0 0.800028 0.02 0 0.805011 0.02 0 0.810004 0.02 0 0.815002 0.02 0 0.820001 0.02 0 0.825 0.02 0 0.83 0.02 0 0.835 0.02 0 0.84 0.02 0 0.845 0.02 0 0.85 0.02 0 0.855 0.02 0 0.86 0.02 0 0.865 0.02 0 0.87 0.02 0 0.875 0.02 0 0.88 0.02 0 0.885 0.02 0 0.89 0.02 0 0.895 0.02 0 0.9 0.02 0 0.905 0.02 0 0.91 0.02 0 0.915 0.02 0 0.92 0.02 0 0.925 0.02 0 0.93 0.02 0 0.935 0.02 0 0.94 0.02 0 0.945 0.02 0 0.95 0.02 0 0.955 0.02 0 0.96 0.02 0 0.965 0.02 0 0.97 0.02 0 0.975 0.02 0 0.98 0.02 0 0.985 0.02 0 0.99 0.02 0 0.995 0.02 0 1 0.02 0 0 0.04 0 0.005 0.04 0 0.01 0.04 0 0.015 0.04 0 0.02 0.04 0 0.025 0.04 0 0.03 0.04 0 0.035 0.04 0 0.04 0.04 0 0.045 0.04 0 0.05 0.04 0 0.055 0.04 0 0.06 0.04 0 0.065 0.04 0 0.07 0.04 0 0.075 0.04 0 0.08 0.04 0 0.085 0.04 0 0.09 0.04 0 0.095 0.04 0 0.1 0.04 0 0.105 0.04 0 0.11 0.04 0 0.115 0.04 0 0.12 0.04 0 0.125 0.04 0 0.13 0.04 0 0.135 0.04 0 0.14 0.04 0 0.145 0.04 0 0.15 0.04 0 0.155 0.04 0 0.16 0.04 0 0.165 0.04 0 0.17 0.04 0 0.175 0.04 0 0.18 0.04 0 0.185 0.04 0 0.19 0.04 0 0.195 0.04 0 0.2 0.04 0 0.205 0.04 0 0.21 0.04 0 0.215 0.04 0 0.22 0.04 0 0.225 0.04 0 0.23 0.04 0 0.235 0.04 0 0.24 0.04 0 0.245 0.04 0 0.25 0.04 0 0.255 0.04 0 0.26 0.04 0 0.265 0.04 0 0.27 0.04 0 0.275 0.04 0 0.28 0.04 0 0.285 0.04 0 0.290002 0.04 0 0.295005 0.04 0 0.300013 0.04 0 0.305034 0.04 0 0.310078 0.04 0 0.315163 0.04 0 0.320308 0.04 0 0.325535 0.04 0 0.33086 0.04 0 0.336299 0.04 0 0.341863 0.04 0 0.347564 0.04 0 0.353412 0.04 0 0.359417 0.04 0 0.365589 0.04 0 0.371941 0.04 0 0.378485 0.04 0 0.385236 0.04 0 0.392208 0.04 0 0.399418 0.04 0 0.406885 0.04 0 0.41463 0.04 0 0.422678 0.04 0 0.431053 0.04 0 0.439788 0.04 0 0.448915 0.04 0 0.458472 0.04 0 0.468501 0.04 0 0.479046 0.04 0 0.490147 0.04 0 0.50182 0.04 0 0.513992 0.04 0 0.526349 0.04 0 0.538594 0.04 0 0.550706 0.04 0 0.562694 0.04 0 0.574595 0.04 0 0.586445 0.04 0 0.59827 0.04 0 0.610085 0.04 0 0.621896 0.04 0 0.633705 0.04 0 0.645516 0.04 0 0.647797 0.04 0 0.650078 0.04 0 0.652359 0.04 0 0.654639 0.04 0 0.656919 0.04 0 0.659198 0.04 0 0.661472 0.04 0 0.663746 0.04 0 0.666025 0.04 0 0.668304 0.04 0 0.670583 0.04 0 0.672864 0.04 0 0.675145 0.04 0 0.677426 0.04 0 0.679706 0.04 0 0.681986 0.04 0 0.684265 0.04 0 0.686544 0.04 0 0.688822 0.04 0 0.691101 0.04 0 0.693379 0.04 0 0.695658 0.04 0 0.697937 0.04 0 0.700218 0.04 0 0.702499 0.04 0 0.70478 0.04 0 0.707059 0.04 0 0.709339 0.04 0 0.711622 0.04 0 0.713904 0.04 0 0.716185 0.04 0 0.718466 0.04 0 0.720748 0.04 0 0.72303 0.04 0 0.72531 0.04 0 0.727591 0.04 0 0.729873 0.04 0 0.732156 0.04 0 0.734438 0.04 0 0.736721 0.04 0 0.739003 0.04 0 0.741284 0.04 0 0.743569 0.04 0 0.745853 0.04 0 0.748131 0.04 0 0.750413 0.04 0 0.752728 0.04 0 0.755078 0.04 0 0.757544 0.04 0 0.760129 0.04 0 0.762872 0.04 0 0.76583 0.04 0 0.769074 0.04 0 0.772642 0.04 0 0.77657 0.04 0 0.780842 0.04 0 0.785405 0.04 0 0.790176 0.04 0 0.795072 0.04 0 0.800028 0.04 0 0.805011 0.04 0 0.810004 0.04 0 0.815002 0.04 0 0.820001 0.04 0 0.825 0.04 0 0.83 0.04 0 0.835 0.04 0 0.84 0.04 0 0.845 0.04 0 0.85 0.04 0 0.855 0.04 0 0.86 0.04 0 0.865 0.04 0 0.87 0.04 0 0.875 0.04 0 0.88 0.04 0 0.885 0.04 0 0.89 0.04 0 0.895 0.04 0 0.9 0.04 0 0.905 0.04 0 0.91 0.04 0 0.915 0.04 0 0.92 0.04 0 0.925 0.04 0 0.93 0.04 0 0.935 0.04 0 0.94 0.04 0 0.945 0.04 0 0.95 0.04 0 0.955 0.04 0 0.96 0.04 0 0.965 0.04 0 0.97 0.04 0 0.975 0.04 0 0.98 0.04 0 0.985 0.04 0 0.99 0.04 0 0.995 0.04 0 1 0.04 0 0 0.06 0 0.005 0.06 0 0.01 0.06 0 0.015 0.06 0 0.02 0.06 0 0.025 0.06 0 0.03 0.06 0 0.035 0.06 0 0.04 0.06 0 0.045 0.06 0 0.05 0.06 0 0.055 0.06 0 0.06 0.06 0 0.065 0.06 0 0.07 0.06 0 0.075 0.06 0 0.08 0.06 0 0.085 0.06 0 0.09 0.06 0 0.095 0.06 0 0.1 0.06 0 0.105 0.06 0 0.11 0.06 0 0.115 0.06 0 0.12 0.06 0 0.125 0.06 0 0.13 0.06 0 0.135 0.06 0 0.14 0.06 0 0.145 0.06 0 0.15 0.06 0 0.155 0.06 0 0.16 0.06 0 0.165 0.06 0 0.17 0.06 0 0.175 0.06 0 0.18 0.06 0 0.185 0.06 0 0.19 0.06 0 0.195 0.06 0 0.2 0.06 0 0.205 0.06 0 0.21 0.06 0 0.215 0.06 0 0.22 0.06 0 0.225 0.06 0 0.23 0.06 0 0.235 0.06 0 0.24 0.06 0 0.245 0.06 0 0.25 0.06 0 0.255 0.06 0 0.26 0.06 0 0.265 0.06 0 0.27 0.06 0 0.275 0.06 0 0.28 0.06 0 0.285 0.06 0 0.290002 0.06 0 0.295005 0.06 0 0.300013 0.06 0 0.305034 0.06 0 0.310078 0.06 0 0.315163 0.06 0 0.320308 0.06 0 0.325535 0.06 0 0.33086 0.06 0 0.336299 0.06 0 0.341863 0.06 0 0.347564 0.06 0 0.353412 0.06 0 0.359417 0.06 0 0.365589 0.06 0 0.371941 0.06 0 0.378485 0.06 0 0.385236 0.06 0 0.392208 0.06 0 0.399418 0.06 0 0.406885 0.06 0 0.41463 0.06 0 0.422678 0.06 0 0.431053 0.06 0 0.439788 0.06 0 0.448915 0.06 0 0.458472 0.06 0 0.468501 0.06 0 0.479046 0.06 0 0.490147 0.06 0 0.50182 0.06 0 0.513992 0.06 0 0.526349 0.06 0 0.538594 0.06 0 0.550706 0.06 0 0.562694 0.06 0 0.574595 0.06 0 0.586445 0.06 0 0.59827 0.06 0 0.610085 0.06 0 0.621896 0.06 0 0.633705 0.06 0 0.645516 0.06 0 0.647797 0.06 0 0.650078 0.06 0 0.652359 0.06 0 0.654639 0.06 0 0.656919 0.06 0 0.659198 0.06 0 0.661472 0.06 0 0.663746 0.06 0 0.666025 0.06 0 0.668304 0.06 0 0.670583 0.06 0 0.672864 0.06 0 0.675145 0.06 0 0.677426 0.06 0 0.679706 0.06 0 0.681986 0.06 0 0.684265 0.06 0 0.686544 0.06 0 0.688822 0.06 0 0.691101 0.06 0 0.693379 0.06 0 0.695658 0.06 0 0.697937 0.06 0 0.700218 0.06 0 0.702499 0.06
[...]
			<PointData Scalars="VitesseX">
				<DataArray Name="VitesseX" type="Float32" format="ascii">
 0 0 0 0 0 0 0 0 0 0 0 0 0 0 0 0 0 0 0 0 0 0 0 0 0 0 0 0 0 0 0 0 0 0 0 0 0 0 0 0 0 0 0 0 0 0 0 0 0 0 0 0 0 0 0 0 0 0 0 0 0 0 0 0 0 0 0 0 0 0 0 0 0 0 0 0 0 0 0 0 0 0 0 0 0 0 0 0 0 0 0 0 0 0 0 0 0 0 0 0 0 0 0 0 0 0 0 0 0 0 0 0 0 0 0 0 0 0 0 0 0 0 0 0 0 0 0 0 0 0 0 0 0 0 0 0 0 0 0 0 0 0 0 0 0 0 0 0 0 0 0 0 0 0 0 0 0 0 0 0 0 0 0 0 0 0 0 0 0 0 0 0 0 0 0 0 0 0 0 0 0 0 0 0 0 0 0 0 0 0 0 0 0 0 0 0 0 0 0 0 0 0 2.74762e-15 4.81741e-15 5.25105e-15 3.48893e-15 4.38471e-15 2.5528e-15 7.60127e-15 5.04173e-15 3.18646e-15 4.97315e-15 -5.16574e-15 2.88299e-15 6.27785e-15 -9.34583e-17 1.45765e-14 1.45715e-14 1.02931e-14 1.33014e-14 1.22481e-14 2.54199e-14 1.52266e-14 7.08899e-15 1.07873e-14 2.66668e-15 1.92785e-14 2.84644e-14 2.95497e-14 2.64676e-14 -9.95714e-15 -3.63422e-15 2.09426e-14 4.50596e-15 1.72502e-14 2.99684e-14 -5.66724e-15 1.17982e-14 -6.89017e-15 1.18606e-14 -7.722e-15 -2.06133e-14 5.00237e-14 2.98411e-14 8.91184e-14 9.14173e-14 5.40061e-13 3.52929e-12 2.31347e-11 1.45648e-10 8.65828e-10 4.8578e-09 2.56694e-08 1.27403e-07 5.92112e-07 2.56785e-06 1.03496e-05 3.8585e-05 0.000132322 0.000414688 0.00117877 0.00301502 0.00688978 0.0140087 0.0253823 0.0413356 0.0613955 0.0846503 0.110215 0.137468 0.166056 0.195804 0.226638 0.258538 0.291517 0.325606 0.36085 0.397307 0.435045 0.474141 0.514681 0.556756 0.600461 0.645889 0.69311 0.742143 0.792871 0.844837 0.896671 0.944371 0.976266 0.972088 0.961351 0.950563 0.942584 0.937792 0.935398 0.934302 0.933796 0.933616 0.933598 0.933422 0.933723 0.933668 0.933641 0.933566 0.933465 0.933345 0.933228 0.933143 0.933104 0.93317 0.933815 0.934027 0.933887 0.933584 0.933373 0.933147 0.932908 0.932723 0.932588 0.932518 0.932517 0.932868 0.933569 0.933376 0.933379 0.933316 0.933296 0.933353 0.933684 0.933361 0.93315 0.932925 0.932683 0.932609 0.932634 0.93274 0.932562 0.932106 0.931807 0.931551 0.931511 0.932296 0.933218 0.932293 0.932733 0.92336 0.932375 0.873435 0.838146 0.806032 0.739619 0.633435 0.544798 0.415933 0.295929 0.186287 0.102401 0.0489676 0.0209675 0.00839617 0.00325354 0.00124249 0.000471294 0.000178071 6.70683e-05 2.51779e-05 9.41664e-06 3.50657e-06 1.29924e-06 4.7864e-07 1.75204e-07 6.36782e-08 2.29648e-08 8.21276e-09 2.91072e-09 1.02184e-09 3.55066e-10 1.22133e-10 4.15481e-11 1.4009e-11 4.73499e-12 1.37476e-12 5.11363e-13 1.73349e-13 7.37227e-14 1.37856e-14 -5.26779e-14 -3.17967e-15 -4.43504e-14 4.51137e-14 3.91713e-14 -5.25086e-14 1.02169e-13 8.79856e-14 -1.07386e-13 1.28075e-13 3.16319e-15 -6.12158e-14 1.26289e-14 0 0 -8.44396e-17 2.96703e-15 4.12318e-15 2.91444e-15 2.86352e-15 2.37563e-15 5.79624e-15 5.1639e-15 -3.63363e-15 -9.93236e-16 1.34073e-17 6.23378e-15 7.3083e-15 -1.90586e-15 1.57562e-14 1.12227e-14 2.60675e-14 1.93669e-14 1.64758e-14 3.81946e-14 -3.88621e-15 2.0719e-14 2.92718e-14 -2.80115e-17 1.57381e-15 -1.75332e-14 1.75084e-14 1.28564e-14 1.24613e-14 -2.15195e-14 3.43507e-14 -5.69931e-15 -1.7664e-14 2.3292e-14 1.72253e-14 1.89804e-14 -1.57761e-14 8.50496e-15 -2.50271e-14 3.55677e-14 6.2951e-14 5.23041e-14 9.03944e-14 1.09434e-13 5.69524e-13 3.41286e-12 2.32002e-11 1.45597e-10 8.65851e-10 4.85779e-09 2.56694e-08 1.27403e-07 5.92112e-07 2.56785e-06 1.03496e-05 3.8585e-05 0.000132322 0.000414688 0.00117877 0.00301502 0.00688978 0.0140087 0.0253823 0.0413356 0.0613955 0.0846503 0.110215 0.137468 0.166056 0.195804 0.226638 0.258538 0.291517 0.325606 0.36085 0.397307 0.435045 0.474141 0.514681 0.556756 0.600461 0.645889 0.69311 0.742143 0.792871 0.844837 0.896671 0.944371 0.976266 0.972088 0.961351 0.950563 0.942584 0.937792 0.935398 0.934302 0.933796 0.933616 0.933598 0.933422 0.933723 0.933668 0.933641 0.933566 0.933465 0.933345 0.933228 0.933143 0.933104 0.93317 0.933815 0.934027 0.933887 0.933584 0.933373 0.933147 0.932908 0.932723 0.932588 0.932518 0.932517 0.932868 0.933569 0.933376 0.933379 0.933316 0.933296 0.933353 0.933684 0.933361 0.93315 0.932925 0.932683 0.932609 0.932634 0.93274 0.932562 0.932106 0.931807 0.931551 0.931511 0.932296 0.933218 0.932293 0.932733 0.92336 0.932375 0.873435 0.838146 0.806032 0.739619 0.633435 0.544798 0.415933 0.295929 0.186287 0.102401 0.0489676 0.0209675 0.00839617 0.00325354 0.00124249 0.000471294 0.000178071 6.70683e-05 2.51779e-05 9.41664e-06 3.50657e-06 1.29924e-06 4.7864e-07 1.75204e-07 6.36782e-08 2.29648e-08 8.21272e-09 2.91075e-09 1.0219e-09 3.55105e-10 1.22174e-10 4.15663e-11 1.40222e-11 4.75132e-12 1.55024e-12 5.26227e-13 7.41117e-14 -1.47215e-13 -3.4942e-14 -4.13157e-14 6.68584e-14 1.15865e-13 1.11084e-13 -6.42404e-14 4.18936e-14 -2.66931e-14 3.83874e-14 -7.57721e-14 4.80402e-14 7.35535e-14 3.68677e-14 -3.39749e-14 0 0 2.50207e-15 3.32571e-15 -6.19158e-16 -9.40899e-16 3.55887e-15 1.06451e-14 6.13895e-15 -3.95387e-15 -4.84034e-15 9.32113e-16 5.33878e-15 8.7562e-17 -1.64032e-15 3.4665e-15 2.46269e-14 2.14683e-14 9.96816e-15 3.67042e-14 2.81689e-14 3.72654e-14 4.48263e-15 2.23656e-14 6.40007e-15 2.70378e-15 -2.13175e-14 -3.71207e-14 -1.81027e-14 3.81722e-15 4.40479e-14 -3.68166e-15 1.63452e-15 1.43442e-18 -1.55704e-14 -1.74339e-14 4.01697e-14 9.99225e-15 1.04281e-15 1.57012e-14 -2.30466e-14 6.01052e-14 8.88389e-14 7.81078e-14 8.91187e-14 1.58945e-13 5.63022e-13 3.32943e-12 2.32452e-11 1.45582e-10 8.65767e-10 4.85782e-09 2.56694e-08 1.27403e-07 5.92112e-07 2.56785e-06 1.03496e-05 3.8585e-05 0.000132322 0.000414688 0.00117877 0.00301502 0.00688978 0.0140087 0.0253823 0.0413356 0.0613955 0.0846503 0.110215 0.137468 0.166056 0.195804 0.226638 0.258538 0.291517 0.325606 0.36085 0.397307 0.435045 0.474141 0.514681 0.556756 0.600461 0.645889 0.69311 0.742143 0.792871 0.844837 0.896671 0.944371 0.976266 0.972088 0.961351 0.950563 0.942584 0.937792 0.935398 0.934302 0.933796 0.933616 0.933598 0.933422 0.933723 0.933668 0.933641 0.933566 0.933465 0.933345 0.933228 0.933143 0.933104 0.93317 0.933815 0.934027 0.933887 0.933584 0.933373 0.933147 0.932908 0.932723 0.932588 0.932518 0.932517 0.932868 0.933569 0.933376 0.933379 0.933316 0.933296 0.933353 0.933684 0.933361 0.93315 0.932925 0.932683 0.932609 0.932634 0.93274 0.932562 0.932106 0.931807 0.931551 0.931511 0.932296 0.933218 0.932293 0.932733 0.92336 0.932375 0.873435 0.838146 0.806032 0.739619 0.633435 0.544798 0.415933 0.295929 0.186287 0.102401 0.0489676 0.0209675 0.00839617 0.00325354 0.00124249 0.000471294 0.000178071 6.70683e-05 2.51779e-05 9.41664e-06 3.50657e-06 1.29924e-06 4.7864e-07 1.75204e-07 6.36783e-08 2.29648e-08 8.2128e-09 2.91079e-09 1.02192e-09 3.55008e-10 1.22327e-10 4.15397e-11 1.40736e-11 4.63727e-12 1.65313e-12 4.47301e-13 5.57832e-14 -1.40583e-14 -1.02839e-13 -1.38897e-13 -7.94839e-14 1.90352e-13 1.39475e-14 3.76492e-14 1.62398e-13 -9.25507e-14 1.25204e-13 -5.78959e-14 -4.80018e-14 5.4619e-14 1.47949e-13 1.18685e-13 0 0 2.93663e-15 1.95883e-15 2.36586e-15 -3.49093e-15 8.42025e-15 1.46606e-14 2.84676e-15 -3.44278e-15 -1.45027e-15 6.46723e-15 -1.73206e-14 1.13894e-16 5.59702e-15 8.20657e-15 3.7264e-14 2.83774e-14 4.41342e-15 4.19756e-14 1.22816e-14 8.08741e-15 3.71894e-14 2.6535e-14 -2.32316e-14 -5.26286e-15 -3.09184e-14 -1.5237e-14 -1.80932e-14 2.27552e-14 1.65209e-15 8.75649e-15 -1.28724e-14 -7.91777e-15 2.50003e-14 -2.20266e-14 8.4551e-15 2.16761e-14 1.44075e-14 9.21007e-15 3.49558e-15 -1.84696e-16 7.19716e-14 1.16391e-13 1.01667e-13 1.99295e-13 4.89575e-13 3.41255e-12 2.32042e-11 1.45604e-10 8.65751e-10 4.8578e-09 2.56694e-08 1.27403e-07 5.92112e-07 2.56785e-06 1.03496e-05 3.8585e-05 0.000132322 0.000414688 0.00117877 0.00301502 0.00688978 0.0140087 0.0253823 0.0413356 0.0613955 0.0846503 0.110215 0.137468 0.166056 0.195804 0.226638 0.258538 0.291517 0.325606 0.36085 0.397307 0.435045 0.474141 0.514681 0.556756 0.600461 0.645889 0.69311 0.742143 0.792871 0.844837 0.896671 0.944371 0.976266 0.972088 0.961351 0.950563 0.942584 0.937792 0.935398 0.934302 0.933796 0.933616 0.933598 0.933422 0.933723 0.933668 0.933641 0.933566 0.933465 0.933345 0.933228 0.933143 0.933104 0.93317 0.933815 0.934027 0.933887 0.933584 0.933373 0.933147 0.932908 0.932723 0.932588 0.932518 0.932517 0.932868 0.933569 0.933376 0.933379 0.933316 0.933296 0.933353 0.933684 0.933361 0.93315 0.932925 0.932683 0.932609 0.932634 0.93274 0.932562 0.932106 0.931807 0.931551 0.931511 0.932296 0.933218 0.932293 0.932733 0.92336 0.932375 0.873435 0.838146 0.806032 0.739619 0.633435 0.544798 0.415933 0.295929 0.186287 0.102401 0.0489676 0.0209675 0.00839617 0.00325354 0.00124249 0.000471294 0.000178071 6.70683e-05 2.51779e-05 9.41664e-06 3.50657e-06 1.29924e-06 4.7864e-07 1.75204e-07 6.36785e-08 2.29648e-08 8.21285e-09 2.91084e-09 1.02179e-09 3.55028e-10 1.2245e-10 4.1388e-11 1.42849e-11 4.64817e-12 1.42269e-12 3.9104e-13 2.12941e-14 1.22558e-13 -9.59232e-14 -4.93671e-15 -5.56988e-14 2.11126e-14 8.94945e-14 8.09869e-14 -3.63213e-14 3.2198e-14 2.59613e-13 -1.85103e-13 2.73662e-14 -4.27561e-14 5.42275e-14 8.73537e-14 0 0 0 0 0 0 0 0 0 0 0 0 0 0 0 0 0 0 0 0 0 0 0 0 0 0 0 0 0 0 0 0 0 0 0 0 0 0 0 0 0 0 0 0 0 0 0 0 0 0 0 0 0 0 0 0 0 0 0 0 0 0 0 0 0 0 0 0 0 0 0 0 0 0 0 0 0 0 0 0 0 0 0 0 0 0 0 0 0 0 0 0 0 0 0 0 0 0 0 0 0 0 0 0 0 0 0 0 0 0 0 0 0 0 0 0 0 0 0 0 0 0 0 0 0 0 0 0 0 0 0 0 0 0 0 0 0 0 0 0 0 0 0 0 0 0 0 0 0 0 0 0 0 0 0 0 0 0 0 0 0 0 0 0 0 0 0 0 0 0 0 0 0 0 0 0 0 0 0 0 0 0 0 0 0 0 0 0 0 0 0 0 0 0 0 0 0 0 0 0 0 0
				</DataArray>
				<DataArray Name="VitesseY" type="Float32" format="ascii">
 0 0 0 0 0 0 0 0 0 0 0 0 0 0 0 0 0 0 0 0 0 0 0 0 0 0 0 0 0 0 0 0 0 0 0 0 0 0 0 0 0 0 0 0 0 0 0 0 0 0 0 0 0 0 0 0 0 0 0 0 0 0 0 0 0 0 0 0 0 0 0 0 0 0 0 0 0 0 0 0 0 0 0 0 0 0 0 0 0 0 0 0 0 0 0 0 0 0 0 0 0 0 0 0 0 0 0 0 0 0 0 0 0 0 0 0 0 0 0 0 0 0 0 0 0 0 0 0 0 0 0 0 0 0 0 0 0 0 0 0 0 0 0 0 0 0 0 0 0 0 0 0 0 0 0 0 0 0 0 0 0 0 0 0 0 0 0 0 0 0 0 0 0 0 0 0 0 0 0 0 0 0 0 0 0 0 0 0 0 0 0 0 0 0 0 0 0 0 0 0 0 0 2.55495e-15 2.89067e-15 3.42072e-15 2.6557e-15 2.04101e-15 2.9632e-15 4.3946e-16 -4.99905e-16 8.5836e-16 8.11038e-16 -1.53807e-15 -2.53545e-15 2.23786e-15 1.72363e-15 -1.79438e-15 -1.58522e-15 2.03074e-15 6.2377e-15 5.43668e-15 7.89455e-15 1.03969e-14 8.64261e-15 8.61141e-15 8.89676e-15 6.55583e-15 3.57879e-15 3.04028e-15 5.92494e-15 3.07993e-15 -8.72869e-15 -1.31251e-14 -6.23542e-15 -2.51071e-15 -1.49044e-15 -7.21798e-15 -7.62171e-15 -1.10322e-14 -1.89354e-14 -9.36921e-15 -1.45083e-14 -1.79348e-14 -1.25708e-14 -2.10104e-15 3.63819e-15 -7.29713e-15 -2.59943e-15 -1.18279e-14 -2.43509e-14 -2.78655e-15 -3.23595e-16 -3.4313e-14 -3.99995e-14 -2.56835e-14 -2.11428e-14 -2.24824e-14 -2.72578e-14 -2.59817e-14 -5.89823e-16 7.77606e-15 -4.97889e-15 -6.16108e-15 -1.29254e-14 -3.61607e-15 -1.78993e-15 -1.08261e-14 -1.85678e-15 1.39582e-15 -1.01709e-14 1.54712e-17 -3.86336e-15 1.74627e-14 1.15811e-14 -1.86161e-14 -6.2933e-15 -2.12885e-14 -3.23282e-14 -4.06664e-15 3.86451e-14 3.32201e-14 -3.17712e-14 -1.8871e-14 3.71716e-14 1.69813e-14 -2.39742e-14 -3.03337e-14 -5.28788e-15 -6.15613e-14 -9.84448e-14 8.61637e-14 8.55234e-13 1.9484e-12 2.62989e-12 2.56766e-12 1.5277e-12 -2.82398e-13 -2.19396e-12 -3.71273e-12 -4.73777e-12 -4.683e-12 -4.34933e-12 -5.78728e-12 -5.34456e-12 -4.43027e-12 -3.33901e-12 -1.94301e-12 -2.48782e-12 -1.04136e-11 -2.26394e-11 -3.37248e-11 -3.84902e-11 -3.68436e-11 -3.22513e-11 -2.70957e-11 -2.24081e-11 -1.84445e-11 -1.52026e-11 -1.26471e-11 -1.06455e-11 -9.07498e-12 -7.87503e-12 -6.94111e-12 -6.23068e-12 -5.52506e-12 -4.81723e-12 -4.2742e-12 -3.85758e-12 -3.59101e-12 -3.50028e-12 -3.40579e-12 -3.15053e-12 -2.86266e-12 -2.78311e-12 -2.7804e-12 -2.78288e-12 -2.82785e-12 -2.78222e-12 -2.70749e-12 -2.59281e-12 -2.39901e-12 -2.2588e-12 -2.07511e-12 -1.78033e-12 -1.44767e-12 -1.00787e-12 -4.66445e-13 1.05853e-13 8.09561e-13 1.36388e-12 1.72789e-12 2.14169e-12 2.53306e-12 2.56918e-12 2.45816e-12 2.20999e-12 1.73111e-12 1.18367e-12 6.75972e-13 3.12275e-13 1.22763e-13 3.39498e-14 -1.18147e-14 -3.16012e-14 -2.24951e-14 -5.76454e-15 -3.31248e-14 -4.85229e-14 -2.9657e-14 -4.3582e-14 -5.25087e-14 -4.50754e-14 -4.91788e-14 -5.63802e-14 -6.32211e-14 -7.16854e-14 -6.68661e-14 -5.78405e-14 -7.55148e-14 -8.60859e-14 -7.87316e-14 -7.09013e-14 -3.08366e-14 -1.36836e-14 -2.40273e-14 8.90583e-15 1.36076e-14 -2.80718e-14 -4.54387e-14 -4.45343e-15 1.95597e-15 -6.98925e-15 5.36341e-14 4.56921e-14 1.42418e-14 1.79069e-14 -3.50711e-14 -6.02314e-14 -1.44848e-14 -2.15514e-14 -2.50393e-14 0 0 6.58017e-15 5.29218e-15 3.97422e-15 4.26555e-15 4.34017e-15 3.13385e-15 5.11665e-15 5.54505e-15 2.456e-15 -7.70467e-16 1.49776e-15 4.67688e-15 9.50011e-16 1.36293e-15 4.77742e-15 4.11054e-15 3.58232e-15 4.69317e-15 8.02894e-15 9.70785e-15 5.74634e-15 5.94246e-15 1.42029e-14 1.80149e-14 1.51228e-14 2.16313e-15 -1.17772e-14 -2.10695e-14 -1.60634e-14 -3.1797e-15 2.25235e-16 -5.89633e-15 -2.09422e-14 -3.23686e-14 -2.24709e-14 -1.46824e-14 -1.16327e-14 -6.80347e-15 -2.15518e-14 -6.66823e-15 1.39488e-14 1.75656e-14 1.29642e-14 1.20497e-14 3.48333e-14 8.45762e-15 4.9751e-15 2.12509e-14 -6.99856e-15 -6.58545e-15 1.03089e-14 -9.21035e-15 -3.36314e-14 -2.33035e-14 -3.26228e-14 -3.01947e-14 5.73551e-15 -1.40107e-14 -2.6083e-14 4.13169e-16 -1.8147e-14 -3.33985e-14 -3.10297e-14 -1.37837e-14 -4.73355e-15 -2.84644e-14 -3.37365e-14 -2.48807e-14 -1.57285e-14 2.38049e-14 1.90214e-14 -9.6157e-15 -1.47974e-14 7.69314e-15 2.47243e-14 7.49003e-15 8.23592e-15 -1.10466e-14 6.72265e-15 3.80723e-14 1.8155e-15 -4.85555e-15 2.60025e-14 1.85012e-14 -2.1288e-14 -4.72093e-14 -6.97067e-14 -1.50687e-13 1.3778e-13 1.40729e-12 3.10246e-12 4.24329e-12 4.16727e-12 2.44465e-12 -4.60134e-13 -3.54922e-12 -5.99615e-12 -7.66799e-12 -7.60228e-12 -7.06897e-12 -9.41803e-12 -8.70926e-12 -7.26109e-12 -5.44327e-12 -3.12452e-12 -4.012e-12 -1.68182e-11 -3.66461e-11 -5.46625e-11 -6.24052e-11 -5.96626e-11 -5.22063e-11 -4.39237e-11 -3.6329e-11 -2.98035e-11 -2.4587e-11 -2.05018e-11 -1.72602e-11 -1.46996e-11 -1.27236e-11 -1.12715e-11 -1.00382e-11 -8.85448e-12 -7.76115e-12 -6.90162e-12 -6.29133e-12 -5.8846e-12 -5.64141e-12 -5.43802e-12 -5.05351e-12 -4.60778e-12 -4.48691e-12 -4.50478e-12 -4.53706e-12 -4.66644e-12 -4.59976e-12 -4.40223e-12 -4.26525e-12 -4.03722e-12 -3.71503e-12 -3.40053e-12 -2.98753e-12 -2.42731e-12 -1.76854e-12 -8.18669e-13 2.66857e-13 1.34758e-12 2.22778e-12 2.84683e-12 3.42983e-12 3.95334e-12 4.12346e-12 4.06522e-12 3.58715e-12 2.81492e-12 1.93193e-12 1.1053e-12 5.24759e-13 1.90394e-13 3.01605e-14 -2.22045e-14 -4.94266e-14 -7.66219e-14 -1.01778e-13 -8.28515e-14 -7.9929e-14 -1.01398e-13 -9.30139e-14 -7.74623e-14 -8.14616e-14 -8.54195e-14 -8.08488e-14 -7.93729e-14 -8.36154e-14 -9.19152e-14 -7.79618e-14 -3.50668e-14 -4.42851e-15 3.08001e-15 3.14546e-15 -2.95024e-14 1.12053e-15 5.89732e-14 4.9177e-15 -7.98567e-14 -1.05631e-13 -9.77036e-14 -1.1859e-13 -6.7344e-14 -1.76736e-15 -7.18542e-14 -6.61076e-14 -4.31997e-14 -9.16696e-14 -4.30938e-14 -3.01326e-14 -7.83042e-14 -2.91233e-14 -1.30107e-14 0 0 2.5444e-15 4.54113e-15 4.77388e-15 2.36024e-15 1.39315e-15 4.93928e-15 5.20372e-15 2.38575e-15 2.84981e-15 6.33239e-15 5.83272e-15 2.59529e-15 2.53055e-15 1.19203e-15 1.30116e-15 6.69578e-15 6.14215e-15 5.08668e-15 8.94134e-15 9.783e-15 1.58076e-14 1.80239e-14 4.46954e-15 -4.17849e-15 -6.42098e-15 -4.06661e-15 -3.91301e-15 -5.78182e-15 -5.30782e-15 -5.86891e-15 -1.28486e-14 -1.35047e-14 3.46495e-15 5.31042e-15 -9.13208e-15 -1.35163e-14 -1.45086e-14 -1.32689e-14 3.7578e-15 -4.41548e-15 -1.24974e-14 -3.25306e-15 7.52925e-15 2.05129e-14 8.50364e-15 1.23335e-14 6.20177e-15 -2.71766e-15 5.60976e-16 -1.19748e-14 -1.59578e-14 -9.91214e-15 -1.7667e-14 -5.14594e-14 -5.73774e-14 -5.22569e-14 -5.60858e-14 -2.02665e-14 1.48182e-15 -1.10777e-14 1.10804e-14 1.98285e-14 -1.66085e-15 -6.38603e-15 -1.72829e-15 -1.51658e-15 2.04026e-15 1.96044e-14 1.96153e-14 -1.01256e-14 -2.15038e-14 -1.28696e-14 9.07414e-15 -1.82264e-14 -1.79935e-14 8.37438e-15 1.86788e-15 -9.04213e-15 -3.16524e-14 7.82406e-16 3.98906e-14 3.04869e-15 -3.09395e-14 -2.32507e-14 -2.74118e-14 -8.49452e-14 -1.33904e-13 -1.47655e-13 1.67326e-13 1.40851e-12 3.13235e-12 4.26389e-12 4.14455e-12 2.45198e-12 -4.64509e-13 -3.54893e-12 -5.98964e-12 -7.66066e-12 -7.60804e-12 -7.09508e-12 -9.4171e-12 -8.6722e-12 -7.21107e-12 -5.41865e-12 -3.14392e-12 -4.05871e-12 -1.6806e-11 -3.66178e-11 -5.46121e-11 -6.23e-11 -5.95922e-11 -5.21983e-11 -4.38885e-11 -3.62715e-11 -2.9786e-11 -2.4558e-11 -2.04595e-11 -1.71936e-11 -1.46581e-11 -1.2744e-11 -1.13127e-11 -1.01367e-11 -8.97097e-12 -7.83362e-12 -6.88282e-12 -6.22074e-12 -5.81012e-12 -5.63346e-12 -5.46933e-12 -5.08671e-12 -4.63214e-12 -4.55677e-12 -4.58865e-12 -4.53008e-12 -4.5852e-12 -4.5299e-12 -4.37838e-12 -4.20911e-12 -3.90406e-12 -3.66662e-12 -3.32187e-12 -2.82571e-12 -2.29138e-12 -1.60109e-12 -8.32157e-13 9.8596e-14 1.22629e-12 2.12842e-12 2.78857e-12 3.47998e-12 4.08082e-12 4.13275e-12 3.98649e-12 3.59326e-12 2.78824e-12 1.86041e-12 1.06499e-12 4.97367e-13 1.76252e-13 -7.34171e-16 -7.22907e-14 -6.35542e-14 -5.43077e-14 -3.34974e-14 -3.7788e-14 -5.9856e-14 -6.52797e-14 -8.49913e-14 -9.05206e-14 -8.30695e-14 -9.35369e-14 -6.51982e-14 -3.32705e-14 -1.18048e-14 2.73559e-14 2.94811e-14 -3.11444e-14 -4.80258e-14 -2.39549e-14 -1.78074e-14 -6.84009e-16 -3.41618e-14 -8.59141e-14 -5.61927e-14 5.74773e-14 9.97773e-14 5.02711e-14 1.01075e-14 -5.89946e-14 -1.30226e-13 -5.9051e-14 -9.28901e-15 -1.84903e-14 3.50935e-14 1.27929e-14 -1.96802e-14 -2.91447e-16 -2.63149e-14 2.34064e-14 0 0 7.60072e-15 5.36287e-15 5.53064e-15 8.13574e-15 9.58716e-15 8.28882e-15 8.21982e-15 1.0364e-14 1.08122e-14 9.51269e-15 5.80115e-15 3.36126e-15 5.27341e-15 9.68393e-15 1.38632e-14 1.32391e-14 1.43135e-14 1.53401e-14 8.73434e-15 -3.36513e-15 -8.57235e-15 -1.66249e-15 5.5915e-15 4.87962e-15 2.80787e-15 3.50476e-15 8.79926e-15 1.54516e-14 9.04678e-15 1.8435e-15 8.52234e-15 3.72423e-15 -5.21161e-15 1.99127e-15 7.34135e-15 6.53925e-15 1.38125e-14 1.43937e-14 2.453e-15 2.16847e-15 -8.98377e-15 -1.29075e-14 -1.10006e-14 -1.07568e-14 -7.01546e-15 -8.51173e-15 8.26291e-15 1.24304e-14 1.05067e-14 1.35363e-14 9.62383e-15 2.93888e-15 -7.96101e-15 -6.97555e-15 -2.05489e-14 -5.47844e-14 -6.89698e-14 -5.54539e-14 -2.74725e-14 -1.77511e-14 -1.30082e-14 2.18293e-14 2.31085e-14 -1.07774e-14 -6.69134e-15 1.35548e-14 1.1955e-14 -7.73167e-15 -1.0341e-15 -1.62792e-15 -1.74568e-14 2.77568e-14 1.78306e-14 -9.26809e-15 -5.62927e-15 -2.13735e-14 -8.78933e-15 1.00391e-14 2.02611e-14 1.49063e-15 -3.107e-14 -1.38161e-14 3.82489e-16 -9.74004e-15 -1.05377e-15 -2.27464e-14 -8.29028e-14 -9.30927e-14 1.02146e-13 8.70674e-13 1.9271e-12 2.62711e-12 2.58332e-12 1.50946e-12 -2.85179e-13 -2.18489e-12 -3.71422e-12 -4.75444e-12 -4.71131e-12 -4.38836e-12 -5.81676e-12 -5.34105e-12 -4.44507e-12 -3.35788e-12 -1.91733e-12 -2.45154e-12 -1.04324e-11 -2.26912e-11 -3.37946e-11 -3.85764e-11 -3.69096e-11 -3.2287e-11 -2.71133e-11 -2.23733e-11 -1.83629e-11 -1.51841e-11 -1.26888e-11 -1.06932e-11 -9.10201e-12 -7.84551e-12 -6.88921e-12 -6.17123e-12 -5.49603e-12 -4.83696e-12 -4.282e-12 -3.8994e-12 -3.63884e-12 -3.48814e-12 -3.38949e-12 -3.14207e-12 -2.89924e-12 -2.7803e-12 -2.7317e-12 -2.79695e-12 -2.91301e-12 -2.88976e-12 -2.78752e-12 -2.64444e-12 -2.51837e-12 -2.34597e-12 -2.16697e-12 -1.93629e-12 -1.56121e-12 -1.13264e-12 -5.44015e-13 7.40472e-14 7.41521e-13 1.29663e-12 1.69003e-12 2.06971e-12 2.43482e-12 2.58178e-12 2.48917e-12 2.19871e-12 1.78414e-12 1.1918e-12 6.64559e-13 3.3116e-13 1.01477e-13 3.88395e-14 1.84336e-14 -4.01332e-14 -8.10324e-14 -1.17686e-13 -1.07444e-13 -9.51848e-14 -1.08556e-13 -7.89347e-14 -6.93737e-14 -6.12801e-14 -2.6579e-14 -8.11219e-15 1.93564e-15 -1.07532e-14 -2.51168e-14 -4.92924e-14 -1.80144e-14 3.44169e-14 3.18704e-15 1.19149e-14 5.03743e-14 2.88932e-14 9.09359e-15 -4.34406e-14 -1.31475e-13 -1.37829e-13 -5.31649e-14 2.65224e-14 5.93786e-14 1.07216e-13 6.57897e-14 -2.29303e-14 -3.21732e-14 -2.08492e-14 3.17483e-15 2.27074e-14 -2.27854e-15 -2.39815e-14 -1.05029e-13 0 0 0 0 0 0 0 0 0 0 0 0 0 0 0 0 0 0 0 0 0 0 0 0 0 0 0 0 0 0 0 0 0 0 0 0 0 0 0 0 0 0 0 0 0 0 0 0 0 0 0 0 0 0 0 0 0 0 0 0 0 0 0 0 0 0 0 0 0 0 0 0 0 0 0 0 0 0 0 0 0 0 0 0 0 0 0 0 0 0 0 0 0 0 0 0 0 0 0 0 0 0 0 0 0 0 0 0 0 