<?xml version="1.0"?>
<VTKFile type="PolyData">
	<PolyData>
		<Piece NumberOfPoints="1206" NumberOfPolys="1000">
			<Points>
				<DataArray type="Float32" NumberOfComponents="3" format="ascii">
 0 0 0 0.005 0 0 0.01 0 0 0.015 0 0 0.02 0 0 0.025 0 0 0.03 0 0 0.035 0 0 0.04 0 0 0.045 0 0 0.05 0 0 0.055 0 0 0.06 0 0 0.065 0 0 0.07 0 0 0.075 0 0 0.08 0 0 0.085 0 0 0.09 0 0 0.095 0 0 0.1 0 0 0.105 0 0 0.11 0 0 0.115 0 0 0.12 0 0 0.125 0 0 0.13 0 0 0.135 0 0 0.14 0 0 0.145 0 0 0.15 0 0 0.155 0 0 0.16 0 0 0.165 0 0 0.17 0 0 0.175 0 0 0.18 0 0 0.185 0 0 0.19 0 0 0.195 0 0 0.2 0 0 0.205 0 0 0.21 0 0 0.215 0 0 0.22 0 0 0.225 0 0 0.23 0 0 0.235 0 0 0.24 0 0 0.245 0 0 0.25 0 0 0.255 0 0 0.26 0 0 0.265 0 0 0.27 0 0 0.275 0 0 0.28 0 0 0.285 0 0 0.29 0 0 0.295 0 0 0.3 0 0 0.305 0 0 0.31 0 0 0.315 0 0 0.32 0 0 0.325 0 0 0.33 0 0 0.335 0 0 0.34 0 0 0.345 0 0 0.35 0 0 0.355 0 0 0.36 0 0 0.365 0 0 0.37 0 0 0.375 0 0 0.380001 0 0 0.385005 0 0 0.390019 0 0 0.395058 0 0 0.400153 0 0 0.405349 0 0 0.410697 0 0 0.416245 0 0 0.422036 0 0 0.428109 0 0 0.434505 0 0 0.441268 0 0 0.448452 0 0 0.45612 0 0 0.46435 0 0 0.473236 0 0 0.482891 0 0 0.493444 0 0 0.50499 0 0 0.517386 0 0 0.529869 0 0 0.542087 0 0 0.554091 0 0 0.565982 0 0 0.577829 0 0 0.580113 0 0 0.582398 0 0 0.584682 0 0 0.586967 0 0 0.589251 0 0 0.591533 0 0 0.593812 0 0 0.59609 0 0 0.598373 0 0 0.600656 0 0 0.602939 0 0 0.605222 0 0 0.607506 0 0 0.609791 0 0 0.612076 0 0 0.614363 0 0 0.61665 0 0 0.618938 0 0 0.621226 0 0 0.623511 0 0 0.625802 0 0 0.6281 0 0 0.630453 0 0 0.632904 0 0 0.635455 0 0 0.638174 0 0 0.641095 0 0 0.644289 0 0 0.647806 0 0 0.651681 0 0 0.655906 0 0 0.660436 0 0 0.665188 0 0 0.670074 0 0 0.675028 0 0 0.68001 0 0 0.685004 0 0 0.690001 0 0 0.695 0 0 0.7 0 0 0.705 0 0 0.71 0 0 0.715 0 0 0.72 0 0 0.725 0 0 0.73 0 0 0.735 0 0 0.74 0 0 0.745 0 0 0.75 0 0 0.755 0 0 0.76 0 0 0.765 0 0 0.77 0 0 0.775 0 0 0.78 0 0 0.785 0 0 0.79 0 0 0.795 0 0 0.8 0 0 0.805 0 0 0.81 0 0 0.815 0 0 0.82 0 0 0.825 0 0 0.83 0 0 0.835 0 0 0.84 0 0 0.845 0 0 0.85 0 0 0.855 0 0 0.86 0 0 0.865 0 0 0.87 0 0 0.875 0 0 0.88 0 0 0.885 0 0 0.89 0 0 0.895 0 0 0.9 0 0 0.905 0 0 0.91 0 0 0.915 0 0 0.92 0 0 0.925 0 0 0.93 0 0 0.935 0 0 0.94 0 0 0.945 0 0 0.95 0 0 0.955 0 0 0.96 0 0 0.965 0 0 0.97 0 0 0.975 0 0 0.98 0 0 0.985 0 0 0.99 0 0 0.995 0 0 1 0 0 0 0.02 0 0.005 0.02 0 0.01 0.02 0 0.015 0.02 0 0.02 0.02 0 0.025 0.02 0 0.03 0.02 0 0.035 0.02 0 0.04 0.02 0 0.045 0.02 0 0.05 0.02 0 0.055 0.02 0 0.06 0.02 0 0.065 0.02 0 0.07 0.02 0 0.075 0.02 0 0.08 0.02 0 0.085 0.02 0 0.09 0.02 0 0.095 0.02 0 0.1 0.02 0 0.105 0.02 0 0.11 0.02 0 0.115 0.02 0 0.12 0.02 0 0.125 0.02 0 0.13 0.02 0 0.135 0.02 0 0.14 0.02 0 0.145 0.02 0 0.15 0.02 0 0.155 0.02 0 0.16 0.02 0 0.165 0.02 0 0.17 0.02 0 0.175 0.02 0 0.18 0.02 0 0.185 0.02 0 0.19 0.02 0 0.195 0.02 0 0.2 0.02 0 0.205 0.02 0 0.21 0.02 0 0.215 0.02 0 0.22 0.02 0 0.225 0.02 0 0.23 0.02 0 0.235 0.02 0 0.24 0.02 0 0.245 0.02 0 0.25 0.02 0 0.255 0.02 0 0.26 0.02 0 0.265 0.02 0 0.27 0.02 0 0.275 0.02 0 0.28 0.02 0 0.285 0.02 0 0.29 0.02 0 0.295 0.02 0 0.3 0.02 0 0.305 0.02 0 0.31 0.02 0 0.315 0.02 0 0.32 0.02 0 0.325 0.02 0 0.33 0.02 0 0.335 0.02 0 0.34 0.02 0 0.345 0.02 0 0.35 0.02 0 0.355 0.02 0 0.36 0.02 0 0.365 0.02 0 0.37 0.02 0 0.375 0.02 0 0.380001 0.02 0 0.385005 0.02 0 0.390019 0.02 0 0.395058 0.02 0 0.400153 0.02 0 0.405349 0.02 0 0.410697 0.02 0 0.416245 0.02 0 0.422036 0.02 0 0.428109 0.02 0 0.434505 0.02 0 0.441268 0.02 0 0.448452 0.02 0 0.45612 0.02 0 0.46435 0.02 0 0.473236 0.02 0 0.482891 0.02 0 0.493444 0.02 0 0.50499 0.02 0 0.517386 0.02 0 0.529869 0.02 0 0.542087 0.02 0 0.554091 0.02 0 0.565982 0.02 0 0.577829 0.02 0 0.580113 0.02 0 0.582398 0.02 0 0.584682 0.02 0 0.586967 0.02 0 0.589251 0.02 0 0.591533 0.02 0 0.593812 0.02 0 0.59609 0.02 0 0.598373 0.02 0 0.600656 0.02 0 0.602939 0.02 0 0.605222 0.02 0 0.607506 0.02 0 0.609791 0.02 0 0.612076 0.02 0 0.614363 0.02 0 0.61665 0.02 0 0.618938 0.02 0 0.621226 0.02 0 0.623511 0.02 0 0.625802 0.02 0 0.6281 0.02 0 0.630453 0.02 0 0.632904 0.02 0 0.635455 0.02 0 0.638174 0.02 0 0.641095 0.02 0 0.644289 0.02 0 0.647806 0.02 0 0.651681 0.02 0 0.655906 0.02 0 0.660436 0.02 0 0.665188 0.02 0 0.670074 0.02 0 0.675028 0.02 0 0.68001 0.02 0 0.685004 0.02 0 0.690001 0.02 0 0.695 0.02 0 0.7 0.02 0 0.705 0.02 0 0.71 0.02 0 0.715 0.02 0 0.72 0.02 0 0.725 0.02 0 0.73 0.02 0 0.735 0.02 0 0.74 0.02 0 0.745 0.02 0 0.75 0.02 0 0.755 0.02 0 0.76 0.02 0 0.765 0.02 0 0.77 0.02 0 0.775 0.02 0 0.78 0.02 0 0.785 0.02 0 0.79 0.02 0 0.795 0.02 0 0.8 0.02 0 0.805 0.02 0 0.81 0.02 0 0.815 0.02 0 0.82 0.02 0 0.825 0.02 0 0.83 0.02 0 0.835 0.02 0 0.84 0.02 0 0.845 0.02 0 0.85 0.02 0 0.855 0.02 0 0.86 0.02 0 0.865 0.02 0 0.87 0.02 0 0.875 0.02 0 0.88 0.02 0 0.885 0.02 0 0.89 0.02 0 0.895 0.02 0 0.9 0.02 0 0.905 0.02 0 0.91 0.02 0 0.915 0.02 0 0.92 0.02 0 0.925 0.02 0 0.93 0.02 0 0.935 0.02 0 0.94 0.02 0 0.945 0.02 0 0.95 0.02 0 0.955 0.02 0 0.96 0.02 0 0.965 0.02 0 0.97 0.02 0 0.975 0.02 0 0.98 0.02 0 0.985 0.02 0 0.99 0.02 0 0.995 0.02 0 1 0.02 0 0 0.04 0 0.005 0.04 0 0.01 0.04 0 0.015 0.04 0 0.02 0.04 0 0.025 0.04 0 0.03 0.04 0 0.035 0.04 0 0.04 0.04 0 0.045 0.04 0 0.05 0.04 0 0.055 0.04 0 0.06 0.04 0 0.065 0.04 0 0.07 0.04 0 0.075 0.04 0 0.08 0.04 0 0.085 0.04 0 0.09 0.04 0 0.095 0.04 0 0.1 0.04 0 0.105 0.04 0 0.11 0.04 0 0.115 0.04 0 0.12 0.04 0 0.125 0.04 0 0.13 0.04 0 0.135 0.04 0 0.14 0.04 0 0.145 0.04 0 0.15 0.04 0 0.155 0.04 0 0.16 0.04 0 0.165 0.04 0 0.17 0.04 0 0.175 0.04 0 0.18 0.04 0 0.185 0.04 0 0.19 0.04 0 0.195 0.04 0 0.2 0.04 0 0.205 0.04 0 0.21 0.04 0 0.215 0.04 0 0.22 0.04 0 0.225 0.04 0 0.23 0.04 0 0.235 0.04 0 0.24 0.04 0 0.245 0.04 0 0.25 0.04 0 0.255 0.04 0 0.26 0.04 0 0.265 0.04 0 0.27 0.04 0 0.275 0.04 0 0.28 0.04 0 0.285 0.04 0 0.29 0.04 0 0.295 0.04 0 0.3 0.04 0 0.305 0.04 0 0.31 0.04 0 0.315 0.04 0 0.32 0.04 0 0.325 0.04 0 0.33 0.04 0 0.335 0.04 0 0.34 0.04 0 0.345 0.04 0 0.35 0.04 0 0.355 0.04 0 0.36 0.04 0 0.365 0.04 0 0.37 0.04 0 0.375 0.04 0 0.380001 0.04 0 0.385005 0.04 0 0.390019 0.04 0 0.395058 0.04 0 0.400153 0.04 0 0.405349 0.04 0 0.410697 0.04 0 0.416245 0.04 0 0.422036 0.04 0 0.428109 0.04 0 0.434505 0.04 0 0.441268 0.04 0 0.448452 0.04 0 0.45612 0.04 0 0.46435 0.04 0 0.473236 0.04 0 0.482891 0.04 0 0.493444 0.04 0 0.50499 0.04 0 0.517386 0.04 0 0.529869 0.04 0 0.542087 0.04 0 0.554091 0.04 0 0.565982 0.04 0 0.577829 0.04 0 0.580113 0.04 0 0.582398 0.04 0 0.584682 0.04 0 0.586967 0.04 0 0.589251 0.04 0 0.591533 0.04 0 0.593812 0.04 0 0.59609 0.04 0 0.598373 0.04 0 0.600656 0.04 0 0.602939 0.04 0 0.605222 0.04 0 0.607506 0.04 0 0.609791 0.04 0 0.612076 0.04 0 0.614363 0.04 0 0.61665 0.04 0 0.618938 0.04 0 0.621226 0.04 0 0.623511 0.04 0 0.625802 0.04 0 0.6281 0.04 0 0.630453 0.04 0 0.632904 0.04 0 0.635455 0.04 0 0.638174 0.04 0 0.641095 0.04 0 0.644289 0.04 0 0.647806 0.04 0 0.651681 0.04 0 0.655906 0.04 0 0.660436 0.04 0 0.665188 0.04 0 0.670074 0.04 0 0.675028 0.04 0 0.68001 0.04 0 0.685004 0.04 0 0.690001 0.04 0 0.695 0.04 0 0.7 0.04 0 0.705 0.04 0 0.71 0.04 0 0.715 0.04 0 0.72 0.04 0 0.725 0.04 0 0.73 0.04 0 0.735 0.04 0 0.74 0.04 0 0.745 0.04 0 0.75 0.04 0 0.755 0.04 0 0.76 0.04 0 0.765 0.04 0 0.77 0.04 0 0.775 0.04 0 0.78 0.04 0 0.785 0.04 0 0.79 0.04 0 0.795 0.04 0 0.8 0.04 0 0.805 0.04 0 0.81 0.04 0 0.815 0.04 0 0.82 0.04 0 0.825 0.04 0 0.83 0.04 0 0.835 0.04 0 0.84 0.04 0 0.845 0.04 0 0.85 0.04 0 0.855 0.04 0 0.86 0.04 0 0.865 0.04 0 0.87 0.04 0 0.875 0.04 0 0.88 0.04 0 0.885 0.04 0 0.89 0.04 0 0.895 0.04 0 0.9 0.04 0 0.905 0.04 0 0.91 0.04 0 0.915 0.04 0 0.92 0.04 0 0.925 0.04 0 0.93 0.04 0 0.935 0.04 0 0.94 0.04 0 0.945 0.04 0 0.95 0.04 0 0.955 0.04 0 0.96 0.04 0 0.965 0.04 0 0.97 0.04 0 0.975 0.04 0 0.98 0.04 0 0.985 0.04 0 0.99 0.04 0 0.995 0.04 0 1 0.04 0 0 0.06 0 0.005 0.06 0 0.01 0.06 0 0.015 0.06 0 0.02 0.06 0 0.025 0.06 0 0.03 0.06 0 0.035 0.06 0 0.04 0.06 0 0.045 0.06 0 0.05 0.06 0 0.055 0.06 0 0.06 0.06 0 0.065 0.06 0 0.07 0.06 0 0.075 0.06 0 0.08 0.06 0 0.085 0.06 0 0.09 0.06 0 0.095 0.06 0 0.1 0.06 0 0.105 0.06 0 0.11 0.06 0 0.115 0.06 0 0.12 0.06 0 0.125 0.06 0 0.13 0.06 0 0.135 0.06 0 0.14 0.06 0 0.145 0.06 0 0.15 0.06 0 0.155 0.06 0 0.16 0.06 0 0.165 0.06 0 0.17 0.06 0 0.175 0.06 0 0.18 0.06 0 0.185 0.06 0 0.19 0.06 0 0.195 0.06 0 0.2 0.06 0 0.205 0.06 0 0.21 0.06 0 0.215 0.06 0 0.22 0.06 0 0.225 0.06 0 0.23 0.06 0 0.235 0.06 0 0.24 0.06 0 0.245 0.06 0 0.25 0.06 0 0.255 0.06 0 0.26 0.06 0 0.265 0.06 0 0.27 0.06 0 0.275 0.06 0 0.28 0.06 0 0.285 0.06 0 0.29 0.06 0 0.295 0.06 0 0.3 0.06 0 0.305 0.06 0 0.31 0.06 0 0.315 0.06 0 0.32 0.06 0 0.325 0.06 0 0.33 0.06 0 0.335 0.06 0 0.34 0.06 0 0.345 0.06 0 0.35 0.06 0 0.355 0.06 0 0.36 0.06 0 0.365 0.06 0 0.37 0.06 0 0.375 0.06 0 0.380001 0.06 0 0.385005 0.06 0 0.390019 0.06 0 0.395058 0.06 0 0.400153 0.06 0 0.405349 0.06 0 0.410697 0.06 0 0.416245 0.06 0 0.422036 0.06 0 0.428109 0.06 0 0.434505 0.06 0 0.441268 0.06 0 0.448452 0.06 0 0.45612 0.06 0 0.46435 0.06 0 0.473236 0.06 0 0.482891 0.06 0 0.493444 0.06 0 0.50499 0.06 0 0.517386 0.06 0 0.529869 0.06 0 0.542087 0.06 0 0.554091 0.06 0 0.565982 0.06 0 0.577829 0.06 0 0.580113 0.06 0 0.582398 0.06 0 0.584682 0.06 0 0.586967 0.06 0 0.589251 0.06 0 0.591533 0.06 0 0.593812 0.06 0 0.59609 0.06 0 0.598373 0.06 0 0.600656 0.06 0 0.602939 0.06 0 0.605222 0.06 0 0.607506 0.06 0 0.609791 0.06 0 0.612076 0.06 0 0.614363 0.06 0 0.61665 0.06 0 0.618938 0.06 0 0.621226 0.06 0 0.623511 0.06 0 0.625802 0.06 0 0.6281 0.06 0 0.630453 0.06 0 0.632904 0.06 0 0.635455 0.06 0 0.638174 0.06 0 0.641095 0.06 0 0.644289 0.06 0 0.647806 0.06 0 0.651681 0.06 0 0.655906 0.06 0 0.660436 0.06 0 0.665188 0.06 0 0.670074 0.06 0 0.675028 0.06 0 0.68001 0.06 0 0.685004 0.06 0 0.690001 0.06 0 0.695 0.06 0 0.7 0.06 0 0.705 0.06 0 0.71 0.06 0 0.715 0.06 0 0.72 0.06 0 0.725 0.06 0 0.73 0.06 0 0.735 0.06 0 0.74 0.06 0 0.745 0.06 0 0.75 0.06 0 0.755 0.06 0 0.76 0.06 0 0.765 0.06 0 0.77 0.06 0 0.775 0.06 0 0.78 0.06 0 0.785 0.06 0 0.79 0.06 0 0.795 0.06 0 0.8 0.06 0 0.805 0.06 0 0.81 0.06 0 0.815 0.06 0 0.82 0.06 0 0.
[...]
			<PointData Scalars="VitesseX">
				<DataArray Name="VitesseX" type="Float32" format="ascii">
 0 -7.50424e-16 -1.84929e-15 -1.98308e-15 -2.03455e-15 1.05328e-15 1.42493e-15 5.162e-15 1.37447e-15 -3.9528e-15 1.85675e-15 -3.17106e-15 8.77397e-15 -3.5278e-15 7.26278e-15 -1.1569e-14 4.67467e-15 -4.91829e-15 -1.31416e-15 6.14413e-15 -2.44425e-15 1.19742e-14 4.21674e-15 9.53974e-15 -7.39234e-15 2.29525e-14 -9.16009e-15 3.56533e-15 -1.47523e-14 1.69867e-14 -1.18727e-14 1.4857e-14 2.02184e-14 -1.94709e-14 7.43612e-15 1.5508e-14 3.09396e-15 -2.90525e-14 -1.48798e-14 2.64321e-14 -5.48199e-16 1.97728e-14 -2.58356e-14 1.36422e-14 1.36428e-14 -1.81673e-14 1.74645e-14 1.40569e-14 -1.49193e-14 3.77422e-14 9.50632e-15 3.78141e-15 3.54596e-14 -5.86851e-14 4.95007e-14 1.39332e-14 -2.16814e-14 1.09881e-14 2.64507e-14 8.91321e-15 1.46057e-15 2.90179e-14 1.62001e-14 -1.08569e-14 7.02075e-14 1.55645e-13 1.76196e-12 1.86543e-11 1.77968e-10 1.56971e-09 1.27213e-08 9.42687e-08 6.35411e-07 3.87138e-06 2.1162e-05 0.000102847 0.000439489 0.00162938 0.00516379 0.0138064 0.0309783 0.0588515 0.0969553 0.143042 0.194935 0.251388 0.311954 0.376633 0.445655 0.519381 0.598217 0.682475 0.771942 0.864427 0.950295 0.992554 0.970105 0.952003 0.940736 0.936079 0.934108 0.934002 0.933908 0.933807 0.933686 0.933517 0.933308 0.933045 0.93277 0.932498 0.932287 0.932096 0.931971 0.931748 0.931589 0.931316 0.931204 0.931494 0.930269 0.930342 0.930269 0.933234 0.913947 0.868251 0.884597 0.798624 0.744824 0.657002 0.560158 0.434952 0.314709 0.200712 0.111857 0.0537504 0.0227921 0.00889733 0.00331275 0.00119872 0.000424664 0.000147591 5.03219e-05 1.68206e-05 5.50758e-06 1.76521e-06 5.53444e-07 1.69657e-07 5.08295e-08 1.4879e-08 4.25436e-09 1.18806e-09 3.23976e-10 8.6282e-11 2.24395e-11 5.70513e-12 1.49735e-12 2.90484e-13 7.50692e-14 -2.59627e-15 2.55971e-14 -2.67904e-15 -2.6065e-14 2.88291e-14 -1.54309e-14 -1.14309e-13 7.67072e-14 -9.9186e-14 8.79653e-14 -4.38443e-14 7.45985e-14 1.02045e-13 -3.62555e-14 -4.6795e-14 2.90393e-14 9.43725e-15 -1.48962e-13 -1.89346e-14 3.99671e-14 -1.0553e-13 -3.26255e-14 9.58216e-14 -1.08099e-13 4.75062e-14 8.89685e-14 -1.09336e-13 -3.40514e-14 -3.62463e-16 -6.19595e-14 -1.97897e-13 1.587e-13 -1.4118e-13 6.88522e-14 -1.20721e-13 3.23375e-14 -1.00482e-13 -3.592e-15 -9.90716e-14 6.45706e-14 4.48785e-14 -9.8684e-14 -2.2341e-14 0 0 -1.21721e-15 1.09949e-15 1.24427e-15 1.75993e-15 2.03463e-15 -1.40476e-15 -2.25339e-15 1.60462e-15 4.34567e-15 -3.51843e-15 3.77211e-15 -6.20721e-15 5.71528e-15 9.98819e-15 -3.43695e-15 -8.7445e-15 -1.62466e-16 7.33924e-15 -5.68568e-15 7.05627e-15 7.40859e-15 3.41721e-15 9.88675e-15 7.25943e-15 -1.65462e-14 2.11855e-14 -2.1747e-14 1.2764e-14 6.50309e-15 8.28384e-15 -4.88488e-15 -1.61193e-15 -1.10456e-14 1.78371e-14 1.49471e-14 -1.20856e-16 -2.1826e-15 -4.95863e-15 1.8703e-15 1.76436e-14 -2.03698e-14 -7.85292e-15 1.01839e-14 2.23041e-15 1.66095e-15 -4.18521e-15 2.41151e-14 1.8979e-14 -1.43886e-14 2.81715e-14 2.55381e-14 -3.43194e-14 1.69763e-14 1.81061e-15 4.12473e-14 -4.61294e-14 4.22067e-14 1.12247e-14 -1.27818e-14 4.59455e-14 -6.55484e-15 4.05238e-14 3.24425e-14 2.95431e-14 1.64985e-13 1.78017e-12 1.86541e-11 1.77897e-10 1.56979e-09 1.27212e-08 9.42688e-08 6.35411e-07 3.87138e-06 2.1162e-05 0.000102847 0.000439489 0.00162938 0.00516379 0.0138064 0.0309783 0.0588515 0.0969553 0.143042 0.194935 0.251388 0.311954 0.376633 0.445655 0.519381 0.598217 0.682475 0.771942 0.864427 0.950295 0.992554 0.970105 0.952003 0.940736 0.936079 0.934108 0.934002 0.933908 0.933807 0.933686 0.933517 0.933308 0.933045 0.93277 0.932498 0.932287 0.932096 0.931971 0.931748 0.931589 0.931316 0.931204 0.931494 0.930269 0.930342 0.930269 0.933234 0.913947 0.868251 0.884597 0.798624 0.744824 0.657002 0.560158 0.434952 0.314709 0.200712 0.111857 0.0537504 0.0227921 0.00889733 0.00331275 0.00119872 0.000424664 0.000147591 5.03219e-05 1.68206e-05 5.50758e-06 1.76521e-06 5.53444e-07 1.69657e-07 5.08296e-08 1.48789e-08 4.25439e-09 1.18815e-09 3.24004e-10 8.62479e-11 2.24629e-11 5.6568e-12 1.46996e-12 3.9257e-13 2.56749e-14 1.85979e-14 -1.20724e-14 4.41639e-15 3.17155e-14 6.36817e-15 -4.13235e-14 -5.79e-14 8.67999e-14 -1.35531e-14 3.33542e-15 -8.28753e-14 5.89061e-14 6.63612e-14 -4.79921e-14 3.08441e-14 5.74058e-15 4.29638e-15 -1.21712e-13 -1.08656e-13 7.0652e-14 -2.59756e-14 9.994e-14 -3.34231e-14 -1.04345e-14 8.22548e-15 -5.95722e-14 5.55146e-14 -9.66341e-14 1.09818e-14 -1.14056e-13 -1.83876e-14 -1.24908e-13 7.712e-15 1.10409e-14 3.69319e-15 -1.09449e-13 -5.85289e-14 6.16757e-14 -9.77088e-14 -5.59792e-14 -2.76805e-15 4.31418e-14 -5.01509e-14 0 0 2.07773e-16 1.88904e-15 4.23384e-15 2.43063e-15 2.31853e-15 2.75355e-15 1.64218e-15 -4.73264e-15 1.20816e-15 3.23192e-15 2.73806e-15 -3.71856e-15 1.26191e-15 1.68914e-15 4.5667e-15 -1.05505e-14 1.04154e-15 3.64193e-15 -7.52285e-15 1.78455e-14 1.0449e-14 -4.80855e-15 1.80458e-14 -3.36767e-15 -2.17823e-14 2.4521e-14 -1.36236e-14 1.27724e-14 -1.05253e-15 6.36153e-15 -2.00621e-15 -2.80868e-14 1.86598e-14 7.18263e-15 1.86197e-14 -3.63561e-15 2.60103e-14 2.91334e-14 -3.85622e-15 -1.79324e-14 -3.02899e-14 9.59601e-15 2.22663e-14 1.25402e-14 -1.66604e-14 1.59115e-14 -6.06827e-15 -1.95709e-15 -7.24344e-16 4.61865e-14 1.17235e-14 -3.81997e-14 8.22279e-16 2.38643e-14 6.74288e-15 -1.06736e-15 -1.29355e-14 1.54941e-14 3.22841e-14 1.22242e-14 1.69888e-14 5.58039e-14 5.20175e-14 2.38482e-14 2.20785e-13 1.77281e-12 1.85787e-11 1.7786e-10 1.56981e-09 1.2721e-08 9.42689e-08 6.35411e-07 3.87138e-06 2.1162e-05 0.000102847 0.000439489 0.00162938 0.00516379 0.0138064 0.0309783 0.0588515 0.0969553 0.143042 0.194935 0.251388 0.311954 0.376633 0.445655 0.519381 0.598217 0.682475 0.771942 0.864427 0.950295 0.992554 0.970105 0.952003 0.940736 0.936079 0.934108 0.934002 0.933908 0.933807 0.933686 0.933517 0.933308 0.933045 0.93277 0.932498 0.932287 0.932096 0.931971 0.931748 0.931589 0.931316 0.931204 0.931494 0.930269 0.930342 0.930269 0.933234 0.913947 0.868251 0.884597 0.798624 0.744824 0.657002 0.560158 0.434952 0.314709 0.200712 0.111857 0.0537504 0.0227921 0.00889733 0.00331275 0.00119872 0.000424664 0.000147591 5.03219e-05 1.68206e-05 5.50758e-06 1.76521e-06 5.53444e-07 1.69657e-07 5.08296e-08 1.48789e-08 4.25451e-09 1.1881e-09 3.24009e-10 8.63256e-11 2.24638e-11 5.73106e-12 1.37084e-12 4.39212e-13 1.38181e-13 -1.13178e-14 -7.60294e-14 7.88282e-14 -1.32065e-13 -1.69303e-14 2.83452e-15 1.00123e-13 -6.34125e-15 3.04439e-14 3.66917e-14 6.03699e-14 -8.00273e-14 -5.37046e-14 2.70083e-14 -3.35637e-14 -1.55373e-14 -1.19212e-14 -2.58156e-14 4.64981e-14 -7.17909e-14 1.30556e-13 8.43109e-14 -2.77663e-14 -1.43727e-13 -1.21138e-13 -4.63247e-14 2.22702e-13 -5.57517e-14 -3.30918e-14 -1.37755e-14 -1.24266e-13 -5.13771e-14 2.44189e-14 -6.67794e-14 -5.46857e-14 -7.92221e-14 3.48541e-15 -1.16297e-14 -8.86177e-14 -1.05425e-13 4.99332e-14 -1.5873e-14 4.1778e-14 0 0 5.25627e-16 2.24894e-15 2.75012e-15 3.94583e-15 3.0761e-15 4.1162e-15 2.66995e-15 -9.93613e-15 6.06283e-16 6.44244e-15 1.84097e-15 9.48169e-15 -4.71843e-15 -2.06858e-15 -1.47666e-14 1.33684e-14 -1.20617e-14 -2.45175e-15 1.77487e-14 3.33402e-15 4.43516e-15 1.32973e-14 1.9327e-14 -1.83467e-14 1.38964e-14 -2.7333e-15 -2.31183e-16 -1.43166e-14 -1.1151e-14 2.04692e-14 -2.23878e-14 -3.01572e-15 2.24295e-14 -6.4799e-15 2.10107e-14 1.78202e-14 1.94938e-14 4.22159e-14 3.06668e-14 1.47253e-14 -4.35454e-15 -4.14806e-14 2.43443e-14 -4.52356e-15 1.77396e-14 -1.47568e-14 -1.5919e-14 -2.39915e-14 4.7786e-14 2.37728e-14 -5.20358e-14 -2.20136e-14 5.68298e-14 3.01436e-14 -5.18278e-14 2.48154e-14 -5.03568e-14 3.27781e-14 7.05686e-14 -7.06243e-14 4.62513e-14 9.28546e-14 4.22818e-14 9.26495e-14 2.55787e-13 1.69471e-12 1.85472e-11 1.77916e-10 1.56975e-09 1.2721e-08 9.42688e-08 6.35411e-07 3.87138e-06 2.1162e-05 0.000102847 0.000439489 0.00162938 0.00516379 0.0138064 0.0309783 0.0588515 0.0969553 0.143042 0.194935 0.251388 0.311954 0.376633 0.445655 0.519381 0.598217 0.682475 0.771942 0.864427 0.950295 0.992554 0.970105 0.952003 0.940736 0.936079 0.934108 0.934002 0.933908 0.933807 0.933686 0.933517 0.933308 0.933045 0.93277 0.932498 0.932287 0.932096 0.931971 0.931748 0.931589 0.931316 0.931204 0.931494 0.930269 0.930342 0.930269 0.933234 0.913947 0.868251 0.884597 0.798624 0.744824 0.657002 0.560158 0.434952 0.314709 0.200712 0.111857 0.0537504 0.0227921 0.00889733 0.00331275 0.00119872 0.000424664 0.000147591 5.03219e-05 1.68206e-05 5.50758e-06 1.76521e-06 5.53444e-07 1.69657e-07 5.08296e-08 1.4879e-08 4.25443e-09 1.18808e-09 3.24047e-10 8.62632e-11 2.24543e-11 5.77935e-12 1.46615e-12 4.14011e-13 1.1846e-13 3.56332e-14 -1.68685e-13 -5.87828e-14 1.69707e-14 9.01993e-14 -6.86708e-14 1.34229e-13 -2.24113e-15 1.1713e-13 -7.65686e-14 2.0973e-14 -6.57516e-14 -5.89453e-14 -1.55507e-14 3.80667e-14 3.23477e-14 3.93662e-14 -9.77976e-14 1.30591e-13 -6.96052e-14 1.59314e-13 -7.29921e-14 -4.36653e-14 -4.78265e-14 -1.05321e-13 1.87348e-14 2.45606e-13 -1.59923e-13 -7.22223e-14 -1.32079e-14 -2.13382e-13 2.09383e-13 -1.73023e-13 -7.34737e-14 -1.44051e-13 -5.87973e-15 -2.42419e-14 -3.69252e-15 -8.71197e-14 4.58279e-14 6.49367e-14 -1.35381e-13 1.53337e-13 0 0 2.22854e-15 1.81726e-15 5.39119e-15 1.22207e-14 2.9155e-15 -2.86767e-15 -5.49229e-15 -7.79086e-16 6.42914e-15 -1.59817e-14 7.38508e-15 -3.40854e-16 8.88871e-15 3.59352e-15 -1.23306e-14 1.20945e-14 -1.67343e-14 -7.80515e-15 2.30294e-14 2.48971e-15 -1.30877e-19 1.59283e-14 7.40017e-15 2.7303e-15 -5.86284e-15 -5.69342e-15 -1.71847e-14 -5.73085e-16 -1.11577e-14 3.50466e-14 -1.93984e-14 6.6356e-15 4.93292e-15 2.51078e-14 8.2069e-15 1.86682e-14 1.85811e-15 3.60048e-14 5.2853e-14 6.87122e-14 -1.85558e-14 -5.38372e-14 -1.17987e-14 3.18909e-17 3.52994e-14 -8.0372e-15 -2.73875e-14 4.84364e-15 -8.82091e-15 8.90843e-16 -4.50449e-14 -1.83688e-14 9.83043e-14 -2.91113e-14 2.09721e-14 -3.66957e-14 1.99407e-14 -2.29317e-14 2.52337e-14 7.19107e-15 4.17438e-14 8.72763e-14 6.16608e-14 1.94982e-13 2.26349e-13 1.68749e-12 1.85953e-11 1.77871e-10 1.56973e-09 1.2721e-08 9.42687e-08 6.35411e-07 3.87138e-06 2.1162e-05 0.000102847 0.000439489 0.00162938 0.00516379 0.0138064 0.0309783 0.0588515 0.0969553 0.143042 0.194935 0.251388 0.311954 0.376633 0.445655 0.519381 0.598217 0.682475 0.771942 0.864427 0.950295 0.992554 0.970105 0.952003 0.940736 0.936079 0.934108 0.934002 0.933908 0.933807 0.933686 0.933517 0.933308 0.933045 0.93277 0.932498 0.932287 0.932096 0.931971 0.931748 0.931589 0.931316 0.931204 0.931494 0.930269 0.930342 0.930269 0.933234 0.913947 0.868251 0.884597 0.798624 0.744824 0.657002 0.560158 0.434952 0.314709 0.200712 0.111857 0.0537504 0.0227921 0.00889733 0.00331275 0.00119872 0.000424664 0.000147591 5.03219e-05 1.68206e-05 5.50758e-06 1.76521e-06 5.53444e-07 1.69657e-07 5.08297e-08 1.4879e-08 4.25444e-09 1.18818e-09 3.23991e-10 8.61632e-11 2.25001e-11 5.69577e-12 1.51969e-12 3.06572e-13 -7.53969e-15 1.36218e-13 -1.67484e-13 -4.94257e-15 1.92539e-13 1.40227e-13 -3.78621e-13 7.54323e-15 1.38107e-13 2.09305e-13 -6.75059e-14 -3.12829e-14 -1.24266e-13 -2.63915e-14 1.85383e-15 6.32891e-14 1.13029e-13 2.71272e-13 -2.45163e-13 -1.47487e-13 2.04655e-14 -8.24707e-14 -1.0011e-13 6.04634e-14 1.77482e-13 2.86577e-14 3.42545e-14 -4.95065e-14 -2.73278e-13 3.39592e-14 7.78368e-14 -1.01604e-13 1.75134e-14 -4.73744e-14 -1.94033e-13 -3.1059e-14 2.64287e-14 -1.49214e-13 9.70659e-14 2.11853e-14 3.57176e-14 -2.04617e-13 1.1636e-13 1.49137e-14 0 0 5.50536e-15 -1.13356e-15 9.27819e-15 1.58565e-14 1.29989e-15 -4.2262e-15 -3.37134e-15 7.01405e-15 1.41789e-15 -2.94907e-14 5.84907e-15 -5.89383e-15 1.47797e-14 1.98887e-15 9.31029e-15 -1.48515e-15 -1.18555e-14 -1.94156e-14 1.30312e-14 1.74455e-14 9.18449e-15 -6.97297e-15 2.00407e-15 1.35074e-14 -2.70381e-14 -8.40933e-15 -1.40949e-14 1.27514e-14 1.86218e-15 1.34374e-14 2.65932e-14 -1.34287e-14 4.94675e-15 4.93025e-14 -2.75448e-15 -2.23956e-15 -7.93814e-15 4.08821e-14 5.93515e-14 3.62733e-14 -2.847e-14 -1.56508e-14 -3.4479e-14 4.33734e-14 -1.96903e-14 7.10971e-14 -6.92468e-14 8.78961e-16 -4.81431e-14 -2.27492e-16 -9.86589e-15 3.49886e-14 -8.0442e-15 -2.49019e-14 9.05242e-14 -5.45794e-14 4.12986e-14 -7.64301e-14 8.37519e-15 8.96486e-14 6.70903e-14 3.56039e-14 6.70513e-14 2.63482e-13 2.08368e-13 1.7328e-12 1.85996e-11 1.77804e-10 1.56969e-09 1.27209e-08 9.42687e-08 6.35411e-07 3.87138e-06 2.1162e-05 0.000102847 0.000439489 0.00162938 0.00516379 0.0138064 0.0309783 0.0588515 0.0969553 0.143042 0.194935 0.251388 0.311954 0.376633 0.445655 0.519381 0.598217 0.682475 0.771942 0.864427 0.950295 0.992554 0.970105 0.952003 0.940736 0.936079 0.934108 0.934002 0.933908 0.933807 0.933686 0.933517 0.933308 0.933045 0.93277 0.932498 0.932287 0.932096 0.931971 0.931748 0.931589 0.931316 0.931204 0.931494 0.930269 0.930342 0.930269 0.933234 0.913947 0.868251 0.884597 0.798624 0.744824 0.657002 0.560158 0.434952 0.314709 0.200712 0.111857 0.0537504 0.0227921 0.00889733 0.00331275 0.00119872 0.000424664 0.000147591 5.03219e-05 1.68206e-05 5.50758e-06 1.76521e-06 5.53444e-07 1.69657e-07 5.08295e-08 1.4879e-08 4.2546e-09 1.18816e-09 3.23875e-10 8.62375e-11 2.25325e-11 5.68668e-12 1.406e-12 1.6849e-13 4.79867e-14 1.38951e-13 -9.9691e-14 2.53529e-13 -3.00499e-15 8.21608e-14 -5.47273e-13 -5.20254e-14 1.71614e-13 1.73702e-13 1.7326e-13 1.38671e-13 -3.19828e-13 -7.24228e-14 1.48954e-13 -1.25245e-13 1.47798e-13 4.41242e-13 -2.51511e-13 -2.6463e-13 -6.53667e-14 -2.76614e-13 -1.17979e-13 3.1546e-13 7.56983e-14 5.61926e-14 1.45618e-13 -3.65524e-13 -1.78877e-13 1.2356e-13 3.20334e-13 -1.86356e-13 -7.82123e-14 1.43637e-13 -3.27827e-13 -1.15939e-14 1.5726e-13 -2.26264e-13 5.13318e-14 1.35439e-13 -5.49393e-14 -3.89367e-13 2.86326e-13 -1.15815e-13 0
				</DataArray>
				<DataArray Name="VitesseY" type="Float32" format="ascii">