<?xml version="1.0"?>
<VTKFile type="PolyData">
	<PolyData>
		<Piece NumberOfPoints="1206" NumberOfPolys="1000">
			<Points>
				<DataArray type="Float32" NumberOfComponents="3" format="ascii">
 0 0 0 0.005 0 0 0.01 0 0 0.015 0 0 0.02 0 0 0.025 0 0 0.03 0 0 0.035 0 0 0.04 0 0 0.045 0 0 0.05 0 0 0.055 0 0 0.06 0 0 0.065 0 0 0.07 0 0 0.075 0 0 0.08 0 0 0.085 0 0 0.09 0 0 0.095 0 0 0.1 0 0 0.105 0 0 0.11 0 0 0.115 0 0 0.12 0 0 0.125 0 0 0.13 0 0 0.135 0 0 0.14 0 0 0.145 0 0 0.15 0 0 0.155 0 0 0.16 0 0 0.165 0 0 0.17 0 0 0.175 0 0 0.18 0 0 0.185 0 0 0.19 0 0 0.195 0 0 0.2 0 0 0.205 0 0 0.21 0 0 0.215 0 0 0.22 0 0 0.225 0 0 0.23 0 0 0.235 0 0 0.24 0 0 0.245 0 0 0.25 0 0 0.255 0 0 0.26 0 0 0.265 0 0 0.27 0 0 0.275 0 0 0.28 0 0 0.285 0 0 0.29 0 0 0.295 0 0 0.3 0 0 0.305 0 0 0.31 0 0 0.315 0 0 0.32 0 0 0.325 0 0 0.33 0 0 0.335 0 0 0.34 0 0 0.345 0 0 0.35 0 0 0.355 0 0 0.36 0 0 0.365 0 0 0.37 0 0 0.375 0 0 0.38 0 0 0.385 0 0 0.39 0 0 0.395 0 0 0.4 0 0 0.405 0 0 0.41 0 0 0.415 0 0 0.42 0 0 0.425 0 0 0.43 0 0 0.435 0 0 0.44 0 0 0.445 0 0 0.45 0 0 0.455 0 0 0.46 0 0 0.465004 0 0 0.470034 0 0 0.475186 0 0 0.48073 0 0 0.487136 0 0 0.495107 0 0 0.505778 0 0 0.5192 0 0 0.521531 0 0 0.523821 0 0 0.526161 0 0 0.528624 0 0 0.531297 0 0 0.534272 0 0 0.53763 0 0 0.541422 0 0 0.545646 0 0 0.550236 0 0 0.555068 0 0 0.560016 0 0 0.565003 0 0 0.570001 0 0 0.575 0 0 0.58 0 0 0.585 0 0 0.59 0 0 0.595 0 0 0.6 0 0 0.605 0 0 0.61 0 0 0.615 0 0 0.62 0 0 0.625 0 0 0.63 0 0 0.635 0 0 0.64 0 0 0.645 0 0 0.65 0 0 0.655 0 0 0.66 0 0 0.665 0 0 0.67 0 0 0.675 0 0 0.68 0 0 0.685 0 0 0.69 0 0 0.695 0 0 0.7 0 0 0.705 0 0 0.71 0 0 0.715 0 0 0.72 0 0 0.725 0 0 0.73 0 0 0.735 0 0 0.74 0 0 0.745 0 0 0.75 0 0 0.755 0 0 0.76 0 0 0.765 0 0 0.77 0 0 0.775 0 0 0.78 0 0 0.785 0 0 0.79 0 0 0.795 0 0 0.8 0 0 0.805 0 0 0.81 0 0 0.815 0 0 0.82 0 0 0.825 0 0 0.83 0 0 0.835 0 0 0.84 0 0 0.845 0 0 0.85 0 0 0.855 0 0 0.86 0 0 0.865 0 0 0.87 0 0 0.875 0 0 0.88 0 0 0.885 0 0 0.89 0 0 0.895 0 0 0.9 0 0 0.905 0 0 0.91 0 0 0.915 0 0 0.92 0 0 0.925 0 0 0.93 0 0 0.935 0 0 0.94 0 0 0.945 0 0 0.95 0 0 0.955 0 0 0.96 0 0 0.965 0 0 0.97 0 0 0.975 0 0 0.98 0 0 0.985 0 0 0.99 0 0 0.995 0 0 1 0 0 0 0.02 0 0.005 0.02 0 0.01 0.02 0 0.015 0.02 0 0.02 0.02 0 0.025 0.02 0 0.03 0.02 0 0.035 0.02 0 0.04 0.02 0 0.045 0.02 0 0.05 0.02 0 0.055 0.02 0 0.06 0.02 0 0.065 0.02 0 0.07 0.02 0 0.075 0.02 0 0.08 0.02 0 0.085 0.02 0 0.09 0.02 0 0.095 0.02 0 0.1 0.02 0 0.105 0.02 0 0.11 0.02 0 0.115 0.02 0 0.12 0.02 0 0.125 0.02 0 0.13 0.02 0 0.135 0.02 0 0.14 0.02 0 0.145 0.02 0 0.15 0.02 0 0.155 0.02 0 0.16 0.02 0 0.165 0.02 0 0.17 0.02 0 0.175 0.02 0 0.18 0.02 0 0.185 0.02 0 0.19 0.02 0 0.195 0.02 0 0.2 0.02 0 0.205 0.02 0 0.21 0.02 0 0.215 0.02 0 0.22 0.02 0 0.225 0.02 0 0.23 0.02 0 0.235 0.02 0 0.24 0.02 0 0.245 0.02 0 0.25 0.02 0 0.255 0.02 0 0.26 0.02 0 0.265 0.02 0 0.27 0.02 0 0.275 0.02 0 0.28 0.02 0 0.285 0.02 0 0.29 0.02 0 0.295 0.02 0 0.3 0.02 0 0.305 0.02 0 0.31 0.02 0 0.315 0.02 0 0.32 0.02 0 0.325 0.02 0 0.33 0.02 0 0.335 0.02 0 0.34 0.02 0 0.345 0.02 0 0.35 0.02 0 0.355 0.02 0 0.36 0.02 0 0.365 0.02 0 0.37 0.02 0 0.375 0.02 0 0.38 0.02 0 0.385 0.02 0 0.39 0.02 0 0.395 0.02 0 0.4 0.02 0 0.405 0.02 0 0.41 0.02 0 0.415 0.02 0 0.42 0.02 0 0.425 0.02 0 0.43 0.02 0 0.435 0.02 0 0.44 0.02 0 0.445 0.02 0 0.45 0.02 0 0.455 0.02 0 0.46 0.02 0 0.465004 0.02 0 0.470034 0.02 0 0.475186 0.02 0 0.48073 0.02 0 0.487136 0.02 0 0.495107 0.02 0 0.505778 0.02 0 0.5192 0.02 0 0.521531 0.02 0 0.523821 0.02 0 0.526161 0.02 0 0.528624 0.02 0 0.531297 0.02 0 0.534272 0.02 0 0.53763 0.02 0 0.541422 0.02 0 0.545646 0.02 0 0.550236 0.02 0 0.555068 0.02 0 0.560016 0.02 0 0.565003 0.02 0 0.570001 0.02 0 0.575 0.02 0 0.58 0.02 0 0.585 0.02 0 0.59 0.02 0 0.595 0.02 0 0.6 0.02 0 0.605 0.02 0 0.61 0.02 0 0.615 0.02 0 0.62 0.02 0 0.625 0.02 0 0.63 0.02 0 0.635 0.02 0 0.64 0.02 0 0.645 0.02 0 0.65 0.02 0 0.655 0.02 0 0.66 0.02 0 0.665 0.02 0 0.67 0.02 0 0.675 0.02 0 0.68 0.02 0 0.685 0.02 0 0.69 0.02 0 0.695 0.02 0 0.7 0.02 0 0.705 0.02 0 0.71 0.02 0 0.715 0.02 0 0.72 0.02 0 0.725 0.02 0 0.73 0.02 0 0.735 0.02 0 0.74 0.02 0 0.745 0.02 0 0.75 0.02 0 0.755 0.02 0 0.76 0.02 0 0.765 0.02 0 0.77 0.02 0 0.775 0.02 0 0.78 0.02 0 0.785 0.02 0 0.79 0.02 0 0.795 0.02 0 0.8 0.02 0 0.805 0.02 0 0.81 0.02 0 0.815 0.02 0 0.82 0.02 0 0.825 0.02 0 0.83 0.02 0 0.835 0.02 0 0.84 0.02 0 0.845 0.02 0 0.85 0.02 0 0.855 0.02 0 0.86 0.02 0 0.865 0.02 0 0.87 0.02 0 0.875 0.02 0 0.88 0.02 0 0.885 0.02 0 0.89 0.02 0 0.895 0.02 0 0.9 0.02 0 0.905 0.02 0 0.91 0.02 0 0.915 0.02 0 0.92 0.02 0 0.925 0.02 0 0.93 0.02 0 0.935 0.02 0 0.94 0.02 0 0.945 0.02 0 0.95 0.02 0 0.955 0.02 0 0.96 0.02 0 0.965 0.02 0 0.97 0.02 0 0.975 0.02 0 0.98 0.02 0 0.985 0.02 0 0.99 0.02 0 0.995 0.02 0 1 0.02 0 0 0.04 0 0.005 0.04 0 0.01 0.04 0 0.015 0.04 0 0.02 0.04 0 0.025 0.04 0 0.03 0.04 0 0.035 0.04 0 0.04 0.04 0 0.045 0.04 0 0.05 0.04 0 0.055 0.04 0 0.06 0.04 0 0.065 0.04 0 0.07 0.04 0 0.075 0.04 0 0.08 0.04 0 0.085 0.04 0 0.09 0.04 0 0.095 0.04 0 0.1 0.04 0 0.105 0.04 0 0.11 0.04 0 0.115 0.04 0 0.12 0.04 0 0.125 0.04 0 0.13 0.04 0 0.135 0.04 0 0.14 0.04 0 0.145 0.04 0 0.15 0.04 0 0.155 0.04 0 0.16 0.04 0 0.165 0.04 0 0.17 0.04 0 0.175 0.04 0 0.18 0.04 0 0.185 0.04 0 0.19 0.04 0 0.195 0.04 0 0.2 0.04 0 0.205 0.04 0 0.21 0.04 0 0.215 0.04 0 0.22 0.04 0 0.225 0.04 0 0.23 0.04 0 0.235 0.04 0 0.24 0.04 0 0.245 0.04 0 0.25 0.04 0 0.255 0.04 0 0.26 0.04 0 0.265 0.04 0 0.27 0.04 0 0.275 0.04 0 0.28 0.04 0 0.285 0.04 0 0.29 0.04 0 0.295 0.04 0 0.3 0.04 0 0.305 0.04 0 0.31 0.04 0 0.315 0.04 0 0.32 0.04 0 0.325 0.04 0 0.33 0.04 0 0.335 0.04 0 0.34 0.04 0 0.345 0.04 0 0.35 0.04 0 0.355 0.04 0 0.36 0.04 0 0.365 0.04 0 0.37 0.04 0 0.375 0.04 0 0.38 0.04 0 0.385 0.04 0 0.39 0.04 0 0.395 0.04 0 0.4 0.04 0 0.405 0.04 0 0.41 0.04 0 0.415 0.04 0 0.42 0.04 0 0.425 0.04 0 0.43 0.04 0 0.435 0.04 0 0.44 0.04 0 0.445 0.04 0 0.45 0.04 0 0.455 0.04 0 0.46 0.04 0 0.465004 0.04 0 0.470034 0.04 0 0.475186 0.04 0 0.48073 0.04 0 0.487136 0.04 0 0.495107 0.04 0 0.505778 0.04 0 0.5192 0.04 0 0.521531 0.04 0 0.523821 0.04 0 0.526161 0.04 0 0.528624 0.04 0 0.531297 0.04 0 0.534272 0.04 0 0.53763 0.04 0 0.541422 0.04 0 0.545646 0.04 0 0.550236 0.04 0 0.555068 0.04 0 0.560016 0.04 0 0.565003 0.04 0 0.570001 0.04 0 0.575 0.04 0 0.58 0.04 0 0.585 0.04 0 0.59 0.04 0 0.595 0.04 0 0.6 0.04 0 0.605 0.04 0 0.61 0.04 0 0.615 0.04 0 0.62 0.04 0 0.625 0.04 0 0.63 0.04 0 0.635 0.04 0 0.64 0.04 0 0.645 0.04 0 0.65 0.04 0 0.655 0.04 0 0.66 0.04 0 0.665 0.04 0 0.67 0.04 0 0.675 0.04 0 0.68 0.04 0 0.685 0.04 0 0.69 0.04 0 0.695 0.04 0 0.7 0.04 0 0.705 0.04 0 0.71 0.04 0 0.715 0.04 0 0.72 0.04 0 0.725 0.04 0 0.73 0.04 0 0.735 0.04 0 0.74 0.04 0 0.745 0.04 0 0.75 0.04 0 0.755 0.04 0 0.76 0.04 0 0.765 0.04 0 0.77 0.04 0 0.775 0.04 0 0.78 0.04 0 0.785 0.04 0 0.79 0.04 0 0.795 0.04 0 0.8 0.04 0 0.805 0.04 0 0.81 0.04 0 0.815 0.04 0 0.82 0.04 0 0.825 0.04 0 0.83 0.04 0 0.835 0.04 0 0.84 0.04 0 0.845 0.04 0 0.85 0.04 0 0.855 0.04 0 0.86 0.04 0 0.865 0.04 0 0.87 0.04 0 0.875 0.04 0 0.88 0.04 0 0.885 0.04 0 0.89 0.04 0 0.895 0.04 0 0.9 0.04 0 0.905 0.04 0 0.91 0.04 0 0.915 0.04 0 0.92 0.04 0 0.925 0.04 0 0.93 0.04 0 0.935 0.04 0 0.94 0.04 0 0.945 0.04 0 0.95 0.04 0 0.955 0.04 0 0.96 0.04 0 0.965 0.04 0 0.97 0.04 0 0.975 0.04 0 0.98 0.04 0 0.985 0.04 0 0.99 0.04 0 0.995 0.04 0 1 0.04 0 0 0.06 0 0.005 0.06 0 0.01 0.06 0 0.015 0.06 0 0.02 0.06 0 0.025 0.06 0 0.03 0.06 0 0.035 0.06 0 0.04 0.06 0 0.045 0.06 0 0.05 0.06 0 0.055 0.06 0 0.06 0.06 0 0.065 0.06 0 0.07 0.06 0 0.075 0.06 0 0.08 0.06 0 0.085 0.06 0 0.09 0.06 0 0.095 0.06 0 0.1 0.06 0 0.105 0.06 0 0.11 0.06 0 0.115 0.06 0 0.12 0.06 0 0.125 0.06 0 0.13 0.06 0 0.135 0.06 0 0.14 0.06 0 0.145 0.06 0 0.15 0.06 0 0.155 0.06 0 0.16 0.06 0 0.165 0.06 0 0.17 0.06 0 0.175 0.06 0 0.18 0.06 0 0.185 0.06 0 0.19 0.06 0 0.195 0.06 0 0.2 0.06 0 0.205 0.06 0 0.21 0.06 0 0.215 0.06 0 0.22 0.06 0 0.225 0.06 0 0.23 0.06 0 0.235 0.06 0 0.24 0.06 0 0.245 0.06 0 0.25 0.06 0 0.255 0.06 0 0.26 0.06 0 0.265 0.06 0 0.27 0.06 0 0.275 0.06 0 0.28 0.06 0 0.285 0.06 0 0.29 0.06 0 0.295 0.06 0 0.3 0.06 0 0.305 0.06 0 0.31 0.06 0 0.315 0.06 0 0.32 0.06 0 0.325 0.06 0 0.33 0.06 0 0.335 0.06 0 0.34 0.06 0 0.345 0.06 0 0.35 0.06 0 0.355 0.06 0 0.36 0.06 0 0.365 0.06 0 0.37 0.06 0 0.375 0.06 0 0.38 0.06 0 0.385 0.06 0 0.39 0.06 0 0.395 0.06 0 0.4 0.06 0 0.405 0.06 0 0.41 0.06 0 0.415 0.06 0 0.42 0.06 0 0.425 0.06 0 0.43 0.06 0 0.435 0.06 0 0.44 0.06 0 0.445 0.06 0 0.45 0.06 0 0.455 0.06 0 0.46 0.06 0 0.465004 0.06 0 0.470034 0.06 0 0.475186 0.06 0 0.48073 0.06 0 0.487136 0.06 0 0.495107 0.06 0 0.505778 0.06 0 0.5192 0.06 0 0.521531 0.06 0 0.523821 0.06 0 0.526161 0.06 0 0.528624 0.06 0 0.531297 0.06 0 0.534272 0.06 0 0.53763 0.06 0 0.541422 0.06 0 0.545646 0.06 0 0.550236 0.06 0 0.555068 0.06 0 0.560016 0.06 0 0.565003 0.06 0 0.570001 0.06 0 0.575 0.06 0 0.58 0.06 0 0.585 0.06 0 0.59 0.06 0 0.595 0.06 0 0.6 0.06 0 0.605 0.06 0 0.61 0.06 0 0.615 0.06 0 0.62 0.06 0 0.625 0.06 0 0.63 0.06 0 0.635 0.06 0 0.64 0.06 0 0.645 0.06 0 0.65 0.06 0 0.655 0.06 0 0.66 0.06 0 0.665 0.06 0 0.67 0.06 0 0.675 0.06 0 0.68 0.06 0 0.685 0.06 0 0.69 0.06 0 0.695 0.06 0 0.7 0.06 0 0.705 0.06 0 0.71 0.06 0 0.715 0.06 0 0.72 0.06 0 0.725 0.06 0 0.73 0.06 0 0.735 0.06 0 0.74 0.06 0 0.745 0.06 0 0.75 0.06 0 0.755 0.06 0 0.76 0.06 0 0.765 0.06 0 0.77 0.06 0 0.775 0.06 0 0.78 0.06 0 0.785 0.06 0 0.79 0.06 0 0.795 0.06 0 0.8 0.06 0 0.805 0.06 0 0.81 0.06 0 0.815 0.06 0 0.82 0.06 0 0.825 0.06 0 0.83 0.06 0 0.835 0.06 0 0.84 0.06 0 0.845 0.06 0 0.85 0.06 0 0.855 0.06 0 0.86 0.06 0 0.865 0.06 0 0.87 0.06 0 0.875 0.06 0 0.88 0.06 0 0.885 0.06 0 0.89 0.06 0 0.895 0.06 0 0.9 0.06 0 0.905 0.06 0 0.91 0.06 0 0.915 0.06 0 0.92 0.06 0 0.925 0.06 0 0.93 0.06 0 0.935 0.06 0 0.94 0.06 0 0.945 0.06 0 0.95 0.06 0 0.955 0.06 0 0.96 0.06 0 0.965 0.06 0 0.97 0.06 0 0.975 0.06 0 0.98 0.06 0 0.985 0.06 0 0.99 0.06 0 0.995 0.06 0 1 0.06 0 0 0.08 0 0.005 0.08 0 0.01 0.08 0 0.015 0.08 0 0.02 0.08 0 0.025 0.08 0 0.03 0.08 0 0.035 0.08 0 0.04 0.08 0 0.045 0.08 0 0.
[...]
			<PointData Scalars="VitesseX">
				<DataArray Name="VitesseX" type="Float32" format="ascii">
 0 -7.03327e-16 -8.39308e-16 -1.35322e-15 2.19253e-15 2.6284e-15 -2.7875e-15 -4.06086e-15 2.31345e-15 3.6911e-15 1.02872e-15 -3.16835e-15 -4.39824e-15 1.55982e-14 -1.93766e-14 1.08511e-14 8.92416e-16 -1.3438e-14 1.29065e-14 1.32943e-16 -5.532e-15 -1.38003e-15 2.18953e-15 3.69433e-15 -1.04928e-14 2.24513e-14 -2.32484e-14 4.7082e-15 3.61388e-16 -4.3287e-15 6.83192e-15 6.64838e-15 8.7043e-15 -2.16344e-14 -4.89001e-15 1.82548e-14 -2.60528e-14 1.60236e-14 8.48872e-15 -1.34572e-14 1.7628e-14 -4.07034e-15 -1.41376e-14 2.48615e-14 -2.30651e-14 9.66626e-15 -2.42272e-14 1.68905e-14 -1.36603e-14 1.84147e-14 1.56128e-14 0 -3.80247e-14 3.07432e-14 8.72349e-15 -6.84615e-15 -2.86672e-14 4.26994e-14 -5.72973e-14 4.12211e-14 8.81473e-15 -4.98962e-14 4.85296e-14 0 0 0 -4.85296e-14 4.85296e-14 2.43851e-15 -1.01982e-14 2.18764e-14 -2.99914e-14 3.64321e-14 -3.29397e-14 2.57585e-14 6.90617e-16 5.80268e-15 -5.00586e-15 1.87405e-15 -3.94104e-14 -1.99946e-14 4.15955e-14 -3.08116e-14 1.66844e-14 7.10427e-15 8.38606e-14 2.24071e-12 7.96693e-11 2.38819e-09 5.93968e-08 1.20504e-06 1.94916e-05 0.000243806 0.00226105 0.014709 0.0637041 0.183816 0.385162 0.659839 0.974084 0.958174 0.98436 0.982864 0.960112 0.904661 0.816473 0.690952 0.537681 0.371047 0.216121 0.0992242 0.0340565 0.00908449 0.00206672 0.000424693 8.0511e-05 1.41835e-05 2.3296e-06 3.57469e-07 5.13234e-08 6.90327e-09 8.70809e-10 1.03086e-10 1.15132e-11 1.21141e-12 9.68544e-14 5.69914e-14 -8.02998e-14 -2.04315e-15 5.50363e-14 -6.75457e-14 8.58424e-14 -4.88337e-14 1.34958e-14 -1.83955e-15 3.46732e-14 -1.82999e-16 -5.78865e-14 8.95198e-15 1.77591e-14 -2.77259e-14 3.01909e-14 1.29363e-14 -2.09836e-14 -2.33842e-14 5.09373e-14 -3.38536e-14 2.95058e-14 -1.86919e-14 -1.47467e-15 9.05906e-15 -2.39219e-15 4.27723e-14 -7.37301e-14 3.28739e-14 -9.89679e-15 1.39515e-14 8.03635e-14 -9.54894e-15 5.55937e-15 -3.68578e-14 -4.75025e-14 -2.15526e-14 6.29971e-15 -1.22545e-14 7.71627e-14 -1.23569e-13 8.60466e-14 -1.89258e-14 1.09051e-14 -1.12546e-14 -4.25375e-14 3.92263e-14 -1.65202e-14 4.90846e-14 -4.4377e-14 2.22361e-14 -2.61762e-15 3.3957e-15 3.318e-14 -8.55735e-14 1.76593e-14 -3.20875e-14 1.06224e-13 2.43943e-16 -9.37321e-14 6.84445e-14 -3.17097e-14 -5.95829e-15 -6.35135e-17 -4.21561e-14 1.00284e-14 -3.48681e-14 1.05653e-13 -7.14972e-14 -1.05575e-14 2.62087e-14 4.38048e-14 -6.9881e-14 0 0 0 0 -4.82433e-16 1.28579e-15 -1.89825e-15 3.03768e-17 -2.33422e-15 5.29024e-15 -4.95474e-15 5.44039e-15 -4.01378e-15 4.06065e-15 -6.03791e-16 -1.06153e-14 1.15633e-14 -2.0185e-16 -9.83273e-15 9.31757e-15 -8.02981e-15 8.79189e-15 5.07443e-15 -1.19813e-14 -1.78433e-15 4.41876e-15 -2.38503e-15 1.37681e-14 -2.5198e-14 4.94927e-15 1.4269e-14 6.32005e-16 -7.18957e-15 2.07629e-14 -1.91114e-14 -9.19248e-15 1.34581e-14 -4.17754e-15 -1.13119e-14 5.64453e-15 1.10985e-14 -1.44039e-14 1.77592e-14 -2.41501e-15 -2.59223e-14 2.3303e-14 3.61393e-15 -1.20195e-14 -1.03834e-14 5.74744e-15 -4.51255e-15 2.09359e-14 7.80638e-15 -7.2927e-15 -1.4789e-14 3.54205e-14 -3.72068e-14 2.12759e-14 -2.51303e-14 8.80635e-15 9.33777e-15 1.59183e-14 -6.32106e-15 -4.13051e-14 4.63422e-14 7.35793e-17 -3.11385e-15 -2.01578e-15 -4.05171e-14 3.24477e-14 2.07569e-14 5.43497e-15 -1.44352e-14 6.96516e-17 2.29272e-14 4.34834e-15 -3.75738e-14 2.49305e-14 3.21121e-14 -3.77222e-14 1.85278e-15 -1.71864e-14 -1.5571e-14 3.12767e-15 -3.03401e-14 4.79693e-14 1.80728e-14 8.12511e-14 2.2916e-12 7.96221e-11 2.38814e-09 5.93968e-08 1.20504e-06 1.94916e-05 0.000243806 0.00226105 0.014709 0.0637041 0.183816 0.385162 0.659839 0.974084 0.958174 0.98436 0.982864 0.960112 0.904661 0.816473 0.690952 0.537681 0.371047 0.216121 0.0992242 0.0340565 0.00908449 0.00206672 0.000424693 8.0511e-05 1.41835e-05 2.3296e-06 3.57469e-07 5.13234e-08 6.90329e-09 8.70808e-10 1.03107e-10 1.1498e-11 1.20165e-12 1.05164e-13 3.49075e-14 -2.11586e-14 -5.0984e-14 8.03526e-14 -7.31386e-14 9.04921e-14 -2.61019e-14 -1.87713e-14 5.65509e-14 -4.94521e-14 3.16305e-14 -4.877e-14 1.7524e-14 -5.20513e-14 -2.27637e-15 8.63854e-14 3.60557e-15 -8.20598e-14 1.02675e-14 5.84137e-14 -2.3221e-14 2.9834e-14 -2.17747e-14 3.39837e-15 5.3248e-14 -7.73143e-14 7.05958e-14 -8.23203e-14 7.01587e-14 -4.71934e-14 6.72776e-14 5.34796e-14 -5.38929e-14 8.93216e-14 -1.14101e-13 -5.40567e-14 1.95815e-14 4.57444e-14 -3.64205e-14 -3.24287e-14 4.69864e-14 2.14181e-14 -9.26031e-14 3.56916e-14 -4.23928e-15 -6.7487e-14 1.0678e-13 -4.98563e-14 -1.06463e-14 2.57906e-14 3.11432e-14 2.22859e-14 -4.60791e-14 -2.11482e-14 -1.52505e-14 -3.21211e-14 5.27203e-14 1.73077e-14 -5.46178e-15 9.324e-15 -9.51801e-15 -3.45144e-14 1.51234e-14 -1.9989e-14 -1.647e-14 -7.40625e-15 1.95778e-14 -2.2223e-14 4.86119e-14 -3.70114e-14 -3.05551e-14 5.59359e-14 -3.60028e-14 -1.48616e-14 0 0 4.37093e-16 5.063e-16 1.95093e-15 4.48957e-16 -3.66324e-15 -2.78049e-15 3.69068e-15 1.22871e-16 5.62611e-16 1.28679e-15 -4.27044e-15 3.12502e-15 -1.14702e-14 1.25147e-14 -4.21988e-15 1.93512e-15 1.29794e-14 -1.15223e-14 -3.39222e-15 4.8011e-15 -3.7839e-15 4.73007e-15 -1.86711e-15 -3.17651e-15 1.85829e-15 7.28504e-15 -1.86145e-14 1.39808e-14 1.72866e-14 -2.6555e-14 2.41382e-14 -8.93371e-15 -1.80847e-14 1.9327e-14 -1.44704e-14 8.73297e-15 -1.63127e-14 4.35361e-15 1.42959e-14 -1.4092e-14 2.00868e-14 -2.49136e-14 1.48487e-14 -3.36898e-17 -2.25823e-15 -4.41783e-15 1.41052e-14 -8.42392e-15 -3.33546e-15 4.77124e-15 1.84235e-15 4.34089e-14 -2.4527e-16 -5.06079e-14 -3.99866e-15 4.70461e-14 -3.95792e-14 5.44709e-15 3.12858e-14 7.64962e-16 -3.44096e-14 2.47267e-14 2.03613e-14 -3.20939e-14 -3.04633e-15 -3.99467e-14 4.10953e-14 2.98421e-14 5.98599e-15 -6.59202e-14 6.96474e-14 1.90785e-14 -1.18595e-14 -7.116e-14 4.95601e-14 5.42612e-14 -5.53312e-14 3.65412e-14 -3.20801e-15 -1.28013e-14 -4.5538e-14 -1.92057e-14 4.40082e-14 3.81405e-14 3.51889e-14 2.27175e-12 7.96912e-11 2.38807e-09 5.93969e-08 1.20504e-06 1.94916e-05 0.000243806 0.00226105 0.014709 0.0637041 0.183816 0.385162 0.659839 0.974084 0.958174 0.98436 0.982864 0.960112 0.904661 0.816473 0.690952 0.537681 0.371047 0.216121 0.0992242 0.0340565 0.00908449 0.00206672 0.000424693 8.0511e-05 1.41835e-05 2.3296e-06 3.57469e-07 5.13234e-08 6.90326e-09 8.70863e-10 1.03112e-10 1.1465e-11 1.17924e-12 1.35925e-13 3.88724e-14 -3.11996e-14 4.67121e-14 -8.04684e-14 1.38699e-14 6.7634e-14 -7.56396e-14 2.63302e-14 4.83307e-14 -8.96116e-14 8.88135e-14 -1.10795e-14 3.41225e-14 -1.08559e-13 -1.59345e-14 7.07349e-14 5.09447e-14 -8.42372e-14 1.28502e-14 4.66221e-14 1.75226e-14 -5.51141e-15 -3.74309e-14 8.51899e-14 2.71825e-14 -7.09314e-14 2.30998e-14 -2.26113e-14 5.97222e-15 3.02807e-15 6.92414e-14 2.32337e-14 -5.72808e-14 5.59689e-14 -1.18956e-13 -1.71227e-14 7.22962e-14 5.07839e-14 -3.39721e-14 -7.75468e-14 1.6043e-13 -1.30989e-13 -7.50341e-14 -2.01842e-14 7.15937e-14 -1.39989e-13 1.45537e-13 -7.0509e-14 2.15032e-14 3.84518e-14 6.79173e-14 -6.73254e-14 -3.65963e-14 -5.92742e-14 4.94388e-14 -3.78915e-14 1.00022e-13 -5.57443e-14 -1.03291e-14 5.05952e-14 -5.73184e-14 -1.87239e-14 1.68425e-14 -3.32008e-14 8.26392e-15 -5.97293e-14 4.50044e-14 -7.01473e-14 1.16373e-13 -8.15651e-14 3.73642e-14 -1.00826e-14 -2.18419e-14 4.03306e-14 0 0 -7.33828e-16 1.59118e-15 -1.79019e-15 2.91881e-15 -8.43201e-16 -3.48785e-15 7.86278e-16 3.50879e-15 -3.26382e-15 -4.13619e-16 -5.52945e-15 3.20251e-15 2.63979e-15 2.11705e-15 1.40755e-15 3.52634e-15 -1.27712e-14 1.22432e-14 -7.95939e-15 -9.2121e-15 5.23927e-15 2.24411e-14 -1.25735e-14 -9.90829e-15 1.42026e-14 1.32618e-14 -2.01978e-14 6.23555e-15 -1.72296e-14 1.09036e-14 9.76655e-15 1.55159e-14 -2.44501e-14 4.68004e-15 1.59535e-15 -1.88169e-14 1.42612e-14 -2.39707e-14 2.07012e-14 -1.46133e-14 2.11251e-14 1.75359e-14 -2.30193e-14 -2.31117e-14 1.29551e-14 1.88904e-14 3.36645e-15 -2.68576e-15 -2.48466e-14 2.98349e-14 -1.21859e-14 3.766e-14 1.53635e-14 -5.58067e-14 1.2364e-14 3.28875e-14 1.51027e-15 -3.57127e-14 1.59311e-14 -7.62733e-15 1.25997e-14 -5.91852e-15 2.96378e-14 -1.19437e-14 -2.82889e-14 -4.54414e-14 4.12397e-14 2.95921e-14 -9.23717e-15 -3.94021e-14 5.8498e-14 -1.2461e-14 -4.79429e-15 -2.8537e-14 5.74424e-14 -6.32626e-15 3.75323e-14 9.73681e-15 5.76021e-15 -1.27912e-14 -1.90974e-14 4.45973e-14 -9.35931e-14 3.40703e-14 1.09126e-13 2.17475e-12 7.97433e-11 2.38809e-09 5.93968e-08 1.20504e-06 1.94916e-05 0.000243806 0.00226105 0.014709 0.0637041 0.183816 0.385162 0.659839 0.974084 0.958174 0.98436 0.982864 0.960112 0.904661 0.816473 0.690952 0.537681 0.371047 0.216121 0.0992242 0.0340565 0.00908449 0.00206672 0.000424693 8.0511e-05 1.41835e-05 2.3296e-06 3.57469e-07 5.13235e-08 6.90318e-09 8.70898e-10 1.031e-10 1.14656e-11 1.16545e-12 1.53743e-13 -7.38932e-15 -4.61617e-14 1.18158e-13 -1.54724e-13 9.2423e-14 -1.20327e-14 -5.7667e-14 6.31675e-15 -1.19591e-14 1.99245e-15 6.63074e-14 9.40082e-14 -2.40077e-14 -3.42651e-14 3.00593e-14 -7.04202e-14 -1.91397e-14 4.4246e-14 4.90473e-14 -5.16899e-14 1.31886e-13 -6.80758e-14 -5.17482e-14 6.75896e-14 -5.75817e-14 9.25931e-14 2.82973e-14 -7.84281e-14 -2.73106e-14 5.64917e-14 -2.30668e-14 8.31736e-14 -3.66478e-14 -4.01431e-14 -8.88687e-14 2.86079e-14 7.6935e-14 -6.85809e-14 8.78357e-14 -6.69405e-14 9.4152e-14 -1.71755e-13 1.34049e-15 -5.99901e-14 1.07997e-14 3.05951e-14 4.2956e-14 -1.84904e-14 -6.68354e-14 1.14576e-13 -7.06764e-15 -3.6134e-14 1.51915e-14 -5.99892e-14 8.87919e-14 -1.59725e-14 3.59754e-14 -1.04724e-13 -6.12552e-14 1.1073e-13 -1.11183e-14 -5.20472e-14 2.00002e-13 -2.11236e-13 6.13922e-15 -4.70534e-14 -5.4865e-14 -1.51038e-15 1.10485e-13 2.92784e-14 -4.0388e-14 -2.99954e-14 -4.87655e-14 4.38447e-14 0 0 -5.03069e-16 1.52242e-15 -2.57917e-15 -8.12206e-16 4.99351e-16 -3.61114e-15 1.13932e-14 -1.37547e-15 2.86426e-15 -1.54527e-14 1.1703e-14 5.69115e-15 -1.07998e-14 1.02751e-14 -3.43657e-16 -4.09615e-15 -1.17992e-14 1.25022e-14 2.4386e-15 9.06886e-15 -4.11025e-15 1.22867e-15 -1.06721e-14 7.2163e-15 6.99485e-15 -1.4295e-14 -1.66553e-15 4.23985e-15 -2.16836e-14 2.13173e-14 1.23686e-14 -5.86014e-15 6.91111e-15 -1.39382e-14 1.26321e-14 -1.28765e-14 2.87302e-15 -1.46943e-14 -3.14752e-15 1.01368e-14 -1.65544e-15 2.2263e-14 -5.23788e-14 2.06656e-14 -1.19677e-14 2.70845e-14 3.25065e-15 4.07004e-15 -2.22478e-15 1.09207e-14 -1.12257e-14 8.05499e-15 3.30038e-14 -5.82924e-14 1.68652e-14 1.48282e-15 3.21683e-14 -1.67357e-14 -6.55418e-15 -3.35729e-14 3.01572e-14 6.02494e-15 1.47883e-14 7.4262e-15 -1.7227e-14 -8.66064e-15 -2.2269e-14 6.91139e-14 -2.99595e-14 7.49346e-15 -6.36768e-15 -2.23208e-14 3.30439e-14 -1.55409e-14 2.88263e-14 8.37597e-16 8.00918e-14 1.57954e-15 -7.85573e-14 -2.42575e-14 1.66678e-13 1.63893e-14 -1.18951e-13 -4.25268e-14 1.0875e-13 2.28423e-12 7.96602e-11 2.38809e-09 5.93967e-08 1.20504e-06 1.94916e-05 0.000243806 0.00226105 0.014709 0.0637041 0.183816 0.385162 0.659839 0.974084 0.958174 0.98436 0.982864 0.960112 0.904661 0.816473 0.690952 0.537681 0.371047 0.216121 0.0992242 0.0340565 0.00908449 0.00206672 0.000424693 8.0511e-05 1.41835e-05 2.3296e-06 3.57469e-07 5.13234e-08 6.90326e-09 8.70831e-10 1.03104e-10 1.14494e-11 1.26843e-12 5.74834e-14 -4.89174e-14 4.8144e-14 -6.59409e-14 6.31167e-14 5.50318e-14 -6.43758e-14 1.8225e-14 -4.6223e-14 9.07782e-14 2.23811e-14 2.39329e-14 -3.25909e-14 -5.11261e-14 -1.92336e-14 1.46902e-13 -5.17071e-14 -1.06927e-13 -1.59339e-14 9.68001e-14 -1.19101e-15 9.30135e-14 -4.1082e-14 -5.36921e-14 -3.46625e-14 -6.29288e-15 6.12623e-14 8.68561e-14 -6.37453e-14 4.71335e-14 -8.56899e-15 -7.52758e-14 -5.24388e-14 1.56405e-13 -3.72771e-14 -5.70602e-14 -2.7187e-14 2.97649e-14 -6.19194e-14 4.86533e-14 -4.98882e-14 4.06074e-14 -8.75851e-14 3.59226e-14 2.56618e-14 -1.32585e-13 7.80272e-14 -1.22996e-14 4.37099e-14 -9.06634e-14 6.20017e-14 -7.11154e-14 1.39811e-13 -2.56896e-14 -9.02275e-14 8.0883e-14 1.9265e-14 1.34739e-14 -1.02545e-13 1.46927e-15 8.58162e-14 -3.12727e-15 -9.14139e-14 2.10168e-13 -2.16813e-13 -6.53294e-15 5.07448e-14 -1.41587e-14 -6.26969e-14 6.45164e-14 3.91151e-14 2.50474e-14 -1.04907e-13 -1.40032e-14 2.08322e-15 0 0 6.32376e-16 1.00064e-15 -1.6009e-15 -5.75082e-16 -2.07373e-15 -3.92661e-15 1.39539e-14 2.70015e-15 6.19171e-15 -1.84483e-14 1.46343e-14 8.03665e-15 -1.29909e-14 -1.15766e-15 -6.87314e-16 9.18313e-15 -4.17022e-15 6.43944e-15 -3.43929e-15 3.04833e-14 -3.68428e-15 -2.72065e-14 -5.0745e-15 2.21735e-14 -1.57839e-14 -1.33961e-14 -5.35484e-15 -4.20644e-15 2.00725e-14 -1.10715e-14 1.86031e-14 -1.36923e-14 2.33036e-14 -3.03887e-14 1.97426e-14 2.59176e-14 -5.06673e-14 1.35518e-14 -3.75516e-15 3.42577e-15 -4.62768e-15 -2.66613e-15 -5.07663e-14 5.71942e-14 -2.06569e-14 4.09202e-15 3.33744e-14 -7.97143e-15 1.51157e-14 -2.82859e-14 2.01906e-14 1.9161e-14 -5.30779e-15 -2.30501e-14 -4.83927e-14 5.28763e-14 7.24445e-15 -2.71246e-14 2.69855e-14 -2.89044e-14 -9.89947e-16 2.91855e-14 1.08766e-14 -1.92202e-14 2.00628e-14 2.61725e-14 -6.11927e-14 9.96526e-14 -5.05408e-14 1.26976e-14 -2.05673e-14 9.01511e-15 1.03209e-14 -1.54219e-14 -7.28229e-15 6.44287e-14 4.48952e-14 5.49364e-14 -1.80089e-13 -3.73879e-14 3.15814e-13 -6.49588e-14 -4.19539e-14 -1.05955e-13 -9.01705e-15 2.41997e-12 7.96413e-11 2.38804e-09 5.93968e-08 1.20504e-06 1.94916e-05 0.000243806 0.00226105 0.014709 0.0637041 0.183816 0.385162 0.659839 0.974084 0.958174 0.98436 0.982864 0.960112 0.904661 0.816473 0.690952 0.537681 0.371047 0.216121 0.0992242 0.0340565 0.00908449 0.00206672 0.000424693 8.0511e-05 1.41835e-05 2.3296e-06 3.57469e-07 5.13234e-08 6.90337e-09 8.70787e-10 1.03102e-10 1.14153e-11 1.37256e-12 -3.40835e-14 -1.81926e-14 8.80595e-14 -1.75077e-13 1.69017e-13 3.17698e-14 -6.45992e-14 3.88065e-15 -1.36075e-15 1.87341e-13 -4.66277e-15 2.93784e-14 -2.35672e-13 -1.19637e-14 -6.52095e-14 1.78627e-13 3.62266e-14 -6.81825e-14 -1.45915e-13 7.71397e-14 1.28421e-13 -3.00545e-14 1.28047e-14 -5.37206e-14 -4.21805e-14 5.96776e-14 -5.21902e-14 6.50118e-14 7.51038e-14 5.33894e-14 -3.95356e-14 -8.64825e-14 -2.51163e-13 3.70005e-13 -5.5426e-14 1.69538e-14 -8.51807e-14 -1.05493e-14 2.93868e-14 -8.58563e-14 2.10456e-14 -3.67607e-15 -5.04262e-14 8.55398e-14 7.07277e-14 -1.46338e-13 -9.26612e-14 6.4306e-15 6.68899e-14 6.59457e-14 -1.24048e-13 -3.23104e-14 1.69929e-13 -5.92805e-14 -1.03483e-13 2.77504e-14 7.64692e-14 1.73498e-14 -3.54812e-14 1.16175e-13 -6.10453e-14 -1.11143e-14 -7.89697e-14 1.76135e-14 -3.73653e-14 -1.78754e-14 1.00843e-13 9.71919e-14 -1.12662e-13 -2.78752e-14 -8.01395e-14 2.92824e-13 -2.38103e-13 2.76181e-14 2.65859e-14 0
				</DataArray>
				<DataArray Name="VitesseY" type="Float32" format="ascii">