<?xml version="1.0"?>
<VTKFile type="PolyData">
	<PolyData>
		<Piece NumberOfPoints="1206" NumberOfPolys="1000">
			<Points>
				<DataArray type="Float32" NumberOfComponents="3" format="ascii">
 0 0 0 0.005 0 0 0.01 0 0 0.015 0 0 0.02 0 0 0.025 0 0 0.03 0 0 0.035 0 0 0.04 0 0 0.045 0 0 0.05 0 0 0.055 0 0 0.06 0 0 0.065 0 0 0.07 0 0 0.075 0 0 0.08 0 0 0.085 0 0 0.09 0 0 0.095 0 0 0.1 0 0 0.105 0 0 0.11 0 0 0.115 0 0 0.12 0 0 0.125 0 0 0.13 0 0 0.135 0 0 0.14 0 0 0.145 0 0 0.15 0 0 0.155 0 0 0.16 0 0 0.165 0 0 0.17 0 0 0.175 0 0 0.18 0 0 0.185 0 0 0.19 0 0 0.195 0 0 0.2 0 0 0.205 0 0 0.21 0 0 0.215 0 0 0.22 0 0 0.225 0 0 0.23 0 0 0.235 0 0 0.24 0 0 0.245 0 0 0.25 0 0 0.255 0 0 0.26 0 0 0.265 0 0 0.27 0 0 0.275 0 0 0.28 0 0 0.285 0 0 0.29 0 0 0.295 0 0 0.3 0 0 0.305 0 0 0.31 0 0 0.315 0 0 0.32 0 0 0.325 0 0 0.33 0 0 0.335 0 0 0.340001 0 0 0.345004 0 0 0.350012 0 0 0.355035 0 0 0.360088 0 0 0.365198 0 0 0.370394 0 0 0.37571 0 0 0.381173 0 0 0.386806 0 0 0.392629 0 0 0.398662 0 0 0.404927 0 0 0.411446 0 0 0.418243 0 0 0.425349 0 0 0.432795 0 0 0.440621 0 0 0.44887 0 0 0.457595 0 0 0.466857 0 0 0.476724 0 0 0.487271 0 0 0.498562 0 0 0.510581 0 0 0.523021 0 0 0.535347 0 0 0.547493 0 0 0.559478 0 0 0.571365 0 0 0.583208 0 0 0.595033 0 0 0.606853 0 0 0.609134 0 0 0.611415 0 0 0.613696 0 0 0.615976 0 0 0.618256 0 0 0.620535 0 0 0.622809 0 0 0.625083 0 0 0.627362 0 0 0.629642 0 0 0.631924 0 0 0.634207 0 0 0.63649 0 0 0.638772 0 0 0.641053 0 0 0.643334 0 0 0.645615 0 0 0.647894 0 0 0.650173 0 0 0.652452 0 0 0.654732 0 0 0.657014 0 0 0.6593 0 0 0.661588 0 0 0.663876 0 0 0.666162 0 0 0.668445 0 0 0.670725 0 0 0.673005 0 0 0.675283 0 0 0.677557 0 0 0.679852 0 0 0.682189 0 0 0.684579 0 0 0.687039 0 0 0.689658 0 0 0.692455 0 0 0.695449 0 0 0.698756 0 0 0.702393 0 0 0.706393 0 0 0.710729 0 0 0.715342 0 0 0.720146 0 0 0.725058 0 0 0.730022 0 0 0.735008 0 0 0.740003 0 0 0.745001 0 0 0.75 0 0 0.755 0 0 0.76 0 0 0.765 0 0 0.77 0 0 0.775 0 0 0.78 0 0 0.785 0 0 0.79 0 0 0.795 0 0 0.8 0 0 0.805 0 0 0.81 0 0 0.815 0 0 0.82 0 0 0.825 0 0 0.83 0 0 0.835 0 0 0.84 0 0 0.845 0 0 0.85 0 0 0.855 0 0 0.86 0 0 0.865 0 0 0.87 0 0 0.875 0 0 0.88 0 0 0.885 0 0 0.89 0 0 0.895 0 0 0.9 0 0 0.905 0 0 0.91 0 0 0.915 0 0 0.92 0 0 0.925 0 0 0.93 0 0 0.935 0 0 0.94 0 0 0.945 0 0 0.95 0 0 0.955 0 0 0.96 0 0 0.965 0 0 0.97 0 0 0.975 0 0 0.98 0 0 0.985 0 0 0.99 0 0 0.995 0 0 1 0 0 0 0.02 0 0.005 0.02 0 0.01 0.02 0 0.015 0.02 0 0.02 0.02 0 0.025 0.02 0 0.03 0.02 0 0.035 0.02 0 0.04 0.02 0 0.045 0.02 0 0.05 0.02 0 0.055 0.02 0 0.06 0.02 0 0.065 0.02 0 0.07 0.02 0 0.075 0.02 0 0.08 0.02 0 0.085 0.02 0 0.09 0.02 0 0.095 0.02 0 0.1 0.02 0 0.105 0.02 0 0.11 0.02 0 0.115 0.02 0 0.12 0.02 0 0.125 0.02 0 0.13 0.02 0 0.135 0.02 0 0.14 0.02 0 0.145 0.02 0 0.15 0.02 0 0.155 0.02 0 0.16 0.02 0 0.165 0.02 0 0.17 0.02 0 0.175 0.02 0 0.18 0.02 0 0.185 0.02 0 0.19 0.02 0 0.195 0.02 0 0.2 0.02 0 0.205 0.02 0 0.21 0.02 0 0.215 0.02 0 0.22 0.02 0 0.225 0.02 0 0.23 0.02 0 0.235 0.02 0 0.24 0.02 0 0.245 0.02 0 0.25 0.02 0 0.255 0.02 0 0.26 0.02 0 0.265 0.02 0 0.27 0.02 0 0.275 0.02 0 0.28 0.02 0 0.285 0.02 0 0.29 0.02 0 0.295 0.02 0 0.3 0.02 0 0.305 0.02 0 0.31 0.02 0 0.315 0.02 0 0.32 0.02 0 0.325 0.02 0 0.33 0.02 0 0.335 0.02 0 0.340001 0.02 0 0.345004 0.02 0 0.350012 0.02 0 0.355035 0.02 0 0.360088 0.02 0 0.365198 0.02 0 0.370394 0.02 0 0.37571 0.02 0 0.381173 0.02 0 0.386806 0.02 0 0.392629 0.02 0 0.398662 0.02 0 0.404927 0.02 0 0.411446 0.02 0 0.418243 0.02 0 0.425349 0.02 0 0.432795 0.02 0 0.440621 0.02 0 0.44887 0.02 0 0.457595 0.02 0 0.466857 0.02 0 0.476724 0.02 0 0.487271 0.02 0 0.498562 0.02 0 0.510581 0.02 0 0.523021 0.02 0 0.535347 0.02 0 0.547493 0.02 0 0.559478 0.02 0 0.571365 0.02 0 0.583208 0.02 0 0.595033 0.02 0 0.606853 0.02 0 0.609134 0.02 0 0.611415 0.02 0 0.613696 0.02 0 0.615976 0.02 0 0.618256 0.02 0 0.620535 0.02 0 0.622809 0.02 0 0.625083 0.02 0 0.627362 0.02 0 0.629642 0.02 0 0.631924 0.02 0 0.634207 0.02 0 0.63649 0.02 0 0.638772 0.02 0 0.641053 0.02 0 0.643334 0.02 0 0.645615 0.02 0 0.647894 0.02 0 0.650173 0.02 0 0.652452 0.02 0 0.654732 0.02 0 0.657014 0.02 0 0.6593 0.02 0 0.661588 0.02 0 0.663876 0.02 0 0.666162 0.02 0 0.668445 0.02 0 0.670725 0.02 0 0.673005 0.02 0 0.675283 0.02 0 0.677557 0.02 0 0.679852 0.02 0 0.682189 0.02 0 0.684579 0.02 0 0.687039 0.02 0 0.689658 0.02 0 0.692455 0.02 0 0.695449 0.02 0 0.698756 0.02 0 0.702393 0.02 0 0.706393 0.02 0 0.710729 0.02 0 0.715342 0.02 0 0.720146 0.02 0 0.725058 0.02 0 0.730022 0.02 0 0.735008 0.02 0 0.740003 0.02 0 0.745001 0.02 0 0.75 0.02 0 0.755 0.02 0 0.76 0.02 0 0.765 0.02 0 0.77 0.02 0 0.775 0.02 0 0.78 0.02 0 0.785 0.02 0 0.79 0.02 0 0.795 0.02 0 0.8 0.02 0 0.805 0.02 0 0.81 0.02 0 0.815 0.02 0 0.82 0.02 0 0.825 0.02 0 0.83 0.02 0 0.835 0.02 0 0.84 0.02 0 0.845 0.02 0 0.85 0.02 0 0.855 0.02 0 0.86 0.02 0 0.865 0.02 0 0.87 0.02 0 0.875 0.02 0 0.88 0.02 0 0.885 0.02 0 0.89 0.02 0 0.895 0.02 0 0.9 0.02 0 0.905 0.02 0 0.91 0.02 0 0.915 0.02 0 0.92 0.02 0 0.925 0.02 0 0.93 0.02 0 0.935 0.02 0 0.94 0.02 0 0.945 0.02 0 0.95 0.02 0 0.955 0.02 0 0.96 0.02 0 0.965 0.02 0 0.97 0.02 0 0.975 0.02 0 0.98 0.02 0 0.985 0.02 0 0.99 0.02 0 0.995 0.02 0 1 0.02 0 0 0.04 0 0.005 0.04 0 0.01 0.04 0 0.015 0.04 0 0.02 0.04 0 0.025 0.04 0 0.03 0.04 0 0.035 0.04 0 0.04 0.04 0 0.045 0.04 0 0.05 0.04 0 0.055 0.04 0 0.06 0.04 0 0.065 0.04 0 0.07 0.04 0 0.075 0.04 0 0.08 0.04 0 0.085 0.04 0 0.09 0.04 0 0.095 0.04 0 0.1 0.04 0 0.105 0.04 0 0.11 0.04 0 0.115 0.04 0 0.12 0.04 0 0.125 0.04 0 0.13 0.04 0 0.135 0.04 0 0.14 0.04 0 0.145 0.04 0 0.15 0.04 0 0.155 0.04 0 0.16 0.04 0 0.165 0.04 0 0.17 0.04 0 0.175 0.04 0 0.18 0.04 0 0.185 0.04 0 0.19 0.04 0 0.195 0.04 0 0.2 0.04 0 0.205 0.04 0 0.21 0.04 0 0.215 0.04 0 0.22 0.04 0 0.225 0.04 0 0.23 0.04 0 0.235 0.04 0 0.24 0.04 0 0.245 0.04 0 0.25 0.04 0 0.255 0.04 0 0.26 0.04 0 0.265 0.04 0 0.27 0.04 0 0.275 0.04 0 0.28 0.04 0 0.285 0.04 0 0.29 0.04 0 0.295 0.04 0 0.3 0.04 0 0.305 0.04 0 0.31 0.04 0 0.315 0.04 0 0.32 0.04 0 0.325 0.04 0 0.33 0.04 0 0.335 0.04 0 0.340001 0.04 0 0.345004 0.04 0 0.350012 0.04 0 0.355035 0.04 0 0.360088 0.04 0 0.365198 0.04 0 0.370394 0.04 0 0.37571 0.04 0 0.381173 0.04 0 0.386806 0.04 0 0.392629 0.04 0 0.398662 0.04 0 0.404927 0.04 0 0.411446 0.04 0 0.418243 0.04 0 0.425349 0.04 0 0.432795 0.04 0 0.440621 0.04 0 0.44887 0.04 0 0.457595 0.04 0 0.466857 0.04 0 0.476724 0.04 0 0.487271 0.04 0 0.498562 0.04 0 0.510581 0.04 0 0.523021 0.04 0 0.535347 0.04 0 0.547493 0.04 0 0.559478 0.04 0 0.571365 0.04 0 0.583208 0.04 0 0.595033 0.04 0 0.606853 0.04 0 0.609134 0.04 0 0.611415 0.04 0 0.613696 0.04 0 0.615976 0.04 0 0.618256 0.04 0 0.620535 0.04 0 0.622809 0.04 0 0.625083 0.04 0 0.627362 0.04 0 0.629642 0.04 0 0.631924 0.04 0 0.634207 0.04 0 0.63649 0.04 0 0.638772 0.04 0 0.641053 0.04 0 0.643334 0.04 0 0.645615 0.04 0 0.647894 0.04 0 0.650173 0.04 0 0.652452 0.04 0 0.654732 0.04 0 0.657014 0.04 0 0.6593 0.04 0 0.661588 0.04 0 0.663876 0.04 0 0.666162 0.04 0 0.668445 0.04 0 0.670725 0.04 0 0.673005 0.04 0 0.675283 0.04 0 0.677557 0.04 0 0.679852 0.04 0 0.682189 0.04 0 0.684579 0.04 0 0.687039 0.04 0 0.689658 0.04 0 0.692455 0.04 0 0.695449 0.04 0 0.698756 0.04 0 0.702393 0.04 0 0.706393 0.04 0 0.710729 0.04 0 0.715342 0.04 0 0.720146 0.04 0 0.725058 0.04 0 0.730022 0.04 0 0.735008 0.04 0 0.740003 0.04 0 0.745001 0.04 0 0.75 0.04 0 0.755 0.04 0 0.76 0.04 0 0.765 0.04 0 0.77 0.04 0 0.775 0.04 0 0.78 0.04 0 0.785 0.04 0 0.79 0.04 0 0.795 0.04 0 0.8 0.04 0 0.805 0.04 0 0.81 0.04 0 0.815 0.04 0 0.82 0.04 0 0.825 0.04 0 0.83 0.04 0 0.835 0.04 0 0.84 0.04 0 0.845 0.04 0 0.85 0.04 0 0.855 0.04 0 0.86 0.04 0 0.865 0.04 0 0.87 0.04 0 0.875 0.04 0 0.88 0.04 0 0.885 0.04 0 0.89 0.04 0 0.895 0.04 0 0.9 0.04 0 0.905 0.04 0 0.91 0.04 0 0.915 0.04 0 0.92 0.04 0 0.925 0.04 0 0.93 0.04 0 0.935 0.04 0 0.94 0.04 0 0.945 0.04 0 0.95 0.04 0 0.955 0.04 0 0.96 0.04 0 0.965 0.04 0 0.97 0.04 0 0.975 0.04 0 0.98 0.04 0 0.985 0.04 0 0.99 0.04 0 0.995 0.04 0 1 0.04 0 0 0.06 0 0.005 0.06 0 0.01 0.06 0 0.015 0.06 0 0.02 0.06 0 0.025 0.06 0 0.03 0.06 0 0.035 0.06 0 0.04 0.06 0 0.045 0.06 0 0.05 0.06 0 0.055 0.06 0 0.06 0.06 0 0.065 0.06 0 0.07 0.06 0 0.075 0.06 0 0.08 0.06 0 0.085 0.06 0 0.09 0.06 0 0.095 0.06 0 0.1 0.06 0 0.105 0.06 0 0.11 0.06 0 0.115 0.06 0 0.12 0.06 0 0.125 0.06 0 0.13 0.06 0 0.135 0.06 0 0.14 0.06 0 0.145 0.06 0 0.15 0.06 0 0.155 0.06 0 0.16 0.06 0 0.165 0.06 0 0.17 0.06 0 0.175 0.06 0 0.18 0.06 0 0.185 0.06 0 0.19 0.06 0 0.195 0.06 0 0.2 0.06 0 0.205 0.06 0 0.21 0.06 0 0.215 0.06 0 0.22 0.06 0 0.225 0.06 0 0.23 0.06 0 0.235 0.06 0 0.24 0.06 0 0.245 0.06 0 0.25 0.06 0 0.255 0.06 0 0.26 0.06 0 0.265 0.06 0 0.27 0.06 0 0.275 0.06 0 0.28 0.06 0 0.285 0.06 0 0.29 0.06 0 0.295 0.06 0 0.3 0.06 0 0.305 0.06 0 0.31 0.06 0 0.315 0.06 0 0.32 0.06 0 0.325 0.06 0 0.33 0.06 0 0.335 0.06 0 0.340001 0.06 0 0.345004 0.06 0 0.350012 0.06 0 0.355035 0.06 0 0.360088 0.06 0 0.365198 0.06 0 0.370394 0.06 0 0.37571 0.06 0 0.381173 0.06 0 0.386806 0.06 0 0.392629 0.06 0 0.398662 0.06 0 0.404927 0.06 0 0.411446 0.06 0 0.418243 0.06 0 0.425349 0.06 0 0.432795 0.06 0 0.440621 0.06 0 0.44887 0.06 0 0.457595 0.06 0 0.466857 0.06 0 0.476724 0.06 0 0.487271 0.06 0 0.498562 0.06 0 0.510581 0.06 0 0.523021 0.06 0 0.535347 0.06 0 0.547493 0.06 0 0.559478 0.06 0 0.571365 0.06 0 0.583208 0.06 0 0.595033 0.06 0 0.606853 0.06 0 0.609134 0.06 0 0.611415 0.06 0 0.613696 0.06 0 0.615976 0.06 0 0.618256 0.06 0 0.620535 0.06 0 0.622809 0.06 0 0.625083 0.06 0 0.627362 0.06 0 0.629642 0.06 0 0.631924 0.06 0 0.634207 0.06 0 0.63649 0.06 0 0.638772 0.06 0 0.641053 0.06 0 0.643334 0.06 0 0.645615 0.06 0 0.647894 0.06 0 0.650173 0.06 0 0.652452 0.06 0 0.654732 0.06 0 0.657014 0.06 0 0.6593 0.06 0 0.661588 0.06 0 0.663876 0.06 0 0.666162 0.06 0 0.668445 0.06 0 0.670725 0.06 0 0.673005 0.06 0 0.675283 0.06 0 0.677557 0.06 0 0.679852 0.06 0 0.682189 0.06 0 0.684579 0.06 0 0.687039 0.06 0 0.689658 0.06 0 0.692455 0.06 0 0.695449 0.06 0 0.698756 0.06 0 0.702393 0.06 0 0.706393 0.06 0 0.710729 0.06 0 0.715342 0.06 0 0.72
[...]
			<PointData Scalars="VitesseX">
				<DataArray Name="VitesseX" type="Float32" format="ascii">
 0 0 0 0 0 0 0 0 0 0 0 0 0 0 0 0 0 0 0 0 0 0 0 0 0 0 0 0 0 0 0 0 0 0 0 0 0 0 0 0 0 0 0 0 0 0 0 0 0 0 0 0 0 0 0 0 0 0 0 0 0 0 0 0 0 0 0 0 0 0 0 0 0 0 0 0 0 0 0 0 0 0 0 0 0 0 0 0 0 0 0 0 0 0 0 0 0 0 0 0 0 0 0 0 0 0 0 0 0 0 0 0 0 0 0 0 0 0 0 0 0 0 0 0 0 0 0 0 0 0 0 0 0 0 0 0 0 0 0 0 0 0 0 0 0 0 0 0 0 0 0 0 0 0 0 0 0 0 0 0 0 0 0 0 0 0 0 0 0 0 0 0 0 0 0 0 0 0 0 0 0 0 0 0 0 0 0 0 0 0 0 0 0 0 0 0 0 0 0 0 0 0 -2.88626e-16 -1.78433e-15 1.60013e-15 -2.53458e-15 -1.42822e-15 1.66429e-15 4.32727e-15 -5.66604e-15 6.81512e-15 3.16397e-15 4.43553e-15 -4.37943e-15 1.04948e-14 6.2013e-15 -5.3096e-16 1.67648e-14 2.5248e-15 1.2057e-14 4.64373e-16 -3.09159e-15 3.26415e-15 -4.5384e-15 -3.65374e-15 8.3847e-15 -7.00178e-16 2.63202e-15 1.72719e-14 9.96984e-15 -2.33304e-14 2.22699e-14 1.09636e-14 2.19275e-14 2.09297e-14 -2.00189e-14 2.24585e-14 2.72093e-14 3.40591e-15 3.44605e-14 5.75549e-15 -4.82309e-15 6.15409e-15 3.18975e-14 3.43301e-15 1.74664e-14 -4.52194e-15 2.64366e-15 -2.46741e-14 -4.25791e-15 -1.05043e-14 -1.44772e-14 -2.66617e-15 3.33941e-14 2.41773e-14 6.33521e-14 1.0521e-13 1.51729e-13 1.35785e-12 1.18467e-11 9.19988e-11 6.71045e-10 4.56861e-09 2.89386e-08 1.69929e-07 9.21183e-07 4.58781e-06 2.08723e-05 8.61568e-05 0.000320047 0.00105961 0.00309321 0.00788073 0.0174123 0.0334205 0.056405 0.0854658 0.119093 0.15601 0.195456 0.237083 0.280782 0.326564 0.374514 0.424759 0.477464 0.532815 0.591014 0.652244 0.716602 0.783902 0.853119 0.920594 0.973968 0.980684 0.96429 0.950299 0.941167 0.93664 0.934785 0.934015 0.933535 0.93334 0.93313 0.932919 0.932718 0.932545 0.932412 0.932336 0.932308 0.93247 0.933464 0.934549 0.933968 0.933689 0.93332 0.932796 0.932323 0.931867 0.931515 0.9313 0.931214 0.931571 0.933849 0.935214 0.93456 0.93326 0.932131 0.930828 0.930174 0.931239 0.922486 0.929972 0.929527 0.896533 0.909543 0.823347 0.757513 0.751769 0.612902 0.523109 0.391446 0.272802 0.166912 0.0890679 0.0414248 0.0173558 0.00683543 0.00260884 0.000979492 0.000363848 0.000133928 4.88426e-05 1.76347e-05 6.29757e-06 2.22228e-06 7.74203e-07 2.66066e-07 9.01339e-08 3.00799e-08 9.88371e-09 3.19602e-09 1.01674e-09 3.18071e-10 9.78834e-11 2.95535e-11 8.77183e-12 2.67336e-12 7.11274e-13 1.73146e-13 3.18158e-14 -9.54129e-14 8.13372e-14 8.65643e-15 2.42246e-14 -8.49299e-15 1.20101e-13 -7.37673e-14 9.10817e-14 -3.69317e-14 -8.72644e-14 -7.04889e-14 3.8485e-14 -1.03623e-13 3.59278e-14 2.19175e-14 -1.14389e-13 -2.25546e-14 1.26098e-14 -5.24123e-14 -2.78413e-14 -1.47741e-13 -9.58555e-15 2.81808e-15 -2.13881e-14 -6.23725e-14 -2.86739e-14 1.30717e-14 -7.22317e-14 -1.97209e-15 -3.93488e-14 0 0 -1.32259e-15 -2.19558e-15 -1.19965e-15 3.02747e-16 -1.71014e-15 4.90138e-15 6.08113e-15 -8.39633e-15 5.92891e-15 5.65635e-15 4.56751e-15 -2.53933e-15 8.1915e-15 1.76446e-14 -1.15223e-14 1.19598e-14 8.18383e-15 1.276e-14 7.7949e-15 -1.23675e-14 6.14797e-15 -1.39583e-14 3.02375e-15 5.26817e-15 1.96909e-15 5.55908e-15 2.99744e-14 8.45848e-16 1.78366e-14 8.56264e-16 1.33304e-14 4.05811e-14 1.2202e-14 -3.49174e-14 2.03571e-14 1.24294e-14 3.31884e-14 7.70677e-15 -3.0652e-15 2.38105e-14 -1.20869e-14 1.81665e-14 -6.78703e-16 -1.42424e-14 1.93545e-14 -5.64685e-17 1.49238e-14 4.91766e-15 -2.5863e-14 -1.64968e-14 -2.50596e-14 4.44212e-14 2.12558e-14 1.05009e-13 1.0192e-13 1.42258e-13 1.37031e-12 1.17776e-11 9.19946e-11 6.71089e-10 4.5686e-09 2.89385e-08 1.69929e-07 9.21183e-07 4.58781e-06 2.08723e-05 8.61568e-05 0.000320047 0.00105961 0.00309321 0.00788073 0.0174123 0.0334205 0.056405 0.0854658 0.119093 0.15601 0.195456 0.237083 0.280782 0.326564 0.374514 0.424759 0.477464 0.532815 0.591014 0.652244 0.716602 0.783902 0.853119 0.920594 0.973968 0.980684 0.96429 0.950299 0.941167 0.93664 0.934785 0.934015 0.933535 0.93334 0.93313 0.932919 0.932718 0.932545 0.932412 0.932336 0.932308 0.93247 0.933464 0.934549 0.933968 0.933689 0.93332 0.932796 0.932323 0.931867 0.931515 0.9313 0.931214 0.931571 0.933849 0.935214 0.93456 0.93326 0.932131 0.930828 0.930174 0.931239 0.922486 0.929972 0.929527 0.896533 0.909543 0.823347 0.757513 0.751769 0.612902 0.523109 0.391446 0.272802 0.166912 0.0890679 0.0414248 0.0173558 0.00683543 0.00260884 0.000979492 0.000363848 0.000133928 4.88426e-05 1.76347e-05 6.29757e-06 2.22228e-06 7.74203e-07 2.66066e-07 9.01339e-08 3.008e-08 9.88369e-09 3.19614e-09 1.01672e-09 3.18147e-10 9.78952e-11 2.95492e-11 8.79705e-12 2.60232e-12 6.46696e-13 2.14162e-13 1.0259e-13 1.08171e-13 -5.20517e-14 3.3335e-14 6.02993e-14 -1.2055e-13 -1.33276e-13 1.59675e-14 1.32679e-13 1.36379e-14 -1.7111e-13 -5.17277e-14 -6.57217e-14 1.45976e-13 1.39398e-13 -8.82933e-14 -1.76486e-13 -1.26149e-13 1.02642e-13 -2.54844e-14 -9.93827e-14 -1.56692e-13 8.76411e-14 -2.42206e-14 -5.27013e-14 9.04794e-14 -6.58566e-14 -3.41125e-14 -3.78525e-14 2.57058e-14 -7.50676e-14 0 0 -2.31431e-16 -1.06031e-15 -3.85017e-15 -2.01857e-15 2.49439e-15 4.58339e-15 2.44203e-15 1.55829e-15 3.51546e-15 -1.78469e-16 3.58537e-15 6.99827e-15 5.51587e-16 4.55504e-15 1.3135e-15 8.54806e-15 5.03491e-15 3.73799e-15 1.67434e-14 -1.5474e-14 5.89183e-15 7.922e-15 -6.88646e-15 -3.09718e-14 6.76614e-15 2.77806e-14 3.2334e-14 8.66516e-15 5.65861e-14 1.24134e-14 2.26502e-14 3.88239e-14 4.73388e-15 -2.81985e-14 -2.17667e-14 3.57895e-15 1.27393e-14 1.86074e-14 2.31563e-14 -2.02942e-14 -2.66133e-16 -3.38954e-14 4.26712e-15 3.67701e-15 -1.02556e-14 -8.20104e-16 3.01373e-14 5.28114e-15 -1.43239e-14 1.61339e-15 1.97396e-14 3.26869e-14 5.05414e-16 7.64479e-14 1.27833e-13 1.74463e-13 1.39477e-12 1.17656e-11 9.20155e-11 6.71026e-10 4.56857e-09 2.89385e-08 1.69929e-07 9.21183e-07 4.58781e-06 2.08723e-05 8.61568e-05 0.000320047 0.00105961 0.00309321 0.00788073 0.0174123 0.0334205 0.056405 0.0854658 0.119093 0.15601 0.195456 0.237083 0.280782 0.326564 0.374514 0.424759 0.477464 0.532815 0.591014 0.652244 0.716602 0.783902 0.853119 0.920594 0.973968 0.980684 0.96429 0.950299 0.941167 0.93664 0.934785 0.934015 0.933535 0.93334 0.93313 0.932919 0.932718 0.932545 0.932412 0.932336 0.932308 0.93247 0.933464 0.934549 0.933968 0.933689 0.93332 0.932796 0.932323 0.931867 0.931515 0.9313 0.931214 0.931571 0.933849 0.935214 0.93456 0.93326 0.932131 0.930828 0.930174 0.931239 0.922486 0.929972 0.929527 0.896533 0.909543 0.823347 0.757513 0.751769 0.612902 0.523109 0.391446 0.272802 0.166912 0.0890679 0.0414248 0.0173558 0.00683543 0.00260884 0.000979492 0.000363848 0.000133928 4.88426e-05 1.76347e-05 6.29757e-06 2.22228e-06 7.74203e-07 2.66066e-07 9.01338e-08 3.00801e-08 9.88377e-09 3.19612e-09 1.01676e-09 3.18115e-10 9.78044e-11 2.96604e-11 8.80843e-12 2.54874e-12 8.52247e-13 1.67126e-14 1.58946e-13 1.54828e-13 -1.0736e-13 1.0662e-13 2.80327e-14 -1.896e-13 -7.14113e-14 8.03895e-15 -7.68767e-14 1.78314e-14 -1.59154e-15 -3.4153e-14 6.49855e-15 3.99749e-14 -1.53156e-13 3.57383e-14 -9.46343e-14 -5.70727e-14 2.8386e-14 1.07041e-14 -2.09523e-13 3.03828e-13 -5.82549e-14 -9.94067e-14 -7.53789e-14 1.15499e-13 -5.08291e-14 -1.63123e-13 -2.40431e-14 1.18396e-14 4.9761e-14 0 0 8.45394e-16 -8.40561e-16 -4.88539e-15 -8.42382e-15 -3.03678e-15 -1.60757e-15 5.33704e-15 1.17353e-15 6.41151e-15 2.96842e-15 7.48794e-16 -6.75153e-15 -3.35676e-16 -1.20586e-15 6.05102e-15 9.15034e-15 3.97705e-15 6.82737e-15 1.0345e-14 -3.35341e-15 -7.52069e-15 4.16067e-15 -8.76891e-15 -1.54185e-15 2.03241e-15 4.23296e-14 1.31821e-14 5.32837e-14 2.11509e-14 1.84659e-14 7.22469e-14 -1.59347e-14 8.63031e-15 -4.51289e-14 -1.14468e-14 -1.5554e-14 -4.18853e-14 6.43771e-14 7.36578e-14 -5.26033e-14 -3.25636e-14 3.68805e-15 -5.74863e-14 5.27505e-14 -1.72842e-14 2.03389e-14 -3.31327e-14 2.0275e-14 2.00596e-14 2.57879e-14 3.31889e-14 4.16617e-14 -2.62665e-14 4.47233e-14 1.29976e-13 2.15861e-13 1.38354e-12 1.18441e-11 9.20014e-11 6.70963e-10 4.56853e-09 2.89385e-08 1.69929e-07 9.21183e-07 4.58781e-06 2.08723e-05 8.61568e-05 0.000320047 0.00105961 0.00309321 0.00788073 0.0174123 0.0334205 0.056405 0.0854658 0.119093 0.15601 0.195456 0.237083 0.280782 0.326564 0.374514 0.424759 0.477464 0.532815 0.591014 0.652244 0.716602 0.783902 0.853119 0.920594 0.973968 0.980684 0.96429 0.950299 0.941167 0.93664 0.934785 0.934015 0.933535 0.93334 0.93313 0.932919 0.932718 0.932545 0.932412 0.932336 0.932308 0.93247 0.933464 0.934549 0.933968 0.933689 0.93332 0.932796 0.932323 0.931867 0.931515 0.9313 0.931214 0.931571 0.933849 0.935214 0.93456 0.93326 0.932131 0.930828 0.930174 0.931239 0.922486 0.929972 0.929527 0.896533 0.909543 0.823347 0.757513 0.751769 0.612902 0.523109 0.391446 0.272802 0.166912 0.0890679 0.0414248 0.0173558 0.00683543 0.00260884 0.000979492 0.000363848 0.000133928 4.88426e-05 1.76347e-05 6.29757e-06 2.22228e-06 7.74203e-07 2.66066e-07 9.01338e-08 3.00801e-08 9.8836e-09 3.19621e-09 1.01686e-09 3.1803e-10 9.78193e-11 2.98312e-11 8.79364e-12 2.72807e-12 8.92756e-13 -1.54881e-13 8.61648e-14 4.11752e-14 -4.97788e-14 -1.12511e-14 5.98765e-14 -6.16483e-14 1.08712e-13 -1.08301e-13 -1.61209e-13 -5.51246e-14 5.72376e-14 1.28393e-13 -2.62657e-14 -2.55705e-13 -5.13939e-14 3.57778e-14 -1.93761e-13 -3.56719e-16 -9.50457e-14 5.88614e-15 1.78886e-13 2.40096e-13 -1.32817e-13 -1.57441e-13 -3.45969e-15 -8.46582e-14 -2.29975e-14 -6.74365e-14 -5.87859e-14 6.46668e-14 2.39265e-14 0 0 0 0 0 0 0 0 0 0 0 0 0 0 0 0 0 0 0 0 0 0 0 0 0 0 0 0 0 0 0 0 0 0 0 0 0 0 0 0 0 0 0 0 0 0 0 0 0 0 0 0 0 0 0 0 0 0 0 0 0 0 0 0 0 0 0 0 0 0 0 0 0 0 0 0 0 0 0 0 0 0 0 0 0 0 0 0 0 0 0 0 0 0 0 0 0 0 0 0 0 0 0 0 0 0 0 0 0 0 0 0 0 0 0 0 0 0 0 0 0 0 0 0 0 0 0 0 0 0 0 0 0 0 0 0 0 0 0 0 0 0 0 0 0 0 0 0 0 0 0 0 0 0 0 0 0 0 0 0 0 0 0 0 0 0 0 0 0 0 0 0 0 0 0 0 0 0 0 0 0 0 0 0 0 0 0 0 0 0 0 0 0 0 0 0 0 0 0 0 0 0
				</DataArray>
				<DataArray Name="VitesseY" type="Float32" format="ascii">
 0 0 0 0 0 0 0 0 0 0 0 0 0 0 0 0 0 0 0 0 0 0 0 0 0 0 0 0 0 0 0 0 0 0 0 0 0 0 0 0 0 0 0 0 0 0 0 0 0 0 0 0 0 0 0 0 0 0 0 0 0 0 0 0 0 0 0 0 0 0 0 0 0 0 0 0 0 0 0 0 0 0 0 0 0 0 0 0 0 0 0 0 0 0 0 0 0 0 0 0 0 0 0 0 0 0 0 0 0 0 0 0 0 0 0 0 0 0 0 0 0 0 0 0 0 0 0 0 0 0 0 0 0 0 0 0 0 0 0 0 0 0 0 0 0 0 0 0 0 0 0 0 0 0 0 0 0 0 0 0 0 0 0 0 0 0 0 0 0 0 0 0 0 0 0 0 0 0 0 0 0 0 0 0 0 0 0 0 0 0 0 0 0 0 0 0 0 0 0 0 0 0 1.99018e-15 1.60931e-15 8.17829e-16 6.58342e-16 -9.24585e-16 -2.6708e-16 1.42879e-15 7.59098e-16 6.79719e-16 2.10318e-15 3.1608e-15 1.82589e-15 -1.37539e-16 2.473e-15 1.69261e-15 -6.43675e-17 1.34835e-15 2.45271e-15 9.4272e-16 5.83531e-16 3.93282e-15 2.14642e-15 -2.23639e-15 1.82756e-15 8.62218e-15 3.0343e-15 2.77865e-15 1.06425e-14 4.84009e-15 -3.65489e-15 2.93936e-15 1.19327e-14 2.09905e-14 1.70855e-14 4.87735e-15 6.51881e-15 4.95136e-15 1.03595e-14 1.95768e-14 8.93186e-15 9.41092e-16 1.16426e-14 1.23011e-14 8.64126e-15 1.05135e-14 1.48886e-14 1.41232e-14 1.4181e-14 2.28523e-14 1.99183e-14 7.15285e-15 1.36738e-14 2.02852e-14 1.34987e-14 1.97324e-14 2.35712e-14 1.48787e-14 9.72864e-15 -3.36831e-15 -2.02121e-15 1.61925e-14 -1.43384e-14 -3.10389e-14 -1.35776e-14 -2.87502e-14 -3.02955e-14 6.40547e-15 -1.74258e-15 -4.04434e-14 -3.76352e-14 -7.43923e-15 -3.25787e-15 4.28078e-15 -6.30359e-15 -3.083e-14 -2.14869e-14 1.31699e-14 3.60756e-14 -7.51515e-15 -5.38881e-14 -6.44727e-14 -1.44659e-14 2.7432e-14 -5.19007e-15 -5.44514e-14 -3.03012e-14 -2.93128e-15 -3.14844e-14 -3.0536e-14 -4.58089e-14 -1.59541e-13 -2.47486e-13 5.852e-13 2.71281e-12 5.46346e-12 7.57795e-12 7.47482e-12 5.25657e-12 3.10728e-12 2.66658e-12 3.87034e-12 3.99614e-12 4.5273e-12 5.3427e-12 6.5315e-12 5.80485e-12 -2.2059e-12 -1.4444e-11 -2.54484e-11 -3.00026e-11 -2.80911e-11 -2.34401e-11 -1.83182e-11 -1.35482e-11 -9.4275e-12 -6.0059e-12 -3.18286e-12 -8.12484e-13 1.2642e-12 3.05178e-12 4.58748e-12 6.08677e-12 7.53376e-12 8.88074e-12 1.01361e-11 1.13829e-11 1.2617e-11 1.37844e-11 1.49438e-11 1.5938e-11 1.70657e-11 1.79033e-11 1.79661e-11 1.84255e-11 1.73913e-11 1.61657e-11 1.51158e-11 1.25177e-11 1.00721e-11 7.23914e-12 4.7002e-12 2.6192e-12 1.22921e-12 4.69223e-13 1.51225e-13 3.46686e-14 -1.95895e-14 -2.27866e-14 -1.8663e-14 -3.361e-14 -3.77269e-14 -2.83183e-14 -3.22833e-14 -3.10176e-14 -3.70151e-14 -3.33697e-14 -1.14821e-14 -1.82251e-15 -1.84908e-14 -3.95408e-14 -3.80689e-14 -2.51009e-14 8.36117e-15 -2.21247e-15 -7.59851e-14 -4.71228e-14 2.92793e-15 -2.45044e-14 -1.39269e-14 2.46858e-14 5.3685e-14 3.51558e-14 1.47383e-14 2.87427e-14 3.81063e-14 1.37767e-14 7.14427e-15 6.3363e-15 1.12363e-15 -9.09268e-15 -3.73659e-14 -3.91611e-14 1.93562e-14 9.20812e-14 5.67376e-14 -5.16977e-15 -4.50659e-14 -5.33463e-14 -6.83739e-16 -1.81058e-15 -4.28896e-14 -2.53021e-14 1.23762e-14 3.26492e-15 -7.74486e-15 3.29661e-14 1.56224e-14 -1.44329e-15 -4.95037e-15 0 0 1.72915e-15 1.99307e-15 1.93608e-15 2.08759e-15 4.27431e-15 4.46532e-15 3.91979e-15 4.38277e-15 3.49226e-15 2.37665e-15 2.11704e-15 3.94933e-15 5.73628e-15 5.5167e-15 6.45293e-15 4.32179e-15 3.13231e-15 3.49281e-15 6.88757e-15 6.76239e-15 1.86006e-15 1.90538e-15 5.7465e-15 2.71551e-15 -4.29801e-15 2.67541e-15 6.84102e-15 -1.10946e-16 1.36426e-14 2.70697e-14 1.58109e-14 1.204e-14 5.42716e-15 3.40527e-15 1.15009e-14 5.51233e-15 1.08743e-14 6.23579e-15 -1.18969e-14 3.7032e-15 1.42221e-14 -4.35098e-15 -9.52713e-15 -1.48208e-14 -1.87082e-14 -1.76855e-14 -7.71459e-15 4.32299e-15 -5.92258e-15 -7.34177e-15 -6.16522e-16 -9.99588e-15 -1.45111e-14 2.0126e-15 5.29244e-15 -1.74828e-15 7.64177e-15 -1.34102e-15 -6.54805e-15 2.17781e-15 -7.77779e-15 -3.79473e-15 -9.86751e-15 -2.60442e-14 -2.23254e-14 -9.86949e-15 -1.69742e-14 -1.83262e-14 1.5975e-15 1.19888e-14 8.94789e-15 1.30419e-14 -1.56273e-14 -3.75981e-14 -1.15435e-14 1.99447e-14 7.71057e-16 -5.28961e-14 -3.49899e-14 -9.73101e-15 5.80713e-15 7.03946e-15 -1.31311e-14 -4.61727e-15 1.66765e-14 1.31612e-14 -1.06791e-14 -1.23056e-14 -2.67201e-14 -9.89878e-14 -2.53524e-13 -3.87608e-13 9.74161e-13 4.43468e-12 8.84206e-12 1.22318e-11 1.20908e-11 8.51334e-12 5.02686e-12 4.28285e-12 6.28497e-12 6.48496e-12 7.42362e-12 8.71803e-12 1.06233e-11 9.45476e-12 -3.51894e-12 -2.33526e-11 -4.11973e-11 -4.85823e-11 -4.54837e-11 -3.79608e-11 -2.96567e-11 -2.19079e-11 -1.52546e-11 -9.71719e-12 -5.13332e-12 -1.29879e-12 1.97326e-12 4.84036e-12 7.42083e-12 9.95038e-12 1.23261e-11 1.44584e-11 1.64003e-11 1.8334e-11 2.03769e-11 2.23621e-11 2.43676e-11 2.59287e-11 2.75838e-11 2.89192e-11 2.89906e-11 2.96943e-11 2.80713e-11 2.61326e-11 2.44397e-11 2.02511e-11 1.62977e-11 1.17083e-11 7.59418e-12 4.24155e-12 1.98623e-12 7.96976e-13 2.48171e-13 3.64989e-14 1.35088e-14 -2.51054e-16 -2.13675e-14 -1.84875e-14 -2.35304e-14 -4.66385e-14 -4.74423e-14 -4.75068e-14 -3.32736e-14 -4.81832e-14 -9.09762e-14 -8.3554e-14 -5.27518e-14 -8.48033e-15 1.60848e-14 1.87136e-14 7.02308e-15 1.95199e-14 9.85422e-14 5.82924e-14 -2.57054e-14 -4.03546e-15 1.32475e-14 4.33664e-14 3.19083e-14 2.32799e-14 5.88065e-14 2.59838e-14 -7.47819e-14 -9.13061e-14 -5.1902e-14 -2.81583e-14 -3.12904e-14 -3.73174e-14 -3.03586e-14 7.59546e-15 3.72691e-14 -3.72316e-14 -4.50365e-14 -2.45607e-14 1.18299e-14 4.91277e-14 -1.46179e-14 -3.36e-14 2.94684e-14 2.94447e-14 -2.28389e-14 1.64958e-14 5.6486e-14 -5.38462e-15 8.71318e-15 4.13387e-14 4.26187e-14 0 0 4.81575e-15 5.07381e-15 4.75795e-15 3.4426e-15 1.61712e-15 2.47743e-15 2.08299e-15 3.11417e-15 5.81302e-15 4.93356e-15 3.48026e-15 3.8983e-15 2.47568e-15 -2.42173e-15 -3.41364e-15 9.51276e-16 8.79814e-16 -2.76574e-15 -6.30511e-15 -4.84732e-15 -5.73057e-16 4.70097e-15 3.85288e-15 -4.50684e-15 -5.3801e-15 -5.57503e-15 -3.61549e-15 5.87793e-15 3.60034e-15 2.77551e-15 1.93369e-14 2.50053e-14 2.92847e-14 3.1187e-14 1.41832e-14 7.31744e-15 -5.28859e-15 -2.9768e-15 2.44773e-14 4.4423e-15 -1.42212e-14 -5.77247e-15 -1.23216e-14 -1.3439e-15 -3.33605e-16 -8.98258e-15 -1.53542e-14 -2.34822e-14 -1.0284e-14 -1.5112e-15 7.64471e-15 2.51217e-14 2.15238e-14 -7.22594e-15 -1.11465e-14 1.0343e-14 1.51808e-14 2.72651e-14 3.45613e-14 1.52699e-14 1.98164e-15 -2.26334e-15 -3.84718e-15 -1.87697e-14 -2.99299e-14 -3.15002e-14 -3.40938e-14 -3.18437e-14 -2.86063e-14 -4.02176e-14 -4.34419e-14 -3.46903e-14 -2.55663e-15 1.36182e-14 1.51894e-15 -5.53054e-15 2.14485e-16 -4.81924e-15 -3.86671e-14 -1.2826e-14 6.98218e-16 -3.78938e-14 -4.17666e-14 -1.6655e-14 -3.9792e-15 -1.9883e-14 -1.32997e-14 -2.05907e-14 -4.89429e-14 -9.68589e-14 -2.75874e-13 -3.94165e-13 9.71307e-13 4.42605e-12 8.85715e-12 1.22509e-11 1.20923e-11 8.51788e-12 5.04286e-12 4.29841e-12 6.31587e-12 6.50429e-12 7.34125e-12 8.66745e-12 1.06309e-11 9.45017e-12 -3.50648e-12 -2.32742e-11 -4.10841e-11 -4.84476e-11 -4.53943e-11 -3.79148e-11 -2.95952e-11 -2.19006e-11 -1.52626e-11 -9.73919e-12 -5.19307e-12 -1.31513e-12 2.00108e-12 4.80876e-12 7.33368e-12 9.84417e-12 1.21667e-11 1.43432e-11 1.64848e-11 1.8479e-11 2.03903e-11 2.23444e-11 2.42478e-11 2.58108e-11 2.76422e-11 2.89119e-11 2.90203e-11 2.97839e-11 2.81146e-11 2.62212e-11 2.44875e-11 2.02776e-11 1.63482e-11 1.17351e-11 7.59326e-12 4.23952e-12 1.99308e-12 7.2821e-13 2.35981e-13 5.07707e-14 -3.51512e-14 -4.3615e-14 -2.96106e-14 -2.2633e-14 -2.05053e-14 2.46422e-15 4.10101e-15 -1.42539e-14 -4.3318e-14 -7.67346e-15 4.32483e-14 2.91269e-14 3.27908e-14 5.35046e-15 -1.36884e-14 -1.40995e-14 -3.28623e-14 -4.02462e-14 -8.8671e-14 -5.90048e-14 6.27972e-14 4.31074e-14 -9.51592e-15 -1.38969e-14 -4.66262e-15 8.29207e-15 -1.70421e-14 -9.49324e-15 8.94402e-14 1.1957e-13 2.57662e-14 -4.9356e-14 -2.79788e-15 5.00608e-14 6.5688e-14 1.92484e-14 -1.09968e-13 -7.75996e-14 -1.81472e-14 -6.82256e-16 -3.85514e-14 -8.5364e-14 -3.99847e-14 6.66379e-14 8.21917e-14 2.69754e-14 5.47766e-14 1.59654e-14 -1.38991e-14 1.95407e-14 -2.34552e-14 -5.59978e-14 -2.96528e-14 0 0 1.15019e-14 1.15316e-14 1.15971e-14 1.12083e-14 9.87579e-15 6.18205e-15 5.74586e-15 5.40389e-15 3.26751e-15 5.58819e-15 7.22439e-15 2.60054e-15 3.36277e-16 3.69656e-15 4.40033e-15 1.22836e-15 1.41303e-15 5.56349e-15 8.19034e-15 8.122e-15 3.49065e-15 -6.16021e-15 -6.64844e-15 8.64492e-15 1.57533e-14 1.83826e-14 1.52684e-14 1.21481e-14 1.66765e-14 9.90666e-15 7.45493e-15 6.12917e-16 -1.65182e-14 -2.15872e-14 -6.23516e-15 -1.73943e-15 -7.56341e-15 -1.19958e-14 -1.52782e-14 9.25093e-15 1.1773e-14 4.64305e-15 5.15227e-15 -8.99977e-15 4.9099e-16 1.26245e-14 8.55235e-15 4.63641e-15 3.70529e-15 9.59318e-15 9.88774e-15 -2.00214e-15 -2.89908e-15 1.12549e-14 7.81072e-15 -2.96584e-15 -7.45063e-17 4.5558e-15 1.33551e-14 1.33522e-14 1.525e-15 -5.24634e-15 -3.1468e-14 -5.34203e-14 -5.21515e-14 -4.31627e-14 -3.98013e-14 -2.72356e-14 -4.57425e-16 2.75694e-14 2.36471e-14 -6.56489e-15 -2.74075e-14 -3.3702e-14 -1.36212e-14 -4.67642e-14 -5.60739e-14 3.10559e-15 4.29921e-14 -4.56067e-15 -1.55896e-14 2.6047e-14 1.15809e-14 3.66852e-15 6.62577e-15 -2.76228e-15 -9.4241e-15 -3.02726e-15 -2.93033e-14 -8.21224e-14 -1.5062e-13 -2.56579e-13 5.74236e-13 2.74474e-12 5.47129e-12 7.56654e-12 7.46626e-12 5.25669e-12 3.12004e-12 2.66839e-12 3.84294e-12 3.99466e-12 4.59481e-12 5.38595e-12 6.5252e-12 5.83072e-12 -2.17675e-12 -1.44661e-11 -2.54947e-11 -3.00858e-11 -2.81911e-11 -2.3517e-11 -1.8358e-11 -1.3581e-11 -9.50261e-12 -6.07295e-12 -3.22441e-12 -8.62316e-13 1.17387e-12 2.97251e-12 4.56995e-12 6.12672e-12 7.61877e-12 8.919e-12 1.01215e-11 1.13527e-11 1.25546e-11 1.37925e-11 1.49721e-11 1.58814e-11 1.69312e-11 1.77434e-11 1.78968e-11 1.84379e-11 1.74239e-11 1.62162e-11 1.51255e-11 1.25456e-11 1.0133e-11 7.22104e-12 4.66099e-12 2.59025e-12 1.22964e-12 4.85644e-13 1.24982e-13 3.12961e-14 -4.50502e-15 -4.12883e-14 -5.51276e-14 -2.74062e-14 -3.52538e-14 -6.83949e-14 -4.69748e-14 -1.4064e-14 1.92201e-14 -9.82606e-15 -5.72016e-14 -3.58585e-14 -7.28506e-14 -6.42959e-14 2.72821e-15 7.04519e-15 8.14068e-15 6.1923e-14 1.49389e-13 1.60857e-13 9.40485e-14 8.10251e-14 7.27685e-14 3.05042e-14 7.28378e-15 -2.07504e-14 -1.67878e-14 1.57071e-14 -6.1749e-15 -2.03408e-14 2.31193e-14 5.88554e-14 8.83362e-15 1.13309e-14 2.80858e-14 -7.65484e-15 7.31709e-14 6.61839e-14 -1.79819e-14 -4.6064e-14 -2.49658e-14 -1.01375e-14 4.04559e-14 1.50029e-14 -3.51434e-14 -1.31156e-14 -3.74752e-14 -3.05768e-14 -4.39157e-14 -4.63954e-14 1.17669e-14 4.88666e-14 2.91552e-14 0 0 0 0 0 0 0 0 0 0 0 0 0 0 0 0 0 0 0 0 0 0 0 0 0 0 0 0 0 0 