<?xml version="1.0"?>
<VTKFile type="PolyData">
	<PolyData>
		<Piece NumberOfPoints="1206" NumberOfPolys="1000">
			<Points>
				<DataArray type="Float32" NumberOfComponents="3" format="ascii">
 0 0 0 0.005 0 0 0.01 0 0 0.015 0 0 0.02 0 0 0.025 0 0 0.03 0 0 0.035 0 0 0.04 0 0 0.045 0 0 0.05 0 0 0.055 0 0 0.06 0 0 0.065 0 0 0.07 0 0 0.075 0 0 0.08 0 0 0.085 0 0 0.09 0 0 0.095 0 0 0.1 0 0 0.105 0 0 0.11 0 0 0.115 0 0 0.12 0 0 0.125 0 0 0.13 0 0 0.135 0 0 0.14 0 0 0.145 0 0 0.15 0 0 0.155 0 0 0.16 0 0 0.165 0 0 0.17 0 0 0.175 0 0 0.18 0 0 0.185 0 0 0.19 0 0 0.195 0 0 0.2 0 0 0.205 0 0 0.21 0 0 0.215 0 0 0.22 0 0 0.225 0 0 0.23 0 0 0.235 0 0 0.24 0 0 0.245 0 0 0.250001 0 0 0.255003 0 0 0.260009 0 0 0.265021 0 0 0.270049 0 0 0.275103 0 0 0.280197 0 0 0.285348 0 0 0.290571 0 0 0.295879 0 0 0.301281 0 0 0.306787 0 0 0.312404 0 0 0.318138 0 0 0.323997 0 0 0.329989 0 0 0.336119 0 0 0.342397 0 0 0.34883 0 0 0.355429 0 0 0.362202 0 0 0.369161 0 0 0.376317 0 0 0.383683 0 0 0.391274 0 0 0.399105 0 0 0.407192 0 0 0.415556 0 0 0.424217 0 0 0.433198 0 0 0.442525 0 0 0.452228 0 0 0.462335 0 0 0.47288 0 0 0.483893 0 0 0.495391 0 0 0.507352 0 0 0.519629 0 0 0.531905 0 0 0.544078 0 0 0.556138 0 0 0.568098 0 0 0.579987 0 0 0.591833 0 0 0.603657 0 0 0.615471 0 0 0.627281 0 0 0.63909 0 0 0.650898 0 0 0.662707 0 0 0.674516 0 0 0.676796 0 0 0.679076 0 0 0.681356 0 0 0.683636 0 0 0.685915 0 0 0.688193 0 0 0.690467 0 0 0.692742 0 0 0.695023 0 0 0.697302 0 0 0.699582 0 0 0.701861 0 0 0.704141 0 0 0.70642 0 0 0.7087 0 0 0.71098 0 0 0.71326 0 0 0.715539 0 0 0.717818 0 0 0.720098 0 0 0.722378 0 0 0.724657 0 0 0.726936 0 0 0.729216 0 0 0.731496 0 0 0.733776 0 0 0.736054 0 0 0.738332 0 0 0.740613 0 0 0.742892 0 0 0.745171 0 0 0.747449 0 0 0.749729 0 0 0.752008 0 0 0.754285 0 0 0.756562 0 0 0.75884 0 0 0.761118 0 0 0.763397 0 0 0.76568 0 0 0.767965 0 0 0.770248 0 0 0.77253 0 0 0.774813 0 0 0.777094 0 0 0.779374 0 0 0.781653 0 0 0.78393 0 0 0.786208 0 0 0.788486 0 0 0.790766 0 0 0.793051 0 0 0.795338 0 0 0.797628 0 0 0.799906 0 0 0.802203 0 0 0.804479 0 0 0.806805 0 0 0.809184 0 0 0.811697 0 0 0.814322 0 0 0.817139 0 0 0.820183 0 0 0.823535 0 0 0.827227 0 0 0.831278 0 0 0.83566 0 0 0.840306 0 0 0.84513 0 0 0.850052 0 0 0.85502 0 0 0.860008 0 0 0.865003 0 0 0.870001 0 0 0.875 0 0 0.88 0 0 0.885 0 0 0.89 0 0 0.895 0 0 0.9 0 0 0.905 0 0 0.91 0 0 0.915 0 0 0.92 0 0 0.925 0 0 0.93 0 0 0.935 0 0 0.94 0 0 0.945 0 0 0.95 0 0 0.955 0 0 0.96 0 0 0.965 0 0 0.97 0 0 0.975 0 0 0.98 0 0 0.985 0 0 0.99 0 0 0.995 0 0 1 0 0 0 0.02 0 0.005 0.02 0 0.01 0.02 0 0.015 0.02 0 0.02 0.02 0 0.025 0.02 0 0.03 0.02 0 0.035 0.02 0 0.04 0.02 0 0.045 0.02 0 0.05 0.02 0 0.055 0.02 0 0.06 0.02 0 0.065 0.02 0 0.07 0.02 0 0.075 0.02 0 0.08 0.02 0 0.085 0.02 0 0.09 0.02 0 0.095 0.02 0 0.1 0.02 0 0.105 0.02 0 0.11 0.02 0 0.115 0.02 0 0.12 0.02 0 0.125 0.02 0 0.13 0.02 0 0.135 0.02 0 0.14 0.02 0 0.145 0.02 0 0.15 0.02 0 0.155 0.02 0 0.16 0.02 0 0.165 0.02 0 0.17 0.02 0 0.175 0.02 0 0.18 0.02 0 0.185 0.02 0 0.19 0.02 0 0.195 0.02 0 0.2 0.02 0 0.205 0.02 0 0.21 0.02 0 0.215 0.02 0 0.22 0.02 0 0.225 0.02 0 0.23 0.02 0 0.235 0.02 0 0.24 0.02 0 0.245 0.02 0 0.250001 0.02 0 0.255003 0.02 0 0.260009 0.02 0 0.265021 0.02 0 0.270049 0.02 0 0.275103 0.02 0 0.280197 0.02 0 0.285348 0.02 0 0.290571 0.02 0 0.295879 0.02 0 0.301281 0.02 0 0.306787 0.02 0 0.312404 0.02 0 0.318138 0.02 0 0.323997 0.02 0 0.329989 0.02 0 0.336119 0.02 0 0.342397 0.02 0 0.34883 0.02 0 0.355429 0.02 0 0.362202 0.02 0 0.369161 0.02 0 0.376317 0.02 0 0.383683 0.02 0 0.391274 0.02 0 0.399105 0.02 0 0.407192 0.02 0 0.415556 0.02 0 0.424217 0.02 0 0.433198 0.02 0 0.442525 0.02 0 0.452228 0.02 0 0.462335 0.02 0 0.47288 0.02 0 0.483893 0.02 0 0.495391 0.02 0 0.507352 0.02 0 0.519629 0.02 0 0.531905 0.02 0 0.544078 0.02 0 0.556138 0.02 0 0.568098 0.02 0 0.579987 0.02 0 0.591833 0.02 0 0.603657 0.02 0 0.615471 0.02 0 0.627281 0.02 0 0.63909 0.02 0 0.650898 0.02 0 0.662707 0.02 0 0.674516 0.02 0 0.676796 0.02 0 0.679076 0.02 0 0.681356 0.02 0 0.683636 0.02 0 0.685915 0.02 0 0.688193 0.02 0 0.690467 0.02 0 0.692742 0.02 0 0.695023 0.02 0 0.697302 0.02 0 0.699582 0.02 0 0.701861 0.02 0 0.704141 0.02 0 0.70642 0.02 0 0.7087 0.02 0 0.71098 0.02 0 0.71326 0.02 0 0.715539 0.02 0 0.717818 0.02 0 0.720098 0.02 0 0.722378 0.02 0 0.724657 0.02 0 0.726936 0.02 0 0.729216 0.02 0 0.731496 0.02 0 0.733776 0.02 0 0.736054 0.02 0 0.738332 0.02 0 0.740613 0.02 0 0.742892 0.02 0 0.745171 0.02 0 0.747449 0.02 0 0.749729 0.02 0 0.752008 0.02 0 0.754285 0.02 0 0.756562 0.02 0 0.75884 0.02 0 0.761118 0.02 0 0.763397 0.02 0 0.76568 0.02 0 0.767965 0.02 0 0.770248 0.02 0 0.77253 0.02 0 0.774813 0.02 0 0.777094 0.02 0 0.779374 0.02 0 0.781653 0.02 0 0.78393 0.02 0 0.786208 0.02 0 0.788486 0.02 0 0.790766 0.02 0 0.793051 0.02 0 0.795338 0.02 0 0.797628 0.02 0 0.799906 0.02 0 0.802203 0.02 0 0.804479 0.02 0 0.806805 0.02 0 0.809184 0.02 0 0.811697 0.02 0 0.814322 0.02 0 0.817139 0.02 0 0.820183 0.02 0 0.823535 0.02 0 0.827227 0.02 0 0.831278 0.02 0 0.83566 0.02 0 0.840306 0.02 0 0.84513 0.02 0 0.850052 0.02 0 0.85502 0.02 0 0.860008 0.02 0 0.865003 0.02 0 0.870001 0.02 0 0.875 0.02 0 0.88 0.02 0 0.885 0.02 0 0.89 0.02 0 0.895 0.02 0 0.9 0.02 0 0.905 0.02 0 0.91 0.02 0 0.915 0.02 0 0.92 0.02 0 0.925 0.02 0 0.93 0.02 0 0.935 0.02 0 0.94 0.02 0 0.945 0.02 0 0.95 0.02 0 0.955 0.02 0 0.96 0.02 0 0.965 0.02 0 0.97 0.02 0 0.975 0.02 0 0.98 0.02 0 0.985 0.02 0 0.99 0.02 0 0.995 0.02 0 1 0.02 0 0 0.04 0 0.005 0.04 0 0.01 0.04 0 0.015 0.04 0 0.02 0.04 0 0.025 0.04 0 0.03 0.04 0 0.035 0.04 0 0.04 0.04 0 0.045 0.04 0 0.05 0.04 0 0.055 0.04 0 0.06 0.04 0 0.065 0.04 0 0.07 0.04 0 0.075 0.04 0 0.08 0.04 0 0.085 0.04 0 0.09 0.04 0 0.095 0.04 0 0.1 0.04 0 0.105 0.04 0 0.11 0.04 0 0.115 0.04 0 0.12 0.04 0 0.125 0.04 0 0.13 0.04 0 0.135 0.04 0 0.14 0.04 0 0.145 0.04 0 0.15 0.04 0 0.155 0.04 0 0.16 0.04 0 0.165 0.04 0 0.17 0.04 0 0.175 0.04 0 0.18 0.04 0 0.185 0.04 0 0.19 0.04 0 0.195 0.04 0 0.2 0.04 0 0.205 0.04 0 0.21 0.04 0 0.215 0.04 0 0.22 0.04 0 0.225 0.04 0 0.23 0.04 0 0.235 0.04 0 0.24 0.04 0 0.245 0.04 0 0.250001 0.04 0 0.255003 0.04 0 0.260009 0.04 0 0.265021 0.04 0 0.270049 0.04 0 0.275103 0.04 0 0.280197 0.04 0 0.285348 0.04 0 0.290571 0.04 0 0.295879 0.04 0 0.301281 0.04 0 0.306787 0.04 0 0.312404 0.04 0 0.318138 0.04 0 0.323997 0.04 0 0.329989 0.04 0 0.336119 0.04 0 0.342397 0.04 0 0.34883 0.04 0 0.355429 0.04 0 0.362202 0.04 0 0.369161 0.04 0 0.376317 0.04 0 0.383683 0.04 0 0.391274 0.04 0 0.399105 0.04 0 0.407192 0.04 0 0.415556 0.04 0 0.424217 0.04 0 0.433198 0.04 0 0.442525 0.04 0 0.452228 0.04 0 0.462335 0.04 0 0.47288 0.04 0 0.483893 0.04 0 0.495391 0.04 0 0.507352 0.04 0 0.519629 0.04 0 0.531905 0.04 0 0.544078 0.04 0 0.556138 0.04 0 0.568098 0.04 0 0.579987 0.04 0 0.591833 0.04 0 0.603657 0.04 0 0.615471 0.04 0 0.627281 0.04 0 0.63909 0.04 0 0.650898 0.04 0 0.662707 0.04 0 0.674516 0.04 0 0.676796 0.04 0 0.679076 0.04 0 0.681356 0.04 0 0.683636 0.04 0 0.685915 0.04 0 0.688193 0.04 0 0.690467 0.04 0 0.692742 0.04 0 0.695023 0.04 0 0.697302 0.04 0 0.699582 0.04 0 0.701861 0.04 0 0.704141 0.04 0 0.70642 0.04 0 0.7087 0.04 0 0.71098 0.04 0 0.71326 0.04 0 0.715539 0.04 0 0.717818 0.04 0 0.720098 0.04 0 0.722378 0.04 0 0.724657 0.04 0 0.726936 0.04 0 0.729216 0.04 0 0.731496 0.04 0 0.733776 0.04 0 0.736054 0.04 0 0.738332 0.04 0 0.740613 0.04 0 0.742892 0.04 0 0.745171 0.04 0 0.747449 0.04 0 0.749729 0.04 0 0.752008 0.04 0 0.754285 0.04 0 0.756562 0.04 0 0.75884 0.04 0 0.761118 0.04 0 0.763397 0.04 0 0.76568 0.04 0 0.767965 0.04 0 0.770248 0.04 0 0.77253 0.04 0 0.774813 0.04 0 0.777094 0.04 0 0.779374 0.04 0 0.781653 0.04 0 0.78393 0.04 0 0.786208 0.04 0 0.788486 0.04 0 0.790766 0.04 0 0.793051 0.04 0 0.795338 0.04 0 0.797628 0.04 0 0.799906 0.04 0 0.802203 0.04 0 0.804479 0.04 0 0.806805 0.04 0 0.809184 0.04 0 0.811697 0.04 0 0.814322 0.04 0 0.817139 0.04 0 0.820183 0.04 0 0.823535 0.04 0 0.827227 0.04 0 0.831278 0.04 0 0.83566 0.04 0 0.840306 0.04 0 0.84513 0.04 0 0.850052 0.04 0 0.85502 0.04 0 0.860008 0.04 0 0.865003 0.04 0 0.870001 0.04 0 0.875 0.04 0 0.88 0.04 0 0.885 0.04 0 0.89 0.04 0 0.895 0.04 0 0.9 0.04 0 0.905 0.04 0 0.91 0.04 0 0.915 0.04 0 0.92 0.04 0 0.925 0.04 0 0.93 0.04 0 0.935 0.04 0 0.94 0.04 0 0.945 0.04 0 0.95 0.04 0 0.955 0.04 0 0.96 0.04 0 0.965 0.04 0 0.97 0.04 0 0.975 0.04 0 0.98 0.04 0 0.985 0.04 0 0.99 0.04 0 0.995 0.04 0 1 0.04 0 0 0.06 0 0.005 0.06 0 0.01 0.06 0 0.015 0.06 0 0.02 0.06 0 0.025 0.06 0 0.03 0.06 0 0.035 0.06 0 0.04 0.06 0 0.045 0.06 0 0.05 0.06 0 0.055 0.06 0 0.06 0.06 0 0.065 0.06 0 0.07 0.06 0 0.075 0.06 0 0.08 0.06 0 0.085 0.06 0 0.09 0.06 0 0.095 0.06 0 0.1 0.06 0 0.105 0.06 0 0.11 0.06 0 0.115 0.06 0 0.12 0.06 0 0.125 0.06 0 0.13 0.06 0 0.135 0.06 0 0.14 0.06 0 0.145 0.06 0 0.15 0.06 0 0.155 0.06 0 0.16 0.06 0 0.165 0.06 0 0.17 0.06 0 0.175 0.06 0 0.18 0.06 0 0.185 0.06 0 0.19 0.06 0 0.195 0.06 0 0.2 0.06 0 0.205 0.06 0 0.21 0.06 0 0.215 0.06 0 0.22 0.06 0 0.225 0.06 0 0.23 0.06 0 0.235 0.06 0 0.24 0.06 0 0.245 0.06 0 0.250001 0.06 0 0.255003 0.06 0 0.260009 0.06 0 0.265021 0.06 0 0.270049 0.06 0 0.275103 0.06 0 0.280197 0.06 0 0.285348 0.06 0 0.290571 0.06 0 0.295879 0.06 0 0.301281 0.06 0 0.306787 0.06 0 0.312404 0.06 0 0.318138 0.06 0 0.323997 0.06 0 0.329989 0.06 0 0.336119 0.06 0 0.342397 0.06 0 0.34883 0.06 0 0.355429 0.06 0 0.362202 0.06 0 0.369161 0.06 0 0.376317 0.06 0 0.383683 0.06 0 0.391274 0.06 0 0.399105 0.06 0 0.407192 0.06 0 0.415556 0.06 0 0.424217 0.06 0 0.433198 0.06 0 0.442525 0.06 0 0.452228 0.06 0 0.462335 0.06 0 0.47288 0.06 0 0.483893 0.06 0 0.495391 0.06 0 0.507352 0.06 0 0.519629 0.06 0 0.531905 0.06 0 0.544078 0.06 0 0.556138 0.06 0 0.568098 0.06 0 0.579987 0.06 0 0.591833 0.06 0 0.603657 0.06 0 0.615471 0.06 0 0.627281 0.06 0 0.63909 0.06 0 0.650898 0.06 0 0.662707 0.06 0 0.674516 0.06 0 0.676796 0.06 0 0.679076 0.06 0 0.681356 0.06 0 0.683636 0.06 0 0.685915 0.06 0 0.688193 0.06 0 0.690467 0.06 0 0.692742 0.06 0 0.695023 0.06 0 0.697302 0.06 0 0.699582 0.06 0 0.701861 0.06 0 0.704
[...]
			<PointData Scalars="VitesseX">
				<DataArray Name="VitesseX" type="Float32" format="ascii">
 0 -4.5396e-16 -2.21932e-15 8.56324e-16 -4.58383e-17 -1.76225e-15 7.18917e-15 5.49163e-15 8.32032e-15 1.66461e-14 1.32931e-14 2.15609e-14 6.07396e-15 1.49461e-14 2.33674e-14 1.30398e-14 1.39942e-14 1.7199e-14 1.6125e-14 1.41938e-14 2.14142e-14 1.31972e-14 4.78437e-15 9.75425e-15 1.27765e-14 1.29892e-14 2.91351e-14 2.32246e-14 2.47268e-14 -2.39794e-14 8.31602e-15 1.22096e-14 7.96042e-15 5.65426e-14 2.74817e-14 4.16145e-14 1.82732e-13 1.14858e-12 7.01294e-12 4.04651e-11 2.25021e-10 1.19077e-09 5.98045e-09 2.8459e-08 1.28018e-07 5.4296e-07 2.16493e-06 8.08797e-06 2.82012e-05 9.13598e-05 0.000273528 0.000752264 0.00188795 0.00429623 0.0088228 0.0163318 0.0273602 0.0418785 0.0593635 0.0791019 0.100467 0.123032 0.146545 0.170877 0.195964 0.221779 0.248319 0.275592 0.303616 0.332416 0.362025 0.392477 0.423815 0.456084 0.489335 0.523622 0.559004 0.595541 0.633293 0.672314 0.712643 0.754283 0.797151 0.840973 0.884996 0.927207 0.962033 0.974651 0.965704 0.956664 0.948042 0.941568 0.937539 0.935391 0.934377 0.933941 0.933776 0.93372 0.933682 0.933668 0.933629 0.933541 0.933452 0.93337 0.933312 0.933283 0.93334 0.933641 0.933961 0.933908 0.933911 0.933882 0.933848 0.933804 0.933763 0.933724 0.933682 0.933645 0.933609 0.933577 0.933548 0.933522 0.933497 0.933471 0.933441 0.933403 0.933354 0.933288 0.933202 0.933093 0.932958 0.9328 0.932623 0.93244 0.932265 0.932119 0.932013 0.931971 0.932021 0.932864 0.934819 0.934968 0.934496 0.933998 0.933155 0.932509 0.931748 0.931155 0.930651 0.930433 0.930541 0.932581 0.934488 0.936967 0.936025 0.929973 0.934106 0.909115 0.925762 0.861288 0.839539 0.768931 0.717897 0.601845 0.501881 0.373969 0.25557 0.153647 0.0802826 0.0367659 0.0153152 0.00605255 0.00233446 0.000891193 0.00033874 0.00012848 4.86601e-05 1.84037e-05 6.94932e-06 2.61907e-06 9.84798e-07 3.69275e-07 1.38022e-07 5.13947e-08 1.90562e-08 7.03186e-09 2.58099e-09 9.41798e-10 3.41591e-10 1.22955e-10 4.40405e-11 1.57002e-11 5.56697e-12 1.93991e-12 7.85439e-13 3.95101e-14 1.17714e-13 1.01793e-13 5.67282e-14 5.9117e-14 0 0 -2.08471e-15 -2.10022e-15 -1.38497e-15 2.02275e-15 1.01e-15 6.52239e-15 1.40397e-14 6.69393e-15 1.80269e-14 2.2453e-14 1.79422e-14 1.83312e-14 1.16201e-14 1.46232e-14 1.15899e-14 9.65653e-15 1.26657e-14 1.18386e-14 1.4685e-14 8.08749e-15 1.63131e-14 3.28094e-15 1.13384e-14 6.88787e-15 1.38492e-14 1.76566e-14 1.78316e-14 2.74387e-14 -1.43441e-14 2.22476e-14 2.94679e-14 -1.14483e-14 2.09989e-14 6.31658e-14 5.53683e-14 1.93302e-13 1.16387e-12 6.93269e-12 4.04833e-11 2.251e-10 1.19071e-09 5.98048e-09 2.8459e-08 1.28018e-07 5.4296e-07 2.16493e-06 8.08797e-06 2.82012e-05 9.13598e-05 0.000273528 0.000752264 0.00188795 0.00429623 0.0088228 0.0163318 0.0273602 0.0418785 0.0593635 0.0791019 0.100467 0.123032 0.146545 0.170877 0.195964 0.221779 0.248319 0.275592 0.303616 0.332416 0.362025 0.392477 0.423815 0.456084 0.489335 0.523622 0.559004 0.595541 0.633293 0.672314 0.712643 0.754283 0.797151 0.840973 0.884996 0.927207 0.962033 0.974651 0.965704 0.956664 0.948042 0.941568 0.937539 0.935391 0.934377 0.933941 0.933776 0.93372 0.933682 0.933668 0.933629 0.933541 0.933452 0.93337 0.933312 0.933283 0.93334 0.933641 0.933961 0.933908 0.933911 0.933882 0.933848 0.933804 0.933763 0.933724 0.933682 0.933645 0.933609 0.933577 0.933548 0.933522 0.933497 0.933471 0.933441 0.933403 0.933354 0.933288 0.933202 0.933093 0.932958 0.9328 0.932623 0.93244 0.932265 0.932119 0.932013 0.931971 0.932021 0.932864 0.934819 0.934968 0.934496 0.933998 0.933155 0.932509 0.931748 0.931155 0.930651 0.930433 0.930541 0.932581 0.934488 0.936967 0.936025 0.929973 0.934106 0.909115 0.925762 0.861288 0.839539 0.768931 0.717897 0.601845 0.501881 0.373969 0.25557 0.153647 0.0802826 0.0367659 0.0153152 0.00605255 0.00233446 0.000891193 0.00033874 0.00012848 4.86601e-05 1.84037e-05 6.94932e-06 2.61907e-06 9.84798e-07 3.69275e-07 1.38022e-07 5.13947e-08 1.90561e-08 7.03184e-09 2.58097e-09 9.41838e-10 3.41543e-10 1.23036e-10 4.40671e-11 1.56538e-11 5.57408e-12 1.97989e-12 7.02966e-13 2.00156e-13 5.00541e-14 7.67803e-14 9.02478e-14 -5.90293e-14 0 0 -2.27282e-16 -1.20044e-15 -3.72344e-15 4.67148e-15 8.89555e-15 6.0759e-15 8.99451e-15 2.18423e-14 1.90344e-14 2.77789e-14 2.59067e-14 1.50252e-14 8.16868e-15 1.05461e-14 -9.13835e-16 1.19364e-14 8.71914e-15 6.06944e-15 3.56872e-15 -1.22741e-14 1.48283e-14 -3.86649e-16 4.8658e-15 1.29267e-14 2.02184e-14 -6.43617e-15 1.81031e-14 4.29539e-15 2.36672e-14 -5.61907e-15 3.00573e-14 6.36924e-15 5.17263e-14 8.46761e-14 1.04461e-13 1.76962e-13 1.1063e-12 6.93482e-12 4.0481e-11 2.25095e-10 1.19068e-09 5.98046e-09 2.84591e-08 1.28018e-07 5.4296e-07 2.16493e-06 8.08797e-06 2.82012e-05 9.13598e-05 0.000273528 0.000752264 0.00188795 0.00429623 0.0088228 0.0163318 0.0273602 0.0418785 0.0593635 0.0791019 0.100467 0.123032 0.146545 0.170877 0.195964 0.221779 0.248319 0.275592 0.303616 0.332416 0.362025 0.392477 0.423815 0.456084 0.489335 0.523622 0.559004 0.595541 0.633293 0.672314 0.712643 0.754283 0.797151 0.840973 0.884996 0.927207 0.962033 0.974651 0.965704 0.956664 0.948042 0.941568 0.937539 0.935391 0.934377 0.933941 0.933776 0.93372 0.933682 0.933668 0.933629 0.933541 0.933452 0.93337 0.933312 0.933283 0.93334 0.933641 0.933961 0.933908 0.933911 0.933882 0.933848 0.933804 0.933763 0.933724 0.933682 0.933645 0.933609 0.933577 0.933548 0.933522 0.933497 0.933471 0.933441 0.933403 0.933354 0.933288 0.933202 0.933093 0.932958 0.9328 0.932623 0.93244 0.932265 0.932119 0.932013 0.931971 0.932021 0.932864 0.934819 0.934968 0.934496 0.933998 0.933155 0.932509 0.931748 0.931155 0.930651 0.930433 0.930541 0.932581 0.934488 0.936967 0.936025 0.929973 0.934106 0.909115 0.925762 0.861288 0.839539 0.768931 0.717897 0.601845 0.501881 0.373969 0.25557 0.153647 0.0802826 0.0367659 0.0153152 0.00605255 0.00233446 0.000891193 0.00033874 0.00012848 4.86601e-05 1.84037e-05 6.94932e-06 2.61907e-06 9.84798e-07 3.69275e-07 1.38022e-07 5.13948e-08 1.90562e-08 7.03188e-09 2.58092e-09 9.41943e-10 3.41527e-10 1.22999e-10 4.41006e-11 1.56527e-11 5.59279e-12 1.99452e-12 6.38103e-13 1.29966e-13 1.12466e-13 -2.27095e-14 4.94538e-14 1.26267e-14 0 0 -9.48228e-16 -1.22304e-15 -3.98398e-15 5.49333e-15 7.35034e-15 1.46527e-14 3.96133e-15 2.36272e-14 1.91573e-14 3.13375e-14 1.92671e-14 6.52559e-15 1.60617e-14 7.91262e-15 7.54248e-15 1.05957e-15 -1.3081e-14 -6.72297e-16 1.13529e-14 -3.7439e-15 -1.38471e-14 -1.2004e-14 2.71283e-14 4.74523e-15 3.22631e-14 -2.16659e-15 1.21951e-14 -7.18442e-15 1.25928e-14 5.36173e-15 2.81944e-14 2.42518e-14 8.94641e-14 8.341e-14 9.40414e-14 2.08253e-13 1.10243e-12 6.94322e-12 4.04164e-11 2.25004e-10 1.19076e-09 5.98038e-09 2.8459e-08 1.28018e-07 5.4296e-07 2.16493e-06 8.08797e-06 2.82012e-05 9.13598e-05 0.000273528 0.000752264 0.00188795 0.00429623 0.0088228 0.0163318 0.0273602 0.0418785 0.0593635 0.0791019 0.100467 0.123032 0.146545 0.170877 0.195964 0.221779 0.248319 0.275592 0.303616 0.332416 0.362025 0.392477 0.423815 0.456084 0.489335 0.523622 0.559004 0.595541 0.633293 0.672314 0.712643 0.754283 0.797151 0.840973 0.884996 0.927207 0.962033 0.974651 0.965704 0.956664 0.948042 0.941568 0.937539 0.935391 0.934377 0.933941 0.933776 0.93372 0.933682 0.933668 0.933629 0.933541 0.933452 0.93337 0.933312 0.933283 0.93334 0.933641 0.933961 0.933908 0.933911 0.933882 0.933848 0.933804 0.933763 0.933724 0.933682 0.933645 0.933609 0.933577 0.933548 0.933522 0.933497 0.933471 0.933441 0.933403 0.933354 0.933288 0.933202 0.933093 0.932958 0.9328 0.932623 0.93244 0.932265 0.932119 0.932013 0.931971 0.932021 0.932864 0.934819 0.934968 0.934496 0.933998 0.933155 0.932509 0.931748 0.931155 0.930651 0.930433 0.930541 0.932581 0.934488 0.936967 0.936025 0.929973 0.934106 0.909115 0.925762 0.861288 0.839539 0.768931 0.717897 0.601845 0.501881 0.373969 0.25557 0.153647 0.0802826 0.0367659 0.0153152 0.00605255 0.00233446 0.000891193 0.00033874 0.00012848 4.86601e-05 1.84037e-05 6.94932e-06 2.61907e-06 9.84798e-07 3.69275e-07 1.38022e-07 5.13948e-08 1.90561e-08 7.03197e-09 2.58102e-09 9.42037e-10 3.41578e-10 1.23099e-10 4.40761e-11 1.55742e-11 5.61495e-12 1.93359e-12 5.9368e-13 1.17074e-13 1.20688e-13 -1.22221e-13 1.45858e-14 -1.90843e-15 0 0 -3.83032e-15 -2.92231e-15 -5.28788e-15 -2.2143e-15 -3.54835e-15 1.98349e-14 2.31758e-14 1.49461e-14 1.57134e-14 2.15759e-14 2.24225e-14 1.39489e-14 1.19703e-14 2.04037e-15 -5.90433e-15 -4.96295e-15 -3.90309e-15 -6.65841e-15 -1.04558e-14 2.73883e-15 -1.15418e-14 -4.89029e-15 1.87192e-14 4.94849e-15 1.18228e-14 1.66767e-14 -4.72466e-16 2.26645e-14 -1.10501e-14 3.26705e-14 2.16206e-14 4.40492e-14 8.7444e-14 6.28709e-14 6.4935e-14 2.56469e-13 1.20108e-12 6.89202e-12 4.03334e-11 2.24946e-10 1.19076e-09 5.98042e-09 2.8459e-08 1.28018e-07 5.4296e-07 2.16493e-06 8.08797e-06 2.82012e-05 9.13598e-05 0.000273528 0.000752264 0.00188795 0.00429623 0.0088228 0.0163318 0.0273602 0.0418785 0.0593635 0.0791019 0.100467 0.123032 0.146545 0.170877 0.195964 0.221779 0.248319 0.275592 0.303616 0.332416 0.362025 0.392477 0.423815 0.456084 0.489335 0.523622 0.559004 0.595541 0.633293 0.672314 0.712643 0.754283 0.797151 0.840973 0.884996 0.927207 0.962033 0.974651 0.965704 0.956664 0.948042 0.941568 0.937539 0.935391 0.934377 0.933941 0.933776 0.93372 0.933682 0.933668 0.933629 0.933541 0.933452 0.93337 0.933312 0.933283 0.93334 0.933641 0.933961 0.933908 0.933911 0.933882 0.933848 0.933804 0.933763 0.933724 0.933682 0.933645 0.933609 0.933577 0.933548 0.933522 0.933497 0.933471 0.933441 0.933403 0.933354 0.933288 0.933202 0.933093 0.932958 0.9328 0.932623 0.93244 0.932265 0.932119 0.932013 0.931971 0.932021 0.932864 0.934819 0.934968 0.934496 0.933998 0.933155 0.932509 0.931748 0.931155 0.930651 0.930433 0.930541 0.932581 0.934488 0.936967 0.936025 0.929973 0.934106 0.909115 0.925762 0.861288 0.839539 0.768931 0.717897 0.601845 0.501881 0.373969 0.25557 0.153647 0.0802826 0.0367659 0.0153152 0.00605255 0.00233446 0.000891193 0.00033874 0.00012848 4.86601e-05 1.84037e-05 6.94932e-06 2.61907e-06 9.84798e-07 3.69275e-07 1.38022e-07 5.13947e-08 1.90562e-08 7.03201e-09 2.58108e-09 9.41914e-10 3.41662e-10 1.2298e-10 4.41485e-11 1.55648e-11 5.62923e-12 2.00099e-12 3.67903e-13 1.7999e-13 5.43856e-14 -7.93269e-14 2.12862e-14 -8.82161e-15 0 0 -2.5033e-15 -3.81831e-15 -6.42841e-15 -1.01636e-14 -7.78852e-15 1.66607e-14 3.38303e-14 2.12551e-14 1.17736e-14 4.42162e-15 4.38007e-14 1.43088e-14 -1.39555e-16 3.46852e-15 -3.88613e-14 6.50896e-15 2.76616e-14 -7.38554e-15 -5.16563e-14 -6.34347e-15 1.48384e-14 1.16766e-14 -2.00093e-14 2.52607e-14 -1.51529e-14 1.86361e-14 -1.56771e-15 3.8138e-14 4.75749e-15 7.20027e-15 2.40507e-16 8.31904e-14 1.13957e-13 2.94238e-14 8.15876e-14 2.46483e-13 1.23074e-12 6.91478e-12 4.02942e-11 2.24897e-10 1.1907e-09 5.98049e-09 2.84591e-08 1.28018e-07 5.4296e-07 2.16493e-06 8.08797e-06 2.82012e-05 9.13598e-05 0.000273528 0.000752264 0.00188795 0.00429623 0.0088228 0.0163318 0.0273602 0.0418785 0.0593635 0.0791019 0.100467 0.123032 0.146545 0.170877 0.195964 0.221779 0.248319 0.275592 0.303616 0.332416 0.362025 0.392477 0.423815 0.456084 0.489335 0.523622 0.559004 0.595541 0.633293 0.672314 0.712643 0.754283 0.797151 0.840973 0.884996 0.927207 0.962033 0.974651 0.965704 0.956664 0.948042 0.941568 0.937539 0.935391 0.934377 0.933941 0.933776 0.93372 0.933682 0.933668 0.933629 0.933541 0.933452 0.93337 0.933312 0.933283 0.93334 0.933641 0.933961 0.933908 0.933911 0.933882 0.933848 0.933804 0.933763 0.933724 0.933682 0.933645 0.933609 0.933577 0.933548 0.933522 0.933497 0.933471 0.933441 0.933403 0.933354 0.933288 0.933202 0.933093 0.932958 0.9328 0.932623 0.93244 0.932265 0.932119 0.932013 0.931971 0.932021 0.932864 0.934819 0.934968 0.934496 0.933998 0.933155 0.932509 0.931748 0.931155 0.930651 0.930433 0.930541 0.932581 0.934488 0.936967 0.936025 0.929973 0.934106 0.909115 0.925762 0.861288 0.839539 0.768931 0.717897 0.601845 0.501881 0.373969 0.25557 0.153647 0.0802826 0.0367659 0.0153152 0.00605255 0.00233446 0.000891193 0.00033874 0.00012848 4.86601e-05 1.84037e-05 6.94932e-06 2.61907e-06 9.84798e-07 3.69275e-07 1.38022e-07 5.13947e-08 1.90564e-08 7.032e-09 2.58102e-09 9.41761e-10 3.41726e-10 1.22644e-10 4.42526e-11 1.56791e-11 5.63244e-12 2.10397e-12 2.04118e-13 2.48315e-14 1.09496e-13 -1.23926e-14 -1.17494e-14 1.88629e-13 0
				</DataArray>
				<DataArray Name="VitesseY" type="Float32" format="ascii">