<?xml version="1.0"?>
<VTKFile type="PolyData">
	<PolyData>
		<Piece NumberOfPoints="1206" NumberOfPolys="1000">
			<Points>
				<DataArray type="Float32" NumberOfComponents="3" format="ascii">
 0 0 0 0.005 0 0 0.01 0 0 0.015 0 0 0.02 0 0 0.025 0 0 0.03 0 0 0.035 0 0 0.04 0 0 0.045 0 0 0.05 0 0 0.055 0 0 0.06 0 0 0.065 0 0 0.07 0 0 0.075 0 0 0.08 0 0 0.085 0 0 0.09 0 0 0.095 0 0 0.1 0 0 0.105 0 0 0.11 0 0 0.115 0 0 0.12 0 0 0.125 0 0 0.13 0 0 0.135 0 0 0.14 0 0 0.145 0 0 0.15 0 0 0.155 0 0 0.16 0 0 0.165 0 0 0.17 0 0 0.175 0 0 0.18 0 0 0.185 0 0 0.19 0 0 0.195 0 0 0.2 0 0 0.205 0 0 0.21 0 0 0.215 0 0 0.22 0 0 0.225 0 0 0.23 0 0 0.235 0 0 0.24 0 0 0.245 0 0 0.25 0 0 0.255 0 0 0.26 0 0 0.265 0 0 0.27 0 0 0.275 0 0 0.28 0 0 0.285 0 0 0.29 0 0 0.295 0 0 0.3 0 0 0.305 0 0 0.31 0 0 0.315 0 0 0.32 0 0 0.325 0 0 0.33 0 0 0.335 0 0 0.34 0 0 0.345 0 0 0.35 0 0 0.355 0 0 0.36 0 0 0.365 0 0 0.37 0 0 0.375 0 0 0.38 0 0 0.385 0 0 0.39 0 0 0.395 0 0 0.4 0 0 0.405 0 0 0.41 0 0 0.415 0 0 0.42 0 0 0.425 0 0 0.43 0 0 0.435 0 0 0.44 0 0 0.445 0 0 0.45 0 0 0.455 0 0 0.46 0 0 0.465 0 0 0.47 0 0 0.475 0 0 0.48 0 0 0.485 0 0 0.49 0 0 0.495 0 0 0.5 0 0 0.505 0 0 0.51 0 0 0.515 0 0 0.52 0 0 0.525 0 0 0.53 0 0 0.535 0 0 0.54 0 0 0.545 0 0 0.55 0 0 0.555 0 0 0.56 0 0 0.565 0 0 0.57 0 0 0.575 0 0 0.58 0 0 0.585 0 0 0.59 0 0 0.595 0 0 0.6 0 0 0.605 0 0 0.61 0 0 0.615 0 0 0.62 0 0 0.625 0 0 0.63 0 0 0.635 0 0 0.64 0 0 0.645 0 0 0.65 0 0 0.655 0 0 0.66 0 0 0.665 0 0 0.67 0 0 0.675 0 0 0.68 0 0 0.685 0 0 0.69 0 0 0.695 0 0 0.7 0 0 0.705 0 0 0.71 0 0 0.715 0 0 0.72 0 0 0.725 0 0 0.73 0 0 0.735 0 0 0.74 0 0 0.745 0 0 0.75 0 0 0.755 0 0 0.76 0 0 0.765 0 0 0.77 0 0 0.775 0 0 0.78 0 0 0.785 0 0 0.79 0 0 0.795 0 0 0.8 0 0 0.805 0 0 0.81 0 0 0.815 0 0 0.82 0 0 0.825 0 0 0.83 0 0 0.835 0 0 0.84 0 0 0.845 0 0 0.85 0 0 0.855 0 0 0.86 0 0 0.865 0 0 0.87 0 0 0.875 0 0 0.88 0 0 0.885 0 0 0.89 0 0 0.895 0 0 0.9 0 0 0.905 0 0 0.91 0 0 0.915 0 0 0.92 0 0 0.925 0 0 0.93 0 0 0.935 0 0 0.94 0 0 0.945 0 0 0.95 0 0 0.955 0 0 0.96 0 0 0.965 0 0 0.97 0 0 0.975 0 0 0.98 0 0 0.985 0 0 0.99 0 0 0.995 0 0 1 0 0 0 0.02 0 0.005 0.02 0 0.01 0.02 0 0.015 0.02 0 0.02 0.02 0 0.025 0.02 0 0.03 0.02 0 0.035 0.02 0 0.04 0.02 0 0.045 0.02 0 0.05 0.02 0 0.055 0.02 0 0.06 0.02 0 0.065 0.02 0 0.07 0.02 0 0.075 0.02 0 0.08 0.02 0 0.085 0.02 0 0.09 0.02 0 0.095 0.02 0 0.1 0.02 0 0.105 0.02 0 0.11 0.02 0 0.115 0.02 0 0.12 0.02 0 0.125 0.02 0 0.13 0.02 0 0.135 0.02 0 0.14 0.02 0 0.145 0.02 0 0.15 0.02 0 0.155 0.02 0 0.16 0.02 0 0.165 0.02 0 0.17 0.02 0 0.175 0.02 0 0.18 0.02 0 0.185 0.02 0 0.19 0.02 0 0.195 0.02 0 0.2 0.02 0 0.205 0.02 0 0.21 0.02 0 0.215 0.02 0 0.22 0.02 0 0.225 0.02 0 0.23 0.02 0 0.235 0.02 0 0.24 0.02 0 0.245 0.02 0 0.25 0.02 0 0.255 0.02 0 0.26 0.02 0 0.265 0.02 0 0.27 0.02 0 0.275 0.02 0 0.28 0.02 0 0.285 0.02 0 0.29 0.02 0 0.295 0.02 0 0.3 0.02 0 0.305 0.02 0 0.31 0.02 0 0.315 0.02 0 0.32 0.02 0 0.325 0.02 0 0.33 0.02 0 0.335 0.02 0 0.34 0.02 0 0.345 0.02 0 0.35 0.02 0 0.355 0.02 0 0.36 0.02 0 0.365 0.02 0 0.37 0.02 0 0.375 0.02 0 0.38 0.02 0 0.385 0.02 0 0.39 0.02 0 0.395 0.02 0 0.4 0.02 0 0.405 0.02 0 0.41 0.02 0 0.415 0.02 0 0.42 0.02 0 0.425 0.02 0 0.43 0.02 0 0.435 0.02 0 0.44 0.02 0 0.445 0.02 0 0.45 0.02 0 0.455 0.02 0 0.46 0.02 0 0.465 0.02 0 0.47 0.02 0 0.475 0.02 0 0.48 0.02 0 0.485 0.02 0 0.49 0.02 0 0.495 0.02 0 0.5 0.02 0 0.505 0.02 0 0.51 0.02 0 0.515 0.02 0 0.52 0.02 0 0.525 0.02 0 0.53 0.02 0 0.535 0.02 0 0.54 0.02 0 0.545 0.02 0 0.55 0.02 0 0.555 0.02 0 0.56 0.02 0 0.565 0.02 0 0.57 0.02 0 0.575 0.02 0 0.58 0.02 0 0.585 0.02 0 0.59 0.02 0 0.595 0.02 0 0.6 0.02 0 0.605 0.02 0 0.61 0.02 0 0.615 0.02 0 0.62 0.02 0 0.625 0.02 0 0.63 0.02 0 0.635 0.02 0 0.64 0.02 0 0.645 0.02 0 0.65 0.02 0 0.655 0.02 0 0.66 0.02 0 0.665 0.02 0 0.67 0.02 0 0.675 0.02 0 0.68 0.02 0 0.685 0.02 0 0.69 0.02 0 0.695 0.02 0 0.7 0.02 0 0.705 0.02 0 0.71 0.02 0 0.715 0.02 0 0.72 0.02 0 0.725 0.02 0 0.73 0.02 0 0.735 0.02 0 0.74 0.02 0 0.745 0.02 0 0.75 0.02 0 0.755 0.02 0 0.76 0.02 0 0.765 0.02 0 0.77 0.02 0 0.775 0.02 0 0.78 0.02 0 0.785 0.02 0 0.79 0.02 0 0.795 0.02 0 0.8 0.02 0 0.805 0.02 0 0.81 0.02 0 0.815 0.02 0 0.82 0.02 0 0.825 0.02 0 0.83 0.02 0 0.835 0.02 0 0.84 0.02 0 0.845 0.02 0 0.85 0.02 0 0.855 0.02 0 0.86 0.02 0 0.865 0.02 0 0.87 0.02 0 0.875 0.02 0 0.88 0.02 0 0.885 0.02 0 0.89 0.02 0 0.895 0.02 0 0.9 0.02 0 0.905 0.02 0 0.91 0.02 0 0.915 0.02 0 0.92 0.02 0 0.925 0.02 0 0.93 0.02 0 0.935 0.02 0 0.94 0.02 0 0.945 0.02 0 0.95 0.02 0 0.955 0.02 0 0.96 0.02 0 0.965 0.02 0 0.97 0.02 0 0.975 0.02 0 0.98 0.02 0 0.985 0.02 0 0.99 0.02 0 0.995 0.02 0 1 0.02 0 0 0.04 0 0.005 0.04 0 0.01 0.04 0 0.015 0.04 0 0.02 0.04 0 0.025 0.04 0 0.03 0.04 0 0.035 0.04 0 0.04 0.04 0 0.045 0.04 0 0.05 0.04 0 0.055 0.04 0 0.06 0.04 0 0.065 0.04 0 0.07 0.04 0 0.075 0.04 0 0.08 0.04 0 0.085 0.04 0 0.09 0.04 0 0.095 0.04 0 0.1 0.04 0 0.105 0.04 0 0.11 0.04 0 0.115 0.04 0 0.12 0.04 0 0.125 0.04 0 0.13 0.04 0 0.135 0.04 0 0.14 0.04 0 0.145 0.04 0 0.15 0.04 0 0.155 0.04 0 0.16 0.04 0 0.165 0.04 0 0.17 0.04 0 0.175 0.04 0 0.18 0.04 0 0.185 0.04 0 0.19 0.04 0 0.195 0.04 0 0.2 0.04 0 0.205 0.04 0 0.21 0.04 0 0.215 0.04 0 0.22 0.04 0 0.225 0.04 0 0.23 0.04 0 0.235 0.04 0 0.24 0.04 0 0.245 0.04 0 0.25 0.04 0 0.255 0.04 0 0.26 0.04 0 0.265 0.04 0 0.27 0.04 0 0.275 0.04 0 0.28 0.04 0 0.285 0.04 0 0.29 0.04 0 0.295 0.04 0 0.3 0.04 0 0.305 0.04 0 0.31 0.04 0 0.315 0.04 0 0.32 0.04 0 0.325 0.04 0 0.33 0.04 0 0.335 0.04 0 0.34 0.04 0 0.345 0.04 0 0.35 0.04 0 0.355 0.04 0 0.36 0.04 0 0.365 0.04 0 0.37 0.04 0 0.375 0.04 0 0.38 0.04 0 0.385 0.04 0 0.39 0.04 0 0.395 0.04 0 0.4 0.04 0 0.405 0.04 0 0.41 0.04 0 0.415 0.04 0 0.42 0.04 0 0.425 0.04 0 0.43 0.04 0 0.435 0.04 0 0.44 0.04 0 0.445 0.04 0 0.45 0.04 0 0.455 0.04 0 0.46 0.04 0 0.465 0.04 0 0.47 0.04 0 0.475 0.04 0 0.48 0.04 0 0.485 0.04 0 0.49 0.04 0 0.495 0.04 0 0.5 0.04 0 0.505 0.04 0 0.51 0.04 0 0.515 0.04 0 0.52 0.04 0 0.525 0.04 0 0.53 0.04 0 0.535 0.04 0 0.54 0.04 0 0.545 0.04 0 0.55 0.04 0 0.555 0.04 0 0.56 0.04 0 0.565 0.04 0 0.57 0.04 0 0.575 0.04 0 0.58 0.04 0 0.585 0.04 0 0.59 0.04 0 0.595 0.04 0 0.6 0.04 0 0.605 0.04 0 0.61 0.04 0 0.615 0.04 0 0.62 0.04 0 0.625 0.04 0 0.63 0.04 0 0.635 0.04 0 0.64 0.04 0 0.645 0.04 0 0.65 0.04 0 0.655 0.04 0 0.66 0.04 0 0.665 0.04 0 0.67 0.04 0 0.675 0.04 0 0.68 0.04 0 0.685 0.04 0 0.69 0.04 0 0.695 0.04 0 0.7 0.04 0 0.705 0.04 0 0.71 0.04 0 0.715 0.04 0 0.72 0.04 0 0.725 0.04 0 0.73 0.04 0 0.735 0.04 0 0.74 0.04 0 0.745 0.04 0 0.75 0.04 0 0.755 0.04 0 0.76 0.04 0 0.765 0.04 0 0.77 0.04 0 0.775 0.04 0 0.78 0.04 0 0.785 0.04 0 0.79 0.04 0 0.795 0.04 0 0.8 0.04 0 0.805 0.04 0 0.81 0.04 0 0.815 0.04 0 0.82 0.04 0 0.825 0.04 0 0.83 0.04 0 0.835 0.04 0 0.84 0.04 0 0.845 0.04 0 0.85 0.04 0 0.855 0.04 0 0.86 0.04 0 0.865 0.04 0 0.87 0.04 0 0.875 0.04 0 0.88 0.04 0 0.885 0.04 0 0.89 0.04 0 0.895 0.04 0 0.9 0.04 0 0.905 0.04 0 0.91 0.04 0 0.915 0.04 0 0.92 0.04 0 0.925 0.04 0 0.93 0.04 0 0.935 0.04 0 0.94 0.04 0 0.945 0.04 0 0.95 0.04 0 0.955 0.04 0 0.96 0.04 0 0.965 0.04 0 0.97 0.04 0 0.975 0.04 0 0.98 0.04 0 0.985 0.04 0 0.99 0.04 0 0.995 0.04 0 1 0.04 0 0 0.06 0 0.005 0.06 0 0.01 0.06 0 0.015 0.06 0 0.02 0.06 0 0.025 0.06 0 0.03 0.06 0 0.035 0.06 0 0.04 0.06 0 0.045 0.06 0 0.05 0.06 0 0.055 0.06 0 0.06 0.06 0 0.065 0.06 0 0.07 0.06 0 0.075 0.06 0 0.08 0.06 0 0.085 0.06 0 0.09 0.06 0 0.095 0.06 0 0.1 0.06 0 0.105 0.06 0 0.11 0.06 0 0.115 0.06 0 0.12 0.06 0 0.125 0.06 0 0.13 0.06 0 0.135 0.06 0 0.14 0.06 0 0.145 0.06 0 0.15 0.06 0 0.155 0.06 0 0.16 0.06 0 0.165 0.06 0 0.17 0.06 0 0.175 0.06 0 0.18 0.06 0 0.185 0.06 0 0.19 0.06 0 0.195 0.06 0 0.2 0.06 0 0.205 0.06 0 0.21 0.06 0 0.215 0.06 0 0.22 0.06 0 0.225 0.06 0 0.23 0.06 0 0.235 0.06 0 0.24 0.06 0 0.245 0.06 0 0.25 0.06 0 0.255 0.06 0 0.26 0.06 0 0.265 0.06 0 0.27 0.06 0 0.275 0.06 0 0.28 0.06 0 0.285 0.06 0 0.29 0.06 0 0.295 0.06 0 0.3 0.06 0 0.305 0.06 0 0.31 0.06 0 0.315 0.06 0 0.32 0.06 0 0.325 0.06 0 0.33 0.06 0 0.335 0.06 0 0.34 0.06 0 0.345 0.06 0 0.35 0.06 0 0.355 0.06 0 0.36 0.06 0 0.365 0.06 0 0.37 0.06 0 0.375 0.06 0 0.38 0.06 0 0.385 0.06 0 0.39 0.06 0 0.395 0.06 0 0.4 0.06 0 0.405 0.06 0 0.41 0.06 0 0.415 0.06 0 0.42 0.06 0 0.425 0.06 0 0.43 0.06 0 0.435 0.06 0 0.44 0.06 0 0.445 0.06 0 0.45 0.06 0 0.455 0.06 0 0.46 0.06 0 0.465 0.06 0 0.47 0.06 0 0.475 0.06 0 0.48 0.06 0 0.485 0.06 0 0.49 0.06 0 0.495 0.06 0 0.5 0.06 0 0.505 0.06 0 0.51 0.06 0 0.515 0.06 0 0.52 0.06 0 0.525 0.06 0 0.53 0.06 0 0.535 0.06 0 0.54 0.06 0 0.545 0.06 0 0.55 0.06 0 0.555 0.06 0 0.56 0.06 0 0.565 0.06 0 0.57 0.06 0 0.575 0.06 0 0.58 0.06 0 0.585 0.06 0 0.59 0.06 0 0.595 0.06 0 0.6 0.06 0 0.605 0.06 0 0.61 0.06 0 0.615 0.06 0 0.62 0.06 0 0.625 0.06 0 0.63 0.06 0 0.635 0.06 0 0.64 0.06 0 0.645 0.06 0 0.65 0.06 0 0.655 0.06 0 0.66 0.06 0 0.665 0.06 0 0.67 0.06 0 0.675 0.06 0 0.68 0.06 0 0.685 0.06 0 0.69 0.06 0 0.695 0.06 0 0.7 0.06 0 0.705 0.06 0 0.71 0.06 0 0.715 0.06 0 0.72 0.06 0 0.725 0.06 0 0.73 0.06 0 0.735 0.06 0 0.74 0.06 0 0.745 0.06 0 0.75 0.06 0 0.755 0.06 0 0.76 0.06 0 0.765 0.06 0 0.77 0.06 0 0.775 0.06 0 0.78 0.06 0 0.785 0.06 0 0.79 0.06 0 0.795 0.06 0 0.8 0.06 0 0.805 0.06 0 0.81 0.06 0 0.815 0.06 0 0.82 0.06 0 0.825 0.06 0 0.83 0.06 0 0.835 0.06 0 0.84 0.06 0 0.845 0.06 0 0.85 0.06 0 0.855 0.06 0 0.86 0.06 0 0.865 0.06 0 0.87 0.06 0 0.875 0.06 0 0.88 0.06 0 0.885 0.06 0 0.89 0.06 0 0.895 0.06 0 0.9 0.06 0 0.905 0.06 0 0.91 0.06 0 0.915 0.06 0 0.92 0.06 0 0.925 0.06 0 0.93 0.06 0 0.935 0.06 0 0.94 0.06 0 0.945 0.06 0 0.95 0.06 0 0.955 0.06 0 0.96 0.06 0 0.965 0.06 0 0.97 0.06 0 0.975 0.06 0 0.98 0.06 0 0.985 0.06 0 0.99 0.06 0 0.995 0.06 0 1 0.06 0 0 0.08 0 0.005 0.08 0 0.01 0.08 0 0.015 0.08 0 0.02 0.08 0 0.025 0.08 0 0.03 0.08 0 0.035 0.08 0 0.04 0.08 0 0.045 0.08 0 0.05 0.08 0 0.055 0.08 0 0.06 0.08 0 0.065 0.08 0 0.07 0.08 0 0.075 0.08 0 0.08 0.08 0 0.085 0.08 0 0.09 0.08 0 0.095 0.08 0 0.1 0.08 0 0.105 0.08 0 0.11 0.08 0 0.115 0.08 0 0.12 0.08 0 0.125 0.08 0 0.13 0.08 0 0.135 0.08 0 0.14 0.08 0 0.145 0.08 0 0.15 0.08 0 0.155 0.08 0 0.16 0.08 0 0.165 0.08 0
[...]
			<PointData Scalars="VitesseX">
				<DataArray Name="VitesseX" type="Float32" format="ascii">
 0 3.54915e-14 5.38356e-15 2.05351e-14 -2.53875e-15 -2.50721e-14 2.80785e-14 -1.46577e-14 -1.65125e-14 1.28227e-14 -3.42703e-14 1.26767e-14 -1.9742e-14 6.95244e-14 -9.48286e-14 4.22866e-14 2.90438e-14 -2.15455e-13 -3.20199e-14 -3.1512e-14 -1.76832e-13 -1.42237e-13 -1.51353e-13 -9.38172e-14 2.92035e-14 -2.11807e-13 -1.59679e-13 -4.10829e-14 -2.65752e-13 6.24008e-14 1.85704e-14 -9.48616e-14 -1.26571e-13 -3.29894e-13 -1.14312e-14 -1.85028e-13 -1.32683e-13 -5.34696e-14 -9.37549e-14 -6.36941e-14 2.65221e-13 -2.23361e-13 4.33138e-14 2.10843e-13 -2.97921e-13 1.92034e-13 -5.93273e-14 2.24537e-12 1.72556e-11 1.11218e-10 6.72073e-10 3.83186e-09 2.05923e-08 1.03998e-07 4.92026e-07 2.17306e-06 8.92279e-06 3.39004e-05 0.000118504 0.000378591 0.00109678 0.00285634 0.00663136 0.0136454 0.0248863 0.0405593 0.0600142 0.0822104 0.106207 0.131343 0.157209 0.183569 0.210271 0.237215 0.264347 0.291637 0.319067 0.346635 0.374349 0.402229 0.430309 0.458352 0.485524 0.51279 0.539274 0.565807 0.591911 0.61789 0.643628 0.668934 0.694274 0.719035 0.743562 0.767971 0.791352 0.814635 0.837181 0.857785 0.878264 0.89501 0.90859 0.919985 0.925834 0.929474 0.931745 0.931918 0.931844 0.931752 0.931598 0.931337 0.930967 0.930534 0.930106 0.929747 0.929443 0.929172 0.928943 0.928762 0.928624 0.928514 0.928414 0.928302 0.928147 0.927896 0.927471 0.926785 0.926402 0.929241 0.931253 0.927954 0.927138 0.927235 0.927463 0.927574 0.927675 0.927712 0.927652 0.927552 0.927557 0.927645 0.927639 0.927597 0.927472 0.927188 0.926647 0.92558 0.923421 0.919096 0.910606 0.894446 0.865088 0.815198 0.737589 0.629317 0.496692 0.356275 0.22867 0.12915 0.0637361 0.0279708 0.0113449 0.00441325 0.00168383 0.00063665 0.000239517 8.97846e-05 3.35447e-05 1.24894e-05 4.63256e-06 1.71116e-06 6.29178e-07 2.30187e-07 8.3758e-08 3.02988e-08 1.08918e-08 3.88879e-09 1.37885e-09 4.84778e-10 1.68735e-10 5.84771e-11 1.95968e-11 6.19175e-12 2.00805e-12 1.23296e-13 -6.31018e-14 -1.46125e-13 -1.8443e-13 -1.21197e-13 -1.02776e-13 5.56449e-13 -2.59118e-13 3.30254e-13 7.22166e-13 -3.67036e-13 3.61182e-13 6.14463e-13 1.40867e-13 2.49263e-13 1.25029e-12 -1.27817e-13 0 0 1.69332e-14 2.99084e-14 3.36804e-15 -5.49223e-16 5.55774e-14 -7.24557e-15 -4.21271e-14 -7.25222e-15 1.57387e-14 -4.31574e-14 2.66793e-14 4.54287e-14 -1.03917e-13 2.49815e-14 -4.59834e-14 -1.17528e-13 -2.32566e-14 -3.94712e-14 -1.417e-13 -7.73485e-14 -9.21233e-14 -1.0327e-13 -1.43749e-13 -1.29023e-13 1.7058e-15 -7.76104e-16 -1.78671e-13 -5.39158e-14 -1.84679e-13 -8.16677e-14 -7.20272e-14 -2.02729e-13 -1.39985e-14 -2.69602e-13 -1.83388e-13 -1.64805e-13 -9.16567e-14 6.41762e-14 2.05277e-14 -1.54188e-13 7.0115e-14 6.11964e-14 -2.25853e-13 1.95768e-13 -1.79327e-13 2.17284e-13 2.27009e-12 1.69834e-11 1.1139e-10 6.72154e-10 3.83176e-09 2.05927e-08 1.03998e-07 4.92026e-07 2.17306e-06 8.92279e-06 3.39004e-05 0.000118504 0.000378591 0.00109678 0.00285634 0.00663136 0.0136454 0.0248863 0.0405593 0.0600142 0.0822104 0.106207 0.131343 0.157209 0.183569 0.210271 0.237215 0.264347 0.291637 0.319067 0.346635 0.374349 0.402229 0.430309 0.458352 0.485524 0.51279 0.539274 0.565807 0.591911 0.61789 0.643628 0.668934 0.694274 0.719035 0.743562 0.767971 0.791352 0.814635 0.837181 0.857785 0.878264 0.89501 0.90859 0.919985 0.925834 0.929474 0.931745 0.931918 0.931844 0.931752 0.931598 0.931337 0.930967 0.930534 0.930106 0.929747 0.929443 0.929172 0.928943 0.928762 0.928624 0.928514 0.928414 0.928302 0.928147 0.927896 0.927471 0.926785 0.926402 0.929241 0.931253 0.927954 0.927138 0.927235 0.927463 0.927574 0.927675 0.927712 0.927652 0.927552 0.927557 0.927645 0.927639 0.927597 0.927472 0.927188 0.926647 0.92558 0.923421 0.919096 0.910606 0.894446 0.865088 0.815198 0.737589 0.629317 0.496692 0.356275 0.22867 0.12915 0.0637361 0.0279708 0.0113449 0.00441325 0.00168383 0.00063665 0.000239517 8.97846e-05 3.35447e-05 1.24894e-05 4.63256e-06 1.71116e-06 6.29178e-07 2.30187e-07 8.37579e-08 3.02986e-08 1.08917e-08 3.88908e-09 1.37854e-09 4.84979e-10 1.69273e-10 5.79344e-11 1.97025e-11 6.65882e-12 1.67585e-12 9.56497e-14 2.18612e-13 -3.19491e-14 -1.60261e-13 -1.17714e-13 -7.27976e-14 -2.28206e-13 3.27148e-13 1.95661e-13 1.43771e-13 1.16262e-12 1.31206e-13 -5.90316e-14 5.11547e-13 7.07084e-13 -6.99108e-13 3.15316e-13 0 0 -5.75149e-15 8.52001e-15 4.36646e-14 3.93525e-15 -1.69473e-14 4.6459e-14 -1.43717e-14 -1.5351e-14 3.33255e-14 3.52999e-14 -8.05568e-14 -3.5035e-14 3.9995e-14 -9.33197e-14 7.19318e-15 -2.9732e-14 -1.50117e-13 2.49898e-14 -1.04653e-13 -1.17394e-13 -1.51651e-13 5.69774e-15 -6.52238e-14 -2.46649e-14 5.89479e-14 -1.85289e-13 -1.7287e-13 -2.41566e-13 -5.11704e-14 -6.4615e-14 -3.04202e-13 1.49214e-13 -1.80024e-13 -1.81991e-13 -1.19377e-13 -5.03409e-14 -8.05405e-14 -1.86393e-13 -8.62258e-14 -1.1326e-13 -3.06445e-14 -4.01483e-14 2.94178e-15 -5.32819e-14 -1.00796e-13 1.90834e-13 2.34881e-12 1.72762e-11 1.11322e-10 6.72074e-10 3.83176e-09 2.05928e-08 1.03998e-07 4.92026e-07 2.17306e-06 8.92279e-06 3.39004e-05 0.000118504 0.000378591 0.00109678 0.00285634 0.00663136 0.0136454 0.0248863 0.0405593 0.0600142 0.0822104 0.106207 0.131343 0.157209 0.183569 0.210271 0.237215 0.264347 0.291637 0.319067 0.346635 0.374349 0.402229 0.430309 0.458352 0.485524 0.51279 0.539274 0.565807 0.591911 0.61789 0.643628 0.668934 0.694274 0.719035 0.743562 0.767971 0.791352 0.814635 0.837181 0.857785 0.878264 0.89501 0.90859 0.919985 0.925834 0.929474 0.931745 0.931918 0.931844 0.931752 0.931598 0.931337 0.930967 0.930534 0.930106 0.929747 0.929443 0.929172 0.928943 0.928762 0.928624 0.928514 0.928414 0.928302 0.928147 0.927896 0.927471 0.926785 0.926402 0.929241 0.931253 0.927954 0.927138 0.927235 0.927463 0.927574 0.927675 0.927712 0.927652 0.927552 0.927557 0.927645 0.927639 0.927597 0.927472 0.927188 0.926647 0.92558 0.923421 0.919096 0.910606 0.894446 0.865088 0.815198 0.737589 0.629317 0.496692 0.356275 0.22867 0.12915 0.0637361 0.0279708 0.0113449 0.00441325 0.00168383 0.00063665 0.000239517 8.97846e-05 3.35447e-05 1.24894e-05 4.63256e-06 1.71116e-06 6.29178e-07 2.30187e-07 8.37582e-08 3.02986e-08 1.08915e-08 3.88906e-09 1.3787e-09 4.8515e-10 1.69202e-10 5.83648e-11 1.97794e-11 6.50526e-12 1.92119e-12 5.00834e-13 -9.85181e-15 -1.78652e-13 -2.89973e-13 -1.152e-13 -4.75603e-14 -5.9249e-14 4.13945e-14 4.54809e-13 -3.0637e-13 5.36533e-13 1.01111e-12 1.41762e-13 2.28432e-13 5.1894e-14 3.18683e-13 2.58995e-13 0 0 -9.385e-15 -5.9678e-15 1.06724e-14 -3.62563e-15 -3.75987e-14 3.79009e-14 -3.61275e-14 -1.39679e-14 -3.05242e-14 1.57632e-14 4.7842e-14 7.86429e-15 3.56012e-14 -1.44987e-14 -6.06227e-15 -9.65751e-14 -1.52487e-13 -9.33402e-14 9.13656e-14 -8.83782e-14 -6.50387e-14 -1.42674e-15 -1.1542e-14 7.1789e-14 -1.59624e-13 -1.70124e-13 -1.80913e-13 -1.84164e-13 -1.6856e-13 -3.39225e-14 -9.39747e-14 -1.74806e-13 -5.61883e-14 -5.81823e-14 -1.07287e-13 -9.91861e-14 -1.7543e-13 -1.54759e-13 -2.59327e-13 -8.05471e-14 -1.84328e-15 -6.71878e-14 1.24599e-13 -2.65898e-13 1.78428e-13 1.94519e-13 2.5828e-12 1.75161e-11 1.11452e-10 6.71989e-10 3.83179e-09 2.05925e-08 1.03998e-07 4.92026e-07 2.17306e-06 8.92279e-06 3.39004e-05 0.000118504 0.000378591 0.00109678 0.00285634 0.00663136 0.0136454 0.0248863 0.0405593 0.0600142 0.0822104 0.106207 0.131343 0.157209 0.183569 0.210271 0.237215 0.264347 0.291637 0.319067 0.346635 0.374349 0.402229 0.430309 0.458352 0.485524 0.51279 0.539274 0.565807 0.591911 0.61789 0.643628 0.668934 0.694274 0.719035 0.743562 0.767971 0.791352 0.814635 0.837181 0.857785 0.878264 0.89501 0.90859 0.919985 0.925834 0.929474 0.931745 0.931918 0.931844 0.931752 0.931598 0.931337 0.930967 0.930534 0.930106 0.929747 0.929443 0.929172 0.928943 0.928762 0.928624 0.928514 0.928414 0.928302 0.928147 0.927896 0.927471 0.926785 0.926402 0.929241 0.931253 0.927954 0.927138 0.927235 0.927463 0.927574 0.927675 0.927712 0.927652 0.927552 0.927557 0.927645 0.927639 0.927597 0.927472 0.927188 0.926647 0.92558 0.923421 0.919096 0.910606 0.894446 0.865088 0.815198 0.737589 0.629317 0.496692 0.356275 0.22867 0.12915 0.0637361 0.0279708 0.0113449 0.00441325 0.00168383 0.00063665 0.000239517 8.97846e-05 3.35447e-05 1.24894e-05 4.63256e-06 1.71116e-06 6.29178e-07 2.30187e-07 8.37579e-08 3.02986e-08 1.08918e-08 3.88914e-09 1.37888e-09 4.84982e-10 1.69085e-10 5.87268e-11 1.99231e-11 6.53823e-12 2.10911e-12 1.16547e-13 -1.10743e-13 1.53425e-13 -2.27569e-13 -2.74181e-13 -2.30855e-13 7.5794e-13 -6.66272e-13 -9.96152e-14 4.17751e-13 2.41308e-13 6.89557e-14 7.01565e-13 -1.38386e-13 2.87173e-14 2.46348e-13 -1.71334e-13 0 0 -6.37658e-15 -1.08314e-14 -4.95803e-14 -1.47915e-14 -2.06813e-15 -3.84022e-14 -4.57452e-14 -3.8851e-14 1.08545e-14 -5.32074e-14 8.0758e-14 7.64622e-14 -1.22452e-13 7.97488e-14 -3.66342e-14 -8.4878e-14 9.70698e-14 -5.08314e-14 9.01719e-15 -2.82842e-14 5.22473e-14 -9.32372e-14 -9.65068e-14 -4.92567e-14 -1.24456e-13 -6.00597e-14 -1.68468e-13 -3.92754e-14 -2.86085e-13 -3.79018e-14 -2.38276e-14 -3.5415e-13 1.46157e-13 -1.37453e-13 -2.19635e-13 4.86343e-14 -4.83968e-14 2.74937e-14 -1.86253e-13 -2.17643e-13 -3.34248e-14 -2.52617e-14 -2.06436e-13 5.98069e-14 -8.84081e-15 2.84342e-13 2.45641e-12 1.72701e-11 1.11595e-10 6.72147e-10 3.83175e-09 2.05926e-08 1.03998e-07 4.92026e-07 2.17306e-06 8.92279e-06 3.39004e-05 0.000118504 0.000378591 0.00109678 0.00285634 0.00663136 0.0136454 0.0248863 0.0405593 0.0600142 0.0822104 0.106207 0.131343 0.157209 0.183569 0.210271 0.237215 0.264347 0.291637 0.319067 0.346635 0.374349 0.402229 0.430309 0.458352 0.485524 0.51279 0.539274 0.565807 0.591911 0.61789 0.643628 0.668934 0.694274 0.719035 0.743562 0.767971 0.791352 0.814635 0.837181 0.857785 0.878264 0.89501 0.90859 0.919985 0.925834 0.929474 0.931745 0.931918 0.931844 0.931752 0.931598 0.931337 0.930967 0.930534 0.930106 0.929747 0.929443 0.929172 0.928943 0.928762 0.928624 0.928514 0.928414 0.928302 0.928147 0.927896 0.927471 0.926785 0.926402 0.929241 0.931253 0.927954 0.927138 0.927235 0.927463 0.927574 0.927675 0.927712 0.927652 0.927552 0.927557 0.927645 0.927639 0.927597 0.927472 0.927188 0.926647 0.92558 0.923421 0.919096 0.910606 0.894446 0.865088 0.815198 0.737589 0.629317 0.496692 0.356275 0.22867 0.12915 0.0637361 0.0279708 0.0113449 0.00441325 0.00168383 0.00063665 0.000239517 8.97846e-05 3.35447e-05 1.24894e-05 4.63256e-06 1.71116e-06 6.29178e-07 2.30187e-07 8.37577e-08 3.02989e-08 1.08917e-08 3.88942e-09 1.37853e-09 4.85245e-10 1.69307e-10 5.81518e-11 1.98901e-11 6.57091e-12 2.02419e-12 3.58573e-13 1.00776e-13 -4.21377e-14 -3.97351e-14 -1.22285e-13 -3.34748e-13 -1.97791e-14 -1.35951e-13 -4.6127e-13 2.7069e-13 1.11499e-12 -2.07486e-14 2.1832e-13 1.65286e-13 2.79826e-13 -1.27535e-12 -2.67844e-13 0 0 -3.86096e-15 -4.71204e-14 -1.93773e-14 -1.59016e-14 -9.90601e-14 -1.71187e-14 2.16179e-14 -8.24762e-14 1.30754e-13 -1.52969e-14 -1.35963e-13 -4.34736e-14 4.1242e-14 -1.42936e-13 8.74958e-14 2.28029e-13 2.99365e-14 1.8192e-13 -1.22114e-13 -1.36735e-13 -2.67205e-14 -1.17038e-13 -1.06696e-13 -4.17146e-15 -2.69871e-14 -3.08576e-13 -4.58943e-15 -3.51275e-13 9.43687e-14 4.47172e-14 -4.18918e-13 2.18628e-13 -2.57254e-13 5.2493e-15 -2.817e-13 3.91887e-13 2.22829e-13 -2.30389e-13 -1.31052e-13 7.28849e-14 -4.88043e-13 -7.55233e-14 6.36058e-15 -1.44612e-13 -2.54424e-14 6.74199e-14 2.15002e-12 1.73491e-11 1.11368e-10 6.72231e-10 3.83178e-09 2.05928e-08 1.03998e-07 4.92026e-07 2.17306e-06 8.92279e-06 3.39004e-05 0.000118504 0.000378591 0.00109678 0.00285634 0.00663136 0.0136454 0.0248863 0.0405593 0.0600142 0.0822104 0.106207 0.131343 0.157209 0.183569 0.210271 0.237215 0.264347 0.291637 0.319067 0.346635 0.374349 0.402229 0.430309 0.458352 0.485524 0.51279 0.539274 0.565807 0.591911 0.61789 0.643628 0.668934 0.694274 0.719035 0.743562 0.767971 0.791352 0.814635 0.837181 0.857785 0.878264 0.89501 0.90859 0.919985 0.925834 0.929474 0.931745 0.931918 0.931844 0.931752 0.931598 0.931337 0.930967 0.930534 0.930106 0.929747 0.929443 0.929172 0.928943 0.928762 0.928624 0.928514 0.928414 0.928302 0.928147 0.927896 0.927471 0.926785 0.926402 0.929241 0.931253 0.927954 0.927138 0.927235 0.927463 0.927574 0.927675 0.927712 0.927652 0.927552 0.927557 0.927645 0.927639 0.927597 0.927472 0.927188 0.926647 0.92558 0.923421 0.919096 0.910606 0.894446 0.865088 0.815198 0.737589 0.629317 0.496692 0.356275 0.22867 0.12915 0.0637361 0.0279708 0.0113449 0.00441325 0.00168383 0.00063665 0.000239517 8.97846e-05 3.35447e-05 1.24894e-05 4.63256e-06 1.71116e-06 6.29178e-07 2.30186e-07 8.37581e-08 3.02993e-08 1.08913e-08 3.88932e-09 1.37847e-09 4.85647e-10 1.69038e-10 5.81879e-11 1.96846e-11 5.94999e-12 2.3289e-12 1.41772e-12 -9.6989e-14 -8.30656e-13 -6.81871e-14 1.87621e-13 -2.60089e-13 -6.61075e-13 2.30017e-13 1.25243e-13 -4.72238e-13 1.28159e-13 1.94158e-12 4.95615e-14 1.81981e-13 -5.589e-13 2.42465e-13 -4.33481e-13 0
				</DataArray>
				<DataArray Name="VitesseY" type="Float32" format="ascii">