<?xml version="1.0"?>
<VTKFile type="PolyData">
	<PolyData>
		<Piece NumberOfPoints="1206" NumberOfPolys="1000">
			<Points>
				<DataArray type="Float32" NumberOfComponents="3" format="ascii">
 0 0 0 0.005 0 0 0.01 0 0 0.015 0 0 0.02 0 0 0.025 0 0 0.03 0 0 0.035 0 0 0.04 0 0 0.045 0 0 0.05 0 0 0.055 0 0 0.06 0 0 0.065 0 0 0.07 0 0 0.075 0 0 0.08 0 0 0.085 0 0 0.09 0 0 0.095 0 0 0.1 0 0 0.105 0 0 0.11 0 0 0.115 0 0 0.12 0 0 0.125 0 0 0.13 0 0 0.135 0 0 0.14 0 0 0.145 0 0 0.15 0 0 0.155 0 0 0.16 0 0 0.165 0 0 0.17 0 0 0.175 0 0 0.18 0 0 0.185 0 0 0.19 0 0 0.195 0 0 0.2 0 0 0.205 0 0 0.21 0 0 0.215 0 0 0.22 0 0 0.225 0 0 0.23 0 0 0.235 0 0 0.24 0 0 0.245 0 0 0.25 0 0 0.255 0 0 0.26 0 0 0.265 0 0 0.27 0 0 0.275 0 0 0.28 0 0 0.285 0 0 0.29 0 0 0.295 0 0 0.3 0 0 0.305 0 0 0.31 0 0 0.315 0 0 0.32 0 0 0.325 0 0 0.33 0 0 0.335 0 0 0.34 0 0 0.345 0 0 0.35 0 0 0.355 0 0 0.36 0 0 0.365 0 0 0.37 0 0 0.375 0 0 0.38 0 0 0.385 0 0 0.39 0 0 0.395 0 0 0.4 0 0 0.405 0 0 0.41 0 0 0.415 0 0 0.42 0 0 0.425 0 0 0.43 0 0 0.435 0 0 0.44 0 0 0.445 0 0 0.45 0 0 0.455 0 0 0.46 0 0 0.465 0 0 0.47 0 0 0.475 0 0 0.48 0 0 0.485 0 0 0.49 0 0 0.495 0 0 0.5 0 0 0.505 0 0 0.51 0 0 0.515 0 0 0.52 0 0 0.525 0 0 0.53 0 0 0.535 0 0 0.54 0 0 0.545 0 0 0.55 0 0 0.555 0 0 0.56 0 0 0.565 0 0 0.57 0 0 0.575 0 0 0.58 0 0 0.585 0 0 0.59 0 0 0.595 0 0 0.6 0 0 0.605 0 0 0.61 0 0 0.615 0 0 0.62 0 0 0.625 0 0 0.63 0 0 0.635 0 0 0.64 0 0 0.645 0 0 0.65 0 0 0.655 0 0 0.66 0 0 0.665 0 0 0.67 0 0 0.675 0 0 0.68 0 0 0.685 0 0 0.69 0 0 0.695 0 0 0.7 0 0 0.705 0 0 0.71 0 0 0.715 0 0 0.72 0 0 0.725 0 0 0.73 0 0 0.735 0 0 0.74 0 0 0.745 0 0 0.75 0 0 0.755 0 0 0.76 0 0 0.765 0 0 0.77 0 0 0.775 0 0 0.78 0 0 0.785 0 0 0.79 0 0 0.795 0 0 0.8 0 0 0.805 0 0 0.81 0 0 0.815 0 0 0.82 0 0 0.825 0 0 0.83 0 0 0.835 0 0 0.84 0 0 0.845 0 0 0.85 0 0 0.855 0 0 0.86 0 0 0.865 0 0 0.87 0 0 0.875 0 0 0.88 0 0 0.885 0 0 0.89 0 0 0.895 0 0 0.9 0 0 0.905 0 0 0.91 0 0 0.915 0 0 0.92 0 0 0.925 0 0 0.93 0 0 0.935 0 0 0.94 0 0 0.945 0 0 0.95 0 0 0.955 0 0 0.96 0 0 0.965 0 0 0.97 0 0 0.975 0 0 0.98 0 0 0.985 0 0 0.99 0 0 0.995 0 0 1 0 0 0 0.02 0 0.005 0.02 0 0.01 0.02 0 0.015 0.02 0 0.02 0.02 0 0.025 0.02 0 0.03 0.02 0 0.035 0.02 0 0.04 0.02 0 0.045 0.02 0 0.05 0.02 0 0.055 0.02 0 0.06 0.02 0 0.065 0.02 0 0.07 0.02 0 0.075 0.02 0 0.08 0.02 0 0.085 0.02 0 0.09 0.02 0 0.095 0.02 0 0.1 0.02 0 0.105 0.02 0 0.11 0.02 0 0.115 0.02 0 0.12 0.02 0 0.125 0.02 0 0.13 0.02 0 0.135 0.02 0 0.14 0.02 0 0.145 0.02 0 0.15 0.02 0 0.155 0.02 0 0.16 0.02 0 0.165 0.02 0 0.17 0.02 0 0.175 0.02 0 0.18 0.02 0 0.185 0.02 0 0.19 0.02 0 0.195 0.02 0 0.2 0.02 0 0.205 0.02 0 0.21 0.02 0 0.215 0.02 0 0.22 0.02 0 0.225 0.02 0 0.23 0.02 0 0.235 0.02 0 0.24 0.02 0 0.245 0.02 0 0.25 0.02 0 0.255 0.02 0 0.26 0.02 0 0.265 0.02 0 0.27 0.02 0 0.275 0.02 0 0.28 0.02 0 0.285 0.02 0 0.29 0.02 0 0.295 0.02 0 0.3 0.02 0 0.305 0.02 0 0.31 0.02 0 0.315 0.02 0 0.32 0.02 0 0.325 0.02 0 0.33 0.02 0 0.335 0.02 0 0.34 0.02 0 0.345 0.02 0 0.35 0.02 0 0.355 0.02 0 0.36 0.02 0 0.365 0.02 0 0.37 0.02 0 0.375 0.02 0 0.38 0.02 0 0.385 0.02 0 0.39 0.02 0 0.395 0.02 0 0.4 0.02 0 0.405 0.02 0 0.41 0.02 0 0.415 0.02 0 0.42 0.02 0 0.425 0.02 0 0.43 0.02 0 0.435 0.02 0 0.44 0.02 0 0.445 0.02 0 0.45 0.02 0 0.455 0.02 0 0.46 0.02 0 0.465 0.02 0 0.47 0.02 0 0.475 0.02 0 0.48 0.02 0 0.485 0.02 0 0.49 0.02 0 0.495 0.02 0 0.5 0.02 0 0.505 0.02 0 0.51 0.02 0 0.515 0.02 0 0.52 0.02 0 0.525 0.02 0 0.53 0.02 0 0.535 0.02 0 0.54 0.02 0 0.545 0.02 0 0.55 0.02 0 0.555 0.02 0 0.56 0.02 0 0.565 0.02 0 0.57 0.02 0 0.575 0.02 0 0.58 0.02 0 0.585 0.02 0 0.59 0.02 0 0.595 0.02 0 0.6 0.02 0 0.605 0.02 0 0.61 0.02 0 0.615 0.02 0 0.62 0.02 0 0.625 0.02 0 0.63 0.02 0 0.635 0.02 0 0.64 0.02 0 0.645 0.02 0 0.65 0.02 0 0.655 0.02 0 0.66 0.02 0 0.665 0.02 0 0.67 0.02 0 0.675 0.02 0 0.68 0.02 0 0.685 0.02 0 0.69 0.02 0 0.695 0.02 0 0.7 0.02 0 0.705 0.02 0 0.71 0.02 0 0.715 0.02 0 0.72 0.02 0 0.725 0.02 0 0.73 0.02 0 0.735 0.02 0 0.74 0.02 0 0.745 0.02 0 0.75 0.02 0 0.755 0.02 0 0.76 0.02 0 0.765 0.02 0 0.77 0.02 0 0.775 0.02 0 0.78 0.02 0 0.785 0.02 0 0.79 0.02 0 0.795 0.02 0 0.8 0.02 0 0.805 0.02 0 0.81 0.02 0 0.815 0.02 0 0.82 0.02 0 0.825 0.02 0 0.83 0.02 0 0.835 0.02 0 0.84 0.02 0 0.845 0.02 0 0.85 0.02 0 0.855 0.02 0 0.86 0.02 0 0.865 0.02 0 0.87 0.02 0 0.875 0.02 0 0.88 0.02 0 0.885 0.02 0 0.89 0.02 0 0.895 0.02 0 0.9 0.02 0 0.905 0.02 0 0.91 0.02 0 0.915 0.02 0 0.92 0.02 0 0.925 0.02 0 0.93 0.02 0 0.935 0.02 0 0.94 0.02 0 0.945 0.02 0 0.95 0.02 0 0.955 0.02 0 0.96 0.02 0 0.965 0.02 0 0.97 0.02 0 0.975 0.02 0 0.98 0.02 0 0.985 0.02 0 0.99 0.02 0 0.995 0.02 0 1 0.02 0 0 0.04 0 0.005 0.04 0 0.01 0.04 0 0.015 0.04 0 0.02 0.04 0 0.025 0.04 0 0.03 0.04 0 0.035 0.04 0 0.04 0.04 0 0.045 0.04 0 0.05 0.04 0 0.055 0.04 0 0.06 0.04 0 0.065 0.04 0 0.07 0.04 0 0.075 0.04 0 0.08 0.04 0 0.085 0.04 0 0.09 0.04 0 0.095 0.04 0 0.1 0.04 0 0.105 0.04 0 0.11 0.04 0 0.115 0.04 0 0.12 0.04 0 0.125 0.04 0 0.13 0.04 0 0.135 0.04 0 0.14 0.04 0 0.145 0.04 0 0.15 0.04 0 0.155 0.04 0 0.16 0.04 0 0.165 0.04 0 0.17 0.04 0 0.175 0.04 0 0.18 0.04 0 0.185 0.04 0 0.19 0.04 0 0.195 0.04 0 0.2 0.04 0 0.205 0.04 0 0.21 0.04 0 0.215 0.04 0 0.22 0.04 0 0.225 0.04 0 0.23 0.04 0 0.235 0.04 0 0.24 0.04 0 0.245 0.04 0 0.25 0.04 0 0.255 0.04 0 0.26 0.04 0 0.265 0.04 0 0.27 0.04 0 0.275 0.04 0 0.28 0.04 0 0.285 0.04 0 0.29 0.04 0 0.295 0.04 0 0.3 0.04 0 0.305 0.04 0 0.31 0.04 0 0.315 0.04 0 0.32 0.04 0 0.325 0.04 0 0.33 0.04 0 0.335 0.04 0 0.34 0.04 0 0.345 0.04 0 0.35 0.04 0 0.355 0.04 0 0.36 0.04 0 0.365 0.04 0 0.37 0.04 0 0.375 0.04 0 0.38 0.04 0 0.385 0.04 0 0.39 0.04 0 0.395 0.04 0 0.4 0.04 0 0.405 0.04 0 0.41 0.04 0 0.415 0.04 0 0.42 0.04 0 0.425 0.04 0 0.43 0.04 0 0.435 0.04 0 0.44 0.04 0 0.445 0.04 0 0.45 0.04 0 0.455 0.04 0 0.46 0.04 0 0.465 0.04 0 0.47 0.04 0 0.475 0.04 0 0.48 0.04 0 0.485 0.04 0 0.49 0.04 0 0.495 0.04 0 0.5 0.04 0 0.505 0.04 0 0.51 0.04 0 0.515 0.04 0 0.52 0.04 0 0.525 0.04 0 0.53 0.04 0 0.535 0.04 0 0.54 0.04 0 0.545 0.04 0 0.55 0.04 0 0.555 0.04 0 0.56 0.04 0 0.565 0.04 0 0.57 0.04 0 0.575 0.04 0 0.58 0.04 0 0.585 0.04 0 0.59 0.04 0 0.595 0.04 0 0.6 0.04 0 0.605 0.04 0 0.61 0.04 0 0.615 0.04 0 0.62 0.04 0 0.625 0.04 0 0.63 0.04 0 0.635 0.04 0 0.64 0.04 0 0.645 0.04 0 0.65 0.04 0 0.655 0.04 0 0.66 0.04 0 0.665 0.04 0 0.67 0.04 0 0.675 0.04 0 0.68 0.04 0 0.685 0.04 0 0.69 0.04 0 0.695 0.04 0 0.7 0.04 0 0.705 0.04 0 0.71 0.04 0 0.715 0.04 0 0.72 0.04 0 0.725 0.04 0 0.73 0.04 0 0.735 0.04 0 0.74 0.04 0 0.745 0.04 0 0.75 0.04 0 0.755 0.04 0 0.76 0.04 0 0.765 0.04 0 0.77 0.04 0 0.775 0.04 0 0.78 0.04 0 0.785 0.04 0 0.79 0.04 0 0.795 0.04 0 0.8 0.04 0 0.805 0.04 0 0.81 0.04 0 0.815 0.04 0 0.82 0.04 0 0.825 0.04 0 0.83 0.04 0 0.835 0.04 0 0.84 0.04 0 0.845 0.04 0 0.85 0.04 0 0.855 0.04 0 0.86 0.04 0 0.865 0.04 0 0.87 0.04 0 0.875 0.04 0 0.88 0.04 0 0.885 0.04 0 0.89 0.04 0 0.895 0.04 0 0.9 0.04 0 0.905 0.04 0 0.91 0.04 0 0.915 0.04 0 0.92 0.04 0 0.925 0.04 0 0.93 0.04 0 0.935 0.04 0 0.94 0.04 0 0.945 0.04 0 0.95 0.04 0 0.955 0.04 0 0.96 0.04 0 0.965 0.04 0 0.97 0.04 0 0.975 0.04 0 0.98 0.04 0 0.985 0.04 0 0.99 0.04 0 0.995 0.04 0 1 0.04 0 0 0.06 0 0.005 0.06 0 0.01 0.06 0 0.015 0.06 0 0.02 0.06 0 0.025 0.06 0 0.03 0.06 0 0.035 0.06 0 0.04 0.06 0 0.045 0.06 0 0.05 0.06 0 0.055 0.06 0 0.06 0.06 0 0.065 0.06 0 0.07 0.06 0 0.075 0.06 0 0.08 0.06 0 0.085 0.06 0 0.09 0.06 0 0.095 0.06 0 0.1 0.06 0 0.105 0.06 0 0.11 0.06 0 0.115 0.06 0 0.12 0.06 0 0.125 0.06 0 0.13 0.06 0 0.135 0.06 0 0.14 0.06 0 0.145 0.06 0 0.15 0.06 0 0.155 0.06 0 0.16 0.06 0 0.165 0.06 0 0.17 0.06 0 0.175 0.06 0 0.18 0.06 0 0.185 0.06 0 0.19 0.06 0 0.195 0.06 0 0.2 0.06 0 0.205 0.06 0 0.21 0.06 0 0.215 0.06 0 0.22 0.06 0 0.225 0.06 0 0.23 0.06 0 0.235 0.06 0 0.24 0.06 0 0.245 0.06 0 0.25 0.06 0 0.255 0.06 0 0.26 0.06 0 0.265 0.06 0 0.27 0.06 0 0.275 0.06 0 0.28 0.06 0 0.285 0.06 0 0.29 0.06 0 0.295 0.06 0 0.3 0.06 0 0.305 0.06 0 0.31 0.06 0 0.315 0.06 0 0.32 0.06 0 0.325 0.06 0 0.33 0.06 0 0.335 0.06 0 0.34 0.06 0 0.345 0.06 0 0.35 0.06 0 0.355 0.06 0 0.36 0.06 0 0.365 0.06 0 0.37 0.06 0 0.375 0.06 0 0.38 0.06 0 0.385 0.06 0 0.39 0.06 0 0.395 0.06 0 0.4 0.06 0 0.405 0.06 0 0.41 0.06 0 0.415 0.06 0 0.42 0.06 0 0.425 0.06 0 0.43 0.06 0 0.435 0.06 0 0.44 0.06 0 0.445 0.06 0 0.45 0.06 0 0.455 0.06 0 0.46 0.06 0 0.465 0.06 0 0.47 0.06 0 0.475 0.06 0 0.48 0.06 0 0.485 0.06 0 0.49 0.06 0 0.495 0.06 0 0.5 0.06 0 0.505 0.06 0 0.51 0.06 0 0.515 0.06 0 0.52 0.06 0 0.525 0.06 0 0.53 0.06 0 0.535 0.06 0 0.54 0.06 0 0.545 0.06 0 0.55 0.06 0 0.555 0.06 0 0.56 0.06 0 0.565 0.06 0 0.57 0.06 0 0.575 0.06 0 0.58 0.06 0 0.585 0.06 0 0.59 0.06 0 0.595 0.06 0 0.6 0.06 0 0.605 0.06 0 0.61 0.06 0 0.615 0.06 0 0.62 0.06 0 0.625 0.06 0 0.63 0.06 0 0.635 0.06 0 0.64 0.06 0 0.645 0.06 0 0.65 0.06 0 0.655 0.06 0 0.66 0.06 0 0.665 0.06 0 0.67 0.06 0 0.675 0.06 0 0.68 0.06 0 0.685 0.06 0 0.69 0.06 0 0.695 0.06 0 0.7 0.06 0 0.705 0.06 0 0.71 0.06 0 0.715 0.06 0 0.72 0.06 0 0.725 0.06 0 0.73 0.06 0 0.735 0.06 0 0.74 0.06 0 0.745 0.06 0 0.75 0.06 0 0.755 0.06 0 0.76 0.06 0 0.765 0.06 0 0.77 0.06 0 0.775 0.06 0 0.78 0.06 0 0.785 0.06 0 0.79 0.06 0 0.795 0.06 0 0.8 0.06 0 0.805 0.06 0 0.81 0.06 0 0.815 0.06 0 0.82 0.06 0 0.825 0.06 0 0.83 0.06 0 0.835 0.06 0 0.84 0.06 0 0.845 0.06 0 0.85 0.06 0 0.855 0.06 0 0.86 0.06 0 0.865 0.06 0 0.87 0.06 0 0.875 0.06 0 0.88 0.06 0 0.885 0.06 0 0.89 0.06 0 0.895 0.06 0 0.9 0.06 0 0.905 0.06 0 0.91 0.06 0 0.915 0.06 0 0.92 0.06 0 0.925 0.06 0 0.93 0.06 0 0.935 0.06 0 0.94 0.06 0 0.945 0.06 0 0.95 0.06 0 0.955 0.06 0 0.96 0.06 0 0.965 0.06 0 0.97 0.06 0 0.975 0.06 0 0.98 0.06 0 0.985 0.06 0 0.99 0.06 0 0.995 0.06 0 1 0.06 0 0 0.08 0 0.005 0.08 0 0.01 0.08 0 0.015 0.08 0 0.02 0.08 0 0.025 0.08 0 0.03 0.08 0 0.035 0.08 0 0.04 0.08 0 0.045 0.08 0 0.05 0.08 0 0.055 0.08 0 0.06 0.08 0 0.065 0.08 0 0.07 0.08 0 0.075 0.08 0 0.08 0.08 0 0.085 0.08 0 0.09 0.08 0 0.095 0.08 0 0.1 0.08 0 0.105 0.08 0 0.11 0.08 0 0.115 0.08 0 0.12 0.08 0 0.125 0.08 0 0.13 0.08 0 0.135 0.08 0 0.14 0.08 0 0.145 0.08 0 0.15 0.08 0 0.155 0.08 0 0.16 0.08 0 0.165 0.08 0
[...]
			<PointData Scalars="VitesseX">
				<DataArray Name="VitesseX" type="Float32" format="ascii">
 0 -1.23198e-14 -1.84338e-14 2.26816e-14 -7.03028e-14 -6.37824e-14 2.27854e-14 -3.92452e-14 -1.03933e-13 -1.80832e-14 -1.172e-13 -3.2175e-14 -7.88358e-15 -5.39014e-14 -1.03503e-13 -7.99389e-14 -2.64155e-13 -2.83701e-14 -6.85612e-14 -9.14076e-14 -6.44821e-14 8.90957e-14 -1.76601e-13 3.42962e-13 9.86104e-15 -1.91533e-14 -3.67285e-14 -1.82771e-13 3.21404e-14 -4.44246e-14 -1.79405e-13 3.70967e-14 -2.54267e-13 -2.68746e-13 2.06474e-13 -2.85757e-13 -9.58164e-14 7.1209e-14 -5.97423e-14 -1.0478e-13 -3.18506e-13 -6.40284e-14 -2.27931e-14 -1.34604e-13 -1.40488e-13 -4.62879e-13 -5.04213e-13 -1.94329e-13 5.18139e-13 -1.06009e-13 -5.4834e-13 4.09224e-13 3.77801e-13 -9.4942e-13 5.55555e-13 1.58264e-13 -3.72941e-13 5.27931e-14 -1.16315e-14 -2.08163e-13 2.28817e-13 -1.23359e-13 -3.09433e-13 -1.29041e-13 1.14094e-13 -4.29321e-14 -3.26912e-13 1.48794e-13 -6.07807e-13 5.32203e-13 5.60796e-12 6.04735e-11 6.15148e-10 5.70891e-09 4.82822e-08 3.69807e-07 2.54709e-06 1.5645e-05 8.48293e-05 0.000400926 0.00162589 0.00555298 0.0156777 0.0362044 0.0689747 0.111914 0.16145 0.214929 0.27088 0.328536 0.387594 0.448235 0.506932 0.560422 0.613243 0.664191 0.711088 0.759005 0.80106 0.838764 0.874876 0.89873 0.915749 0.929428 0.932669 0.933213 0.933791 0.933665 0.933077 0.931852 0.930071 0.927779 0.930044 0.933089 0.928628 0.927716 0.928256 0.928282 0.926837 0.922573 0.914735 0.899416 0.869423 0.816062 0.731692 0.614358 0.473449 0.328466 0.201615 0.107311 0.0492711 0.0199973 0.00749001 0.00268098 0.00093377 0.000318687 0.000106798 3.51501e-05 1.13576e-05 3.601e-06 1.11976e-06 3.41364e-07 1.01992e-07 2.98588e-08 8.56393e-09 2.4058e-09 6.61676e-10 1.78221e-10 4.71198e-11 1.29935e-11 1.98032e-12 7.9235e-13 -3.21667e-13 7.72602e-13 1.33922e-13 -3.1411e-13 -1.08217e-12 -6.33618e-14 5.85652e-13 5.93617e-13 -7.59806e-13 -1.1285e-12 -3.26368e-13 1.11357e-12 -4.73963e-13 -3.83212e-13 -2.82962e-13 3.2466e-13 4.0136e-13 -5.93734e-13 2.2522e-13 7.62914e-13 -3.43032e-13 4.8328e-14 -9.59974e-13 7.61291e-13 7.92244e-13 -1.21559e-12 -6.82035e-13 -5.69719e-13 7.35363e-13 -1.43321e-13 -5.19991e-13 2.37477e-13 -4.39435e-13 1.06596e-12 -1.1749e-15 -1.14346e-12 -5.24524e-13 -1.14233e-12 1.13268e-12 -8.33116e-13 -9.58276e-13 -5.66106e-13 4.42691e-13 3.47508e-13 -1.37101e-12 -4.60361e-13 1.98875e-14 1.50335e-12 0 0 -1.01139e-15 -1.0413e-14 -4.38682e-14 1.19813e-15 -3.45945e-14 -9.57791e-14 -5.04533e-14 -2.90955e-15 -3.20096e-14 1.4588e-14 -1.02125e-13 -7.42935e-14 -9.05421e-14 -6.68353e-14 -1.22862e-13 6.31883e-14 -1.84029e-13 -3.38245e-14 -9.10091e-14 -1.51808e-13 -1.04723e-13 1.82669e-13 -1.56007e-13 1.17233e-13 3.58027e-14 -1.49503e-13 1.17964e-14 -1.79354e-13 -1.17522e-14 5.68844e-14 -1.76509e-13 -1.15841e-13 -8.18585e-14 -3.41758e-13 1.46698e-14 5.86435e-14 -2.5823e-14 -1.30355e-13 -1.3832e-13 -1.14742e-13 -3.01583e-13 4.89433e-14 -2.92347e-13 -3.12535e-13 1.3167e-14 2.54369e-14 -2.3169e-13 -2.63673e-13 2.55885e-13 3.5976e-13 -1.73497e-13 -1.73295e-13 7.55319e-13 -5.62562e-13 -2.67338e-13 1.26597e-13 -4.96893e-13 -1.25303e-13 1.68757e-13 -2.66143e-13 -7.08637e-14 6.19549e-14 -3.77379e-14 -3.1437e-13 -1.33973e-13 1.26872e-13 -3.33751e-13 4.74644e-13 3.08124e-13 5.33682e-12 6.10976e-11 6.15439e-10 5.70868e-09 4.82828e-08 3.69806e-07 2.54709e-06 1.5645e-05 8.48293e-05 0.000400926 0.00162589 0.00555298 0.0156777 0.0362044 0.0689747 0.111914 0.16145 0.214929 0.27088 0.328536 0.387594 0.448235 0.506932 0.560422 0.613243 0.664191 0.711088 0.759005 0.80106 0.838764 0.874876 0.89873 0.915749 0.929428 0.932669 0.933213 0.933791 0.933665 0.933077 0.931852 0.930071 0.927779 0.930044 0.933089 0.928628 0.927716 0.928256 0.928282 0.926837 0.922573 0.914735 0.899416 0.869423 0.816062 0.731692 0.614358 0.473449 0.328466 0.201615 0.107311 0.0492711 0.0199973 0.00749001 0.00268098 0.00093377 0.000318687 0.000106798 3.51501e-05 1.13576e-05 3.601e-06 1.11976e-06 3.41364e-07 1.01992e-07 2.98584e-08 8.56334e-09 2.40615e-09 6.62411e-10 1.78593e-10 4.68796e-11 1.12382e-11 3.77537e-12 5.43473e-13 5.817e-14 -5.44215e-13 -4.30065e-13 1.34567e-13 3.14827e-13 1.85615e-13 -7.28276e-13 -8.30741e-13 2.57463e-14 3.20136e-13 -1.26614e-13 -9.5905e-13 -2.6562e-13 -1.61112e-13 3.84445e-13 3.12425e-13 1.05279e-13 2.54524e-14 -2.07644e-13 -7.26721e-14 7.32899e-13 -2.35018e-13 1.26788e-13 -5.66634e-13 -9.28804e-13 3.1776e-13 -1.00983e-14 8.96651e-14 -7.18994e-13 -8.50526e-14 2.55632e-13 -4.823e-13 5.9846e-13 -6.07756e-13 -4.44573e-14 3.19041e-13 -1.47249e-13 2.1898e-13 -1.36514e-12 -9.26508e-14 2.37766e-13 -4.57661e-13 -7.63871e-13 -7.31262e-13 9.76723e-13 5.02412e-13 -7.50795e-13 -1.18916e-12 0 0 -2.66306e-14 -3.69824e-14 -1.95766e-14 -5.92273e-14 -2.55065e-14 -1.13902e-14 -1.1493e-13 -4.56812e-14 5.93192e-15 -7.21433e-14 8.85647e-14 -4.29487e-14 -3.26668e-14 -1.72894e-13 5.74018e-14 -1.16036e-13 -1.21067e-13 -6.12969e-14 -1.37783e-13 -5.63566e-14 -1.23404e-13 -1.57761e-13 7.93658e-14 -2.85047e-14 -2.97931e-14 1.9927e-14 -5.02035e-14 -1.29891e-13 2.22205e-14 -6.45591e-14 -1.4547e-13 -3.02573e-14 -1.27137e-13 -1.43166e-13 -2.03548e-13 1.07111e-13 -1.05983e-13 -9.14699e-14 -1.89743e-13 -1.57344e-13 1.12726e-14 -2.19277e-13 9.20467e-14 -5.32937e-14 -1.10808e-13 -3.03578e-13 -1.54211e-13 2.29134e-13 1.83738e-13 -5.63127e-14 3.41605e-13 1.13934e-13 -2.75106e-13 -1.22906e-13 -1.38476e-13 -4.6137e-13 1.08618e-13 1.46396e-13 -4.76982e-13 -2.81555e-13 -1.4079e-13 -4.02455e-14 -1.39349e-13 3.58028e-14 -3.09703e-14 1.4139e-13 2.97829e-13 -1.33444e-13 5.08163e-13 5.92262e-12 6.07405e-11 6.15416e-10 5.70917e-09 4.82826e-08 3.69806e-07 2.54709e-06 1.5645e-05 8.48293e-05 0.000400926 0.00162589 0.00555298 0.0156777 0.0362044 0.0689747 0.111914 0.16145 0.214929 0.27088 0.328536 0.387594 0.448235 0.506932 0.560422 0.613243 0.664191 0.711088 0.759005 0.80106 0.838764 0.874876 0.89873 0.915749 0.929428 0.932669 0.933213 0.933791 0.933665 0.933077 0.931852 0.930071 0.927779 0.930044 0.933089 0.928628 0.927716 0.928256 0.928282 0.926837 0.922573 0.914735 0.899416 0.869423 0.816062 0.731692 0.614358 0.473449 0.328466 0.201615 0.107311 0.0492711 0.0199973 0.00749001 0.00268098 0.00093377 0.000318687 0.000106798 3.51501e-05 1.13576e-05 3.601e-06 1.11976e-06 3.41364e-07 1.01992e-07 2.98587e-08 8.56362e-09 2.40617e-09 6.62261e-10 1.78469e-10 4.72162e-11 1.23138e-11 2.69294e-12 5.52283e-13 -3.15833e-13 -3.77679e-13 -4.01733e-13 -2.42192e-13 3.30359e-13 -2.3701e-13 -1.78007e-13 -3.93659e-13 -9.85408e-13 -2.07789e-13 -5.01058e-13 3.58165e-14 -3.46719e-13 -1.4843e-13 -2.32209e-13 2.56815e-13 5.93606e-15 2.46116e-13 2.02215e-13 3.57323e-13 -2.74926e-13 8.06568e-14 -2.8869e-13 -4.63385e-13 -4.05032e-13 -3.8598e-14 4.54341e-14 -3.9302e-13 1.55053e-13 2.49905e-13 -2.87909e-13 -3.20269e-13 2.40262e-13 3.19101e-13 -9.88076e-14 2.34404e-13 1.2058e-13 -1.17534e-13 9.22572e-14 -7.2521e-13 -5.89133e-13 -4.62228e-13 3.95207e-13 -2.4448e-13 3.15553e-13 4.41971e-13 -7.57604e-14 -2.10124e-13 0 0 -2.04463e-14 -2.30023e-14 -2.88396e-14 -7.78829e-14 -3.58683e-14 1.58071e-15 5.00065e-14 -4.54236e-14 6.92148e-15 -4.61496e-14 -2.7114e-14 -2.85421e-14 -4.00435e-14 -1.11753e-13 -3.07695e-14 -2.03815e-13 -8.77561e-14 -1.74185e-13 -1.23977e-13 -1.06245e-13 8.22836e-14 -1.52423e-13 -6.06731e-14 -2.23216e-14 -1.96188e-14 -5.65017e-14 -8.52418e-14 4.12434e-14 7.30632e-14 -1.74603e-13 2.18847e-14 -1.56999e-14 -6.18367e-14 4.63374e-14 -2.5607e-14 -1.77979e-13 -7.42852e-14 -5.02844e-14 -7.11719e-14 -2.07828e-13 1.96423e-16 -7.74441e-14 8.82361e-14 8.62521e-14 -8.77751e-14 -5.70119e-13 -2.25192e-13 2.0498e-13 -4.44607e-14 -2.30248e-13 1.30266e-13 -5.56095e-14 -3.88039e-13 3.42331e-13 -1.62202e-13 -2.1741e-13 1.23719e-13 -2.35192e-13 -3.49574e-13 4.39766e-14 1.87135e-14 -1.47588e-13 -8.9934e-14 1.06096e-13 6.29917e-14 -9.59082e-14 1.69016e-13 -1.08077e-13 8.35569e-13 5.84436e-12 6.07363e-11 6.1523e-10 5.70884e-09 4.82827e-08 3.69807e-07 2.54709e-06 1.5645e-05 8.48293e-05 0.000400926 0.00162589 0.00555298 0.0156777 0.0362044 0.0689747 0.111914 0.16145 0.214929 0.27088 0.328536 0.387594 0.448235 0.506932 0.560422 0.613243 0.664191 0.711088 0.759005 0.80106 0.838764 0.874876 0.89873 0.915749 0.929428 0.932669 0.933213 0.933791 0.933665 0.933077 0.931852 0.930071 0.927779 0.930044 0.933089 0.928628 0.927716 0.928256 0.928282 0.926837 0.922573 0.914735 0.899416 0.869423 0.816062 0.731692 0.614358 0.473449 0.328466 0.201615 0.107311 0.0492711 0.0199973 0.00749001 0.00268098 0.00093377 0.000318687 0.000106798 3.51501e-05 1.13576e-05 3.601e-06 1.11976e-06 3.41364e-07 1.01992e-07 2.98588e-08 8.56395e-09 2.40593e-09 6.61918e-10 1.78572e-10 4.71262e-11 1.23874e-11 2.42848e-12 4.49001e-13 -4.92404e-14 -1.05375e-13 -3.02411e-13 -2.57945e-13 -3.5156e-13 -3.87468e-13 3.11914e-13 3.13644e-13 -6.96714e-13 -7.98524e-13 -3.17745e-13 -2.52828e-13 -2.33307e-15 -7.45233e-14 -7.00157e-13 1.50536e-13 2.20405e-13 6.52889e-13 -4.02178e-14 3.28168e-14 -8.1498e-13 -2.45223e-13 -4.66107e-13 -3.99418e-14 1.62249e-13 -2.67713e-13 1.91365e-13 -7.12353e-13 -7.41183e-15 4.7241e-13 5.43861e-14 -1.49164e-13 -1.23426e-13 2.91325e-13 3.9157e-13 9.82415e-14 8.88812e-14 -7.30011e-13 -3.03317e-13 -6.13366e-13 2.61425e-13 -3.87166e-13 -5.91879e-13 -8.36263e-14 -1.42972e-13 -2.43182e-13 3.18195e-13 1.12333e-12 0 0 1.84923e-15 -3.56991e-15 -4.65544e-14 1.41646e-14 -3.64801e-14 -5.3348e-14 9.88753e-14 4.29877e-14 3.2561e-15 4.55825e-14 -1.69165e-13 -6.03192e-14 -9.29495e-14 -8.80136e-14 -1.96271e-13 -3.0005e-14 -2.35977e-13 -1.34991e-13 -6.29876e-14 -1.86329e-13 -3.49478e-14 1.46966e-13 -3.29195e-13 6.64588e-14 3.26863e-14 -1.21047e-13 -2.48197e-14 -1.80666e-13 3.54451e-14 1.23464e-13 7.07387e-14 4.08963e-14 1.16128e-13 -1.66041e-13 1.79826e-13 -5.72907e-14 6.28292e-14 -2.1959e-13 -6.09755e-14 -2.25837e-13 -3.34625e-13 1.13464e-13 -3.22839e-13 -2.73413e-13 -6.48236e-15 -1.52871e-13 -1.95619e-13 -1.77591e-13 1.39712e-13 3.76339e-13 -5.96387e-13 -2.42584e-13 6.19821e-13 -3.5227e-13 -3.35599e-13 1.47352e-13 -5.97841e-13 -3.53666e-13 1.66947e-13 7.16393e-15 2.13279e-13 1.08083e-13 1.56841e-13 -1.26081e-13 -5.81319e-14 -9.46616e-14 -4.88644e-13 3.70373e-13 5.19995e-13 5.43472e-12 6.17531e-11 6.15424e-10 5.7085e-09 4.82828e-08 3.69807e-07 2.54709e-06 1.5645e-05 8.48293e-05 0.000400926 0.00162589 0.00555298 0.0156777 0.0362044 0.0689747 0.111914 0.16145 0.214929 0.27088 0.328536 0.387594 0.448235 0.506932 0.560422 0.613243 0.664191 0.711088 0.759005 0.80106 0.838764 0.874876 0.89873 0.915749 0.929428 0.932669 0.933213 0.933791 0.933665 0.933077 0.931852 0.930071 0.927779 0.930044 0.933089 0.928628 0.927716 0.928256 0.928282 0.926837 0.922573 0.914735 0.899416 0.869423 0.816062 0.731692 0.614358 0.473449 0.328466 0.201615 0.107311 0.0492711 0.0199973 0.00749001 0.00268098 0.00093377 0.000318687 0.000106798 3.51501e-05 1.13576e-05 3.601e-06 1.11976e-06 3.41364e-07 1.01993e-07 2.98585e-08 8.56357e-09 2.406e-09 6.62358e-10 1.78656e-10 4.64458e-11 1.11988e-11 3.5693e-12 8.42519e-13 3.77586e-14 -8.50423e-13 -7.09115e-13 6.03748e-13 -2.20613e-13 6.4295e-13 -4.49172e-13 1.82535e-14 5.92367e-13 -1.87596e-13 -2.17171e-13 -9.06308e-13 -1.59364e-13 -3.837e-13 -9.07438e-14 2.11442e-13 1.02919e-13 2.58743e-13 3.34264e-13 -8.23835e-13 3.84707e-14 -6.09678e-13 -1.43974e-13 -7.21061e-13 -1.03679e-12 3.14225e-13 2.28069e-13 1.04038e-14 -7.20382e-13 -1.33119e-13 7.06565e-13 3.09596e-13 6.37847e-13 -8.07801e-13 -9.31844e-14 2.26172e-13 -1.06314e-13 2.15216e-13 -1.56216e-12 -1.4347e-13 3.90147e-13 -4.45248e-13 -1.14785e-12 -3.48539e-13 1.0514e-12 1.04121e-13 1.36165e-14 -1.443e-13 0 0 -1.89673e-14 -3.27077e-14 3.58351e-14 -7.05859e-15 -4.68303e-14 8.17059e-14 -7.04608e-14 -1.26538e-14 5.0469e-14 -1.07198e-13 6.51013e-14 -8.74817e-15 -4.39627e-14 -2.68141e-13 -5.04145e-14 -2.74985e-13 -1.98889e-13 -4.51176e-14 -6.29758e-14 -3.37479e-14 -1.82731e-13 -2.58686e-13 2.76664e-13 -1.04054e-13 -4.57347e-14 1.73041e-13 -1.85927e-13 -3.12753e-13 -5.17156e-14 1.73842e-13 1.96882e-13 3.00913e-14 -3.37377e-15 1.78903e-13 -3.11327e-13 2.42495e-13 1.85119e-13 -3.20584e-13 -1.87232e-13 -4.39727e-13 -1.07961e-13 -1.77416e-13 -1.87967e-13 -3.41336e-13 -5.48243e-13 -3.27748e-13 1.97762e-14 7.38609e-13 1.18043e-13 -1.6731e-13 -1.38767e-14 5.78311e-13 -9.94548e-13 4.56668e-14 6.91927e-14 -8.1935e-13 -1.79306e-13 2.94817e-13 -4.66599e-13 1.24368e-13 1.25921e-13 -2.49283e-15 1.61287e-13 3.50085e-13 -7.91737e-14 -2.95383e-13 9.6634e-14 -8.67082e-13 3.01131e-13 5.96028e-12 6.17931e-11 6.15489e-10 5.7092e-09 4.82822e-08 3.69807e-07 2.54709e-06 1.5645e-05 8.48293e-05 0.000400926 0.00162589 0.00555298 0.0156777 0.0362044 0.0689747 0.111914 0.16145 0.214929 0.27088 0.328536 0.387594 0.448235 0.506932 0.560422 0.613243 0.664191 0.711088 0.759005 0.80106 0.838764 0.874876 0.89873 0.915749 0.929428 0.932669 0.933213 0.933791 0.933665 0.933077 0.931852 0.930071 0.927779 0.930044 0.933089 0.928628 0.927716 0.928256 0.928282 0.926837 0.922573 0.914735 0.899416 0.869423 0.816062 0.731692 0.614358 0.473449 0.328466 0.201615 0.107311 0.0492711 0.0199973 0.00749001 0.00268098 0.00093377 0.000318687 0.000106798 3.51501e-05 1.13576e-05 3.601e-06 1.11976e-06 3.41364e-07 1.01992e-07 2.98589e-08 8.56373e-09 2.40596e-09 6.62257e-10 1.78141e-10 4.6432e-11 1.27674e-11 2.09711e-12 1.59701e-12 -8.95675e-13 -3.84422e-13 -6.22824e-13 6.55759e-13 -7.89209e-13 1.15222e-12 1.64017e-13 8.76998e-13 -2.03953e-13 -9.62494e-13 -8.74108e-13 1.79634e-12 -9.5022e-13 -9.76202e-13 -2.97444e-13 3.35249e-13 -3.22971e-14 -9.40699e-13 1.7939e-12 -9.03992e-14 -6.51782e-13 -4.92322e-14 -1.14666e-12 -3.94447e-13 -5.58286e-13 -7.6443e-13 -4.97563e-13 -8.95754e-14 1.05752e-12 -6.84462e-13 -3.02716e-13 1.47906e-12 3.66714e-13 7.21421e-13 -1.07938e-12 -1.05688e-12 -3.79256e-13 7.50954e-14 1.52979e-12 -1.15844e-12 -2.35463e-12 -6.91406e-13 1.64891e-12 7.91247e-13 -3.04596e-13 1.13364e-13 7.608e-13 9.26169e-13 0
				</DataArray>
				<DataArray Name="VitesseY" type="Float32" format="ascii">