<?xml version="1.0"?>
<VTKFile type="PolyData">
	<PolyData>
		<Piece NumberOfPoints="1206" NumberOfPolys="1000">
			<Points>
				<DataArray type="Float32" NumberOfComponents="3" format="ascii">
 0 0 0 0.005 0 0 0.01 0 0 0.015 0 0 0.02 0 0 0.025 0 0 0.03 0 0 0.035 0 0 0.04 0 0 0.045 0 0 0.05 0 0 0.055 0 0 0.06 0 0 0.065 0 0 0.07 0 0 0.075 0 0 0.08 0 0 0.085 0 0 0.09 0 0 0.095 0 0 0.1 0 0 0.105 0 0 0.11 0 0 0.115 0 0 0.12 0 0 0.125 0 0 0.13 0 0 0.135 0 0 0.14 0 0 0.145 0 0 0.15 0 0 0.155 0 0 0.16 0 0 0.165 0 0 0.17 0 0 0.175 0 0 0.18 0 0 0.185 0 0 0.19 0 0 0.195 0 0 0.2 0 0 0.205 0 0 0.21 0 0 0.215 0 0 0.22 0 0 0.225 0 0 0.23 0 0 0.235 0 0 0.24 0 0 0.245 0 0 0.25 0 0 0.255 0 0 0.26 0 0 0.265 0 0 0.27 0 0 0.275 0 0 0.28 0 0 0.285 0 0 0.29 0 0 0.295 0 0 0.3 0 0 0.305 0 0 0.31 0 0 0.315 0 0 0.32 0 0 0.325 0 0 0.33 0 0 0.335 0 0 0.34 0 0 0.345 0 0 0.35 0 0 0.355 0 0 0.36 0 0 0.365 0 0 0.37 0 0 0.375 0 0 0.38 0 0 0.385 0 0 0.39 0 0 0.395 0 0 0.4 0 0 0.405 0 0 0.41 0 0 0.415 0 0 0.42 0 0 0.425 0 0 0.43 0 0 0.435 0 0 0.44 0 0 0.445 0 0 0.45 0 0 0.455 0 0 0.46 0 0 0.465 0 0 0.47 0 0 0.475 0 0 0.48 0 0 0.485 0 0 0.49 0 0 0.495 0 0 0.5 0 0 0.505 0 0 0.51 0 0 0.515 0 0 0.52 0 0 0.525 0 0 0.53 0 0 0.535 0 0 0.54 0 0 0.545 0 0 0.55 0 0 0.555 0 0 0.56 0 0 0.565 0 0 0.57 0 0 0.575 0 0 0.58 0 0 0.585 0 0 0.59 0 0 0.595 0 0 0.6 0 0 0.605 0 0 0.61 0 0 0.615 0 0 0.62 0 0 0.625 0 0 0.63 0 0 0.635 0 0 0.64 0 0 0.645 0 0 0.65 0 0 0.655 0 0 0.66 0 0 0.665 0 0 0.67 0 0 0.675 0 0 0.68 0 0 0.685 0 0 0.69 0 0 0.695 0 0 0.7 0 0 0.705 0 0 0.71 0 0 0.715 0 0 0.72 0 0 0.725 0 0 0.73 0 0 0.735 0 0 0.74 0 0 0.745 0 0 0.75 0 0 0.755 0 0 0.76 0 0 0.765 0 0 0.77 0 0 0.775 0 0 0.78 0 0 0.785 0 0 0.79 0 0 0.795 0 0 0.8 0 0 0.805 0 0 0.81 0 0 0.815 0 0 0.82 0 0 0.825 0 0 0.83 0 0 0.835 0 0 0.84 0 0 0.845 0 0 0.85 0 0 0.855 0 0 0.86 0 0 0.865 0 0 0.87 0 0 0.875 0 0 0.88 0 0 0.885 0 0 0.89 0 0 0.895 0 0 0.9 0 0 0.905 0 0 0.91 0 0 0.915 0 0 0.92 0 0 0.925 0 0 0.93 0 0 0.935 0 0 0.94 0 0 0.945 0 0 0.95 0 0 0.955 0 0 0.96 0 0 0.965 0 0 0.97 0 0 0.975 0 0 0.98 0 0 0.985 0 0 0.99 0 0 0.995 0 0 1 0 0 0 0.02 0 0.005 0.02 0 0.01 0.02 0 0.015 0.02 0 0.02 0.02 0 0.025 0.02 0 0.03 0.02 0 0.035 0.02 0 0.04 0.02 0 0.045 0.02 0 0.05 0.02 0 0.055 0.02 0 0.06 0.02 0 0.065 0.02 0 0.07 0.02 0 0.075 0.02 0 0.08 0.02 0 0.085 0.02 0 0.09 0.02 0 0.095 0.02 0 0.1 0.02 0 0.105 0.02 0 0.11 0.02 0 0.115 0.02 0 0.12 0.02 0 0.125 0.02 0 0.13 0.02 0 0.135 0.02 0 0.14 0.02 0 0.145 0.02 0 0.15 0.02 0 0.155 0.02 0 0.16 0.02 0 0.165 0.02 0 0.17 0.02 0 0.175 0.02 0 0.18 0.02 0 0.185 0.02 0 0.19 0.02 0 0.195 0.02 0 0.2 0.02 0 0.205 0.02 0 0.21 0.02 0 0.215 0.02 0 0.22 0.02 0 0.225 0.02 0 0.23 0.02 0 0.235 0.02 0 0.24 0.02 0 0.245 0.02 0 0.25 0.02 0 0.255 0.02 0 0.26 0.02 0 0.265 0.02 0 0.27 0.02 0 0.275 0.02 0 0.28 0.02 0 0.285 0.02 0 0.29 0.02 0 0.295 0.02 0 0.3 0.02 0 0.305 0.02 0 0.31 0.02 0 0.315 0.02 0 0.32 0.02 0 0.325 0.02 0 0.33 0.02 0 0.335 0.02 0 0.34 0.02 0 0.345 0.02 0 0.35 0.02 0 0.355 0.02 0 0.36 0.02 0 0.365 0.02 0 0.37 0.02 0 0.375 0.02 0 0.38 0.02 0 0.385 0.02 0 0.39 0.02 0 0.395 0.02 0 0.4 0.02 0 0.405 0.02 0 0.41 0.02 0 0.415 0.02 0 0.42 0.02 0 0.425 0.02 0 0.43 0.02 0 0.435 0.02 0 0.44 0.02 0 0.445 0.02 0 0.45 0.02 0 0.455 0.02 0 0.46 0.02 0 0.465 0.02 0 0.47 0.02 0 0.475 0.02 0 0.48 0.02 0 0.485 0.02 0 0.49 0.02 0 0.495 0.02 0 0.5 0.02 0 0.505 0.02 0 0.51 0.02 0 0.515 0.02 0 0.52 0.02 0 0.525 0.02 0 0.53 0.02 0 0.535 0.02 0 0.54 0.02 0 0.545 0.02 0 0.55 0.02 0 0.555 0.02 0 0.56 0.02 0 0.565 0.02 0 0.57 0.02 0 0.575 0.02 0 0.58 0.02 0 0.585 0.02 0 0.59 0.02 0 0.595 0.02 0 0.6 0.02 0 0.605 0.02 0 0.61 0.02 0 0.615 0.02 0 0.62 0.02 0 0.625 0.02 0 0.63 0.02 0 0.635 0.02 0 0.64 0.02 0 0.645 0.02 0 0.65 0.02 0 0.655 0.02 0 0.66 0.02 0 0.665 0.02 0 0.67 0.02 0 0.675 0.02 0 0.68 0.02 0 0.685 0.02 0 0.69 0.02 0 0.695 0.02 0 0.7 0.02 0 0.705 0.02 0 0.71 0.02 0 0.715 0.02 0 0.72 0.02 0 0.725 0.02 0 0.73 0.02 0 0.735 0.02 0 0.74 0.02 0 0.745 0.02 0 0.75 0.02 0 0.755 0.02 0 0.76 0.02 0 0.765 0.02 0 0.77 0.02 0 0.775 0.02 0 0.78 0.02 0 0.785 0.02 0 0.79 0.02 0 0.795 0.02 0 0.8 0.02 0 0.805 0.02 0 0.81 0.02 0 0.815 0.02 0 0.82 0.02 0 0.825 0.02 0 0.83 0.02 0 0.835 0.02 0 0.84 0.02 0 0.845 0.02 0 0.85 0.02 0 0.855 0.02 0 0.86 0.02 0 0.865 0.02 0 0.87 0.02 0 0.875 0.02 0 0.88 0.02 0 0.885 0.02 0 0.89 0.02 0 0.895 0.02 0 0.9 0.02 0 0.905 0.02 0 0.91 0.02 0 0.915 0.02 0 0.92 0.02 0 0.925 0.02 0 0.93 0.02 0 0.935 0.02 0 0.94 0.02 0 0.945 0.02 0 0.95 0.02 0 0.955 0.02 0 0.96 0.02 0 0.965 0.02 0 0.97 0.02 0 0.975 0.02 0 0.98 0.02 0 0.985 0.02 0 0.99 0.02 0 0.995 0.02 0 1 0.02 0 0 0.04 0 0.005 0.04 0 0.01 0.04 0 0.015 0.04 0 0.02 0.04 0 0.025 0.04 0 0.03 0.04 0 0.035 0.04 0 0.04 0.04 0 0.045 0.04 0 0.05 0.04 0 0.055 0.04 0 0.06 0.04 0 0.065 0.04 0 0.07 0.04 0 0.075 0.04 0 0.08 0.04 0 0.085 0.04 0 0.09 0.04 0 0.095 0.04 0 0.1 0.04 0 0.105 0.04 0 0.11 0.04 0 0.115 0.04 0 0.12 0.04 0 0.125 0.04 0 0.13 0.04 0 0.135 0.04 0 0.14 0.04 0 0.145 0.04 0 0.15 0.04 0 0.155 0.04 0 0.16 0.04 0 0.165 0.04 0 0.17 0.04 0 0.175 0.04 0 0.18 0.04 0 0.185 0.04 0 0.19 0.04 0 0.195 0.04 0 0.2 0.04 0 0.205 0.04 0 0.21 0.04 0 0.215 0.04 0 0.22 0.04 0 0.225 0.04 0 0.23 0.04 0 0.235 0.04 0 0.24 0.04 0 0.245 0.04 0 0.25 0.04 0 0.255 0.04 0 0.26 0.04 0 0.265 0.04 0 0.27 0.04 0 0.275 0.04 0 0.28 0.04 0 0.285 0.04 0 0.29 0.04 0 0.295 0.04 0 0.3 0.04 0 0.305 0.04 0 0.31 0.04 0 0.315 0.04 0 0.32 0.04 0 0.325 0.04 0 0.33 0.04 0 0.335 0.04 0 0.34 0.04 0 0.345 0.04 0 0.35 0.04 0 0.355 0.04 0 0.36 0.04 0 0.365 0.04 0 0.37 0.04 0 0.375 0.04 0 0.38 0.04 0 0.385 0.04 0 0.39 0.04 0 0.395 0.04 0 0.4 0.04 0 0.405 0.04 0 0.41 0.04 0 0.415 0.04 0 0.42 0.04 0 0.425 0.04 0 0.43 0.04 0 0.435 0.04 0 0.44 0.04 0 0.445 0.04 0 0.45 0.04 0 0.455 0.04 0 0.46 0.04 0 0.465 0.04 0 0.47 0.04 0 0.475 0.04 0 0.48 0.04 0 0.485 0.04 0 0.49 0.04 0 0.495 0.04 0 0.5 0.04 0 0.505 0.04 0 0.51 0.04 0 0.515 0.04 0 0.52 0.04 0 0.525 0.04 0 0.53 0.04 0 0.535 0.04 0 0.54 0.04 0 0.545 0.04 0 0.55 0.04 0 0.555 0.04 0 0.56 0.04 0 0.565 0.04 0 0.57 0.04 0 0.575 0.04 0 0.58 0.04 0 0.585 0.04 0 0.59 0.04 0 0.595 0.04 0 0.6 0.04 0 0.605 0.04 0 0.61 0.04 0 0.615 0.04 0 0.62 0.04 0 0.625 0.04 0 0.63 0.04 0 0.635 0.04 0 0.64 0.04 0 0.645 0.04 0 0.65 0.04 0 0.655 0.04 0 0.66 0.04 0 0.665 0.04 0 0.67 0.04 0 0.675 0.04 0 0.68 0.04 0 0.685 0.04 0 0.69 0.04 0 0.695 0.04 0 0.7 0.04 0 0.705 0.04 0 0.71 0.04 0 0.715 0.04 0 0.72 0.04 0 0.725 0.04 0 0.73 0.04 0 0.735 0.04 0 0.74 0.04 0 0.745 0.04 0 0.75 0.04 0 0.755 0.04 0 0.76 0.04 0 0.765 0.04 0 0.77 0.04 0 0.775 0.04 0 0.78 0.04 0 0.785 0.04 0 0.79 0.04 0 0.795 0.04 0 0.8 0.04 0 0.805 0.04 0 0.81 0.04 0 0.815 0.04 0 0.82 0.04 0 0.825 0.04 0 0.83 0.04 0 0.835 0.04 0 0.84 0.04 0 0.845 0.04 0 0.85 0.04 0 0.855 0.04 0 0.86 0.04 0 0.865 0.04 0 0.87 0.04 0 0.875 0.04 0 0.88 0.04 0 0.885 0.04 0 0.89 0.04 0 0.895 0.04 0 0.9 0.04 0 0.905 0.04 0 0.91 0.04 0 0.915 0.04 0 0.92 0.04 0 0.925 0.04 0 0.93 0.04 0 0.935 0.04 0 0.94 0.04 0 0.945 0.04 0 0.95 0.04 0 0.955 0.04 0 0.96 0.04 0 0.965 0.04 0 0.97 0.04 0 0.975 0.04 0 0.98 0.04 0 0.985 0.04 0 0.99 0.04 0 0.995 0.04 0 1 0.04 0 0 0.06 0 0.005 0.06 0 0.01 0.06 0 0.015 0.06 0 0.02 0.06 0 0.025 0.06 0 0.03 0.06 0 0.035 0.06 0 0.04 0.06 0 0.045 0.06 0 0.05 0.06 0 0.055 0.06 0 0.06 0.06 0 0.065 0.06 0 0.07 0.06 0 0.075 0.06 0 0.08 0.06 0 0.085 0.06 0 0.09 0.06 0 0.095 0.06 0 0.1 0.06 0 0.105 0.06 0 0.11 0.06 0 0.115 0.06 0 0.12 0.06 0 0.125 0.06 0 0.13 0.06 0 0.135 0.06 0 0.14 0.06 0 0.145 0.06 0 0.15 0.06 0 0.155 0.06 0 0.16 0.06 0 0.165 0.06 0 0.17 0.06 0 0.175 0.06 0 0.18 0.06 0 0.185 0.06 0 0.19 0.06 0 0.195 0.06 0 0.2 0.06 0 0.205 0.06 0 0.21 0.06 0 0.215 0.06 0 0.22 0.06 0 0.225 0.06 0 0.23 0.06 0 0.235 0.06 0 0.24 0.06 0 0.245 0.06 0 0.25 0.06 0 0.255 0.06 0 0.26 0.06 0 0.265 0.06 0 0.27 0.06 0 0.275 0.06 0 0.28 0.06 0 0.285 0.06 0 0.29 0.06 0 0.295 0.06 0 0.3 0.06 0 0.305 0.06 0 0.31 0.06 0 0.315 0.06 0 0.32 0.06 0 0.325 0.06 0 0.33 0.06 0 0.335 0.06 0 0.34 0.06 0 0.345 0.06 0 0.35 0.06 0 0.355 0.06 0 0.36 0.06 0 0.365 0.06 0 0.37 0.06 0 0.375 0.06 0 0.38 0.06 0 0.385 0.06 0 0.39 0.06 0 0.395 0.06 0 0.4 0.06 0 0.405 0.06 0 0.41 0.06 0 0.415 0.06 0 0.42 0.06 0 0.425 0.06 0 0.43 0.06 0 0.435 0.06 0 0.44 0.06 0 0.445 0.06 0 0.45 0.06 0 0.455 0.06 0 0.46 0.06 0 0.465 0.06 0 0.47 0.06 0 0.475 0.06 0 0.48 0.06 0 0.485 0.06 0 0.49 0.06 0 0.495 0.06 0 0.5 0.06 0 0.505 0.06 0 0.51 0.06 0 0.515 0.06 0 0.52 0.06 0 0.525 0.06 0 0.53 0.06 0 0.535 0.06 0 0.54 0.06 0 0.545 0.06 0 0.55 0.06 0 0.555 0.06 0 0.56 0.06 0 0.565 0.06 0 0.57 0.06 0 0.575 0.06 0 0.58 0.06 0 0.585 0.06 0 0.59 0.06 0 0.595 0.06 0 0.6 0.06 0 0.605 0.06 0 0.61 0.06 0 0.615 0.06 0 0.62 0.06 0 0.625 0.06 0 0.63 0.06 0 0.635 0.06 0 0.64 0.06 0 0.645 0.06 0 0.65 0.06 0 0.655 0.06 0 0.66 0.06 0 0.665 0.06 0 0.67 0.06 0 0.675 0.06 0 0.68 0.06 0 0.685 0.06 0 0.69 0.06 0 0.695 0.06 0 0.7 0.06 0 0.705 0.06 0 0.71 0.06 0 0.715 0.06 0 0.72 0.06 0 0.725 0.06 0 0.73 0.06 0 0.735 0.06 0 0.74 0.06 0 0.745 0.06 0 0.75 0.06 0 0.755 0.06 0 0.76 0.06 0 0.765 0.06 0 0.77 0.06 0 0.775 0.06 0 0.78 0.06 0 0.785 0.06 0 0.79 0.06 0 0.795 0.06 0 0.8 0.06 0 0.805 0.06 0 0.81 0.06 0 0.815 0.06 0 0.82 0.06 0 0.825 0.06 0 0.83 0.06 0 0.835 0.06 0 0.84 0.06 0 0.845 0.06 0 0.85 0.06 0 0.855 0.06 0 0.86 0.06 0 0.865 0.06 0 0.87 0.06 0 0.875 0.06 0 0.88 0.06 0 0.885 0.06 0 0.89 0.06 0 0.895 0.06 0 0.9 0.06 0 0.905 0.06 0 0.91 0.06 0 0.915 0.06 0 0.92 0.06 0 0.925 0.06 0 0.93 0.06 0 0.935 0.06 0 0.94 0.06 0 0.945 0.06 0 0.95 0.06 0 0.955 0.06 0 0.96 0.06 0 0.965 0.06 0 0.97 0.06 0 0.975 0.06 0 0.98 0.06 0 0.985 0.06 0 0.99 0.06 0 0.995 0.06 0 1 0.06 0 0 0.08 0 0.005 0.08 0 0.01 0.08 0 0.015 0.08 0 0.02 0.08 0 0.025 0.08 0 0.03 0.08 0 0.035 0.08 0 0.04 0.08 0 0.045 0.08 0 0.05 0.08 0 0.055 0.08 0 0.06 0.08 0 0.065 0.08 0 0.07 0.08 0 0.075 0.08 0 0.08 0.08 0 0.085 0.08 0 0.09 0.08 0 0.095 0.08 0 0.1 0.08 0 0.105 0.08 0 0.11 0.08 0 0.115 0.08 0 0.12 0.08 0 0.125 0.08 0 0.13 0.08 0 0.135 0.08 0 0.14 0.08 0 0.145 0.08 0 0.15 0.08 0 0.155 0.08 0 0.16 0.08 0 0.165 0.08 0
[...]
			<PointData Scalars="VitesseX">
				<DataArray Name="VitesseX" type="Float32" format="ascii">
 0 -4.76735e-14 1.7073e-14 -1.12645e-13 8.30147e-14 -2.2403e-14 -1.27133e-14 -1.00382e-13 5.10153e-14 1.48144e-15 -2.03529e-13 2.08208e-13 -3.69597e-13 4.05995e-13 -2.95601e-13 -1.09628e-14 2.11923e-13 -3.02547e-13 2.95412e-13 -1.80671e-13 -5.06192e-14 7.71334e-14 -7.95746e-14 1.126e-13 -1.59075e-13 -1.54572e-13 -3.02967e-14 -3.65185e-13 2.52704e-13 -4.84088e-13 7.06439e-13 -1.74537e-13 4.08311e-13 -2.37148e-13 -7.85332e-13 6.6058e-13 -7.85824e-13 1.01747e-12 -5.64205e-13 3.63221e-13 -7.32814e-13 6.13052e-13 -2.77666e-13 -8.45341e-14 -5.11951e-13 1.02204e-12 -1.20512e-12 1.29441e-12 -8.16288e-13 4.12125e-13 -2.26367e-14 -3.298e-13 1.61409e-12 -2.36167e-12 8.14006e-13 -3.4168e-13 -1.5002e-12 2.33596e-12 -2.64408e-12 1.28889e-12 8.13679e-13 6.45667e-13 -1.07895e-13 -4.64009e-13 5.27585e-13 -7.25206e-15 -1.31977e-13 -5.90519e-13 -1.57316e-12 8.20243e-13 1.31808e-12 -2.5792e-12 1.58953e-12 -4.89501e-13 2.35008e-12 -1.06047e-12 -1.66617e-13 6.80808e-13 -1.41962e-12 1.76246e-12 -2.16178e-12 3.13493e-13 8.55194e-13 -1.97989e-12 6.02493e-13 1.46852e-12 -6.3491e-13 -1.1982e-13 6.32883e-13 -1.2821e-12 2.53156e-12 6.92166e-11 4.3151e-09 2.08091e-07 7.54906e-06 0.000196194 0.00339427 0.0348873 0.185426 0.509208 0.657441 0.891136 0.884186 0.736985 0.510923 0.283077 0.115834 0.0318762 0.00620373 0.000990776 0.000140275 1.80026e-05 2.1111e-06 2.27328e-07 2.25688e-08 2.07253e-09 1.75193e-10 1.34862e-11 3.54345e-12 -1.34638e-12 2.23581e-12 -1.19961e-12 -7.04733e-13 2.22724e-12 -2.42809e-12 2.22217e-12 -1.05743e-12 -1.117e-12 2.1844e-12 -2.13561e-12 1.87042e-12 -9.65652e-13 -7.96271e-13 2.1103e-12 -2.07683e-12 1.6636e-12 -1.19774e-12 -1.12582e-12 6.27754e-13 -2.109e-12 1.96345e-12 -2.07555e-13 -2.34576e-12 3.08522e-12 9.1751e-13 -1.48955e-12 2.49633e-12 -3.36398e-12 2.48195e-12 1.74684e-13 -1.63634e-12 2.17626e-12 -3.14934e-12 2.88314e-12 -2.07645e-12 2.14517e-12 -1.80432e-12 -6.10158e-13 1.27419e-12 -3.38859e-13 1.31165e-12 -1.40078e-12 2.9722e-14 5.0131e-13 -9.86414e-13 -1.74736e-13 -6.43206e-13 4.52845e-14 2.44244e-12 -2.01408e-12 1.58267e-12 -7.92013e-14 -1.80712e-12 2.92612e-12 -2.58902e-12 1.72094e-12 -5.12768e-13 -1.3683e-12 2.33882e-12 -1.90196e-12 1.15402e-12 2.58435e-13 -2.00655e-12 2.91618e-12 -2.52105e-12 1.47956e-12 1.57112e-14 -2.47443e-12 1.62844e-12 -3.97507e-12 1.03506e-12 3.93142e-12 -7.64259e-12 5.08717e-12 4.83537e-13 8.67121e-13 2.02386e-12 -4.52883e-12 4.07722e-12 -1.298e-12 0 0 -1.91639e-14 -9.21232e-14 1.12695e-13 -1.34424e-13 -1.34992e-14 4.14757e-14 2.87292e-14 -1.6697e-13 -1.94072e-14 7.01493e-14 -2.0343e-13 3.8411e-13 -5.61698e-13 3.16525e-13 -1.33683e-13 -2.80669e-13 4.13223e-13 -3.86018e-13 2.13698e-13 1.4882e-13 -1.70747e-13 -1.26335e-13 7.27094e-15 4.13576e-13 -3.50406e-14 -7.70292e-13 -2.57139e-13 4.28103e-13 -4.96916e-14 -2.08008e-14 6.3657e-13 -4.443e-13 -2.75125e-13 1.84221e-13 -4.52611e-14 -4.16391e-14 -4.8028e-13 8.41606e-13 -4.97627e-13 1.2546e-13 8.65957e-15 -5.22059e-13 4.63101e-13 3.95979e-14 -5.02941e-13 3.96046e-13 -4.63461e-13 6.4721e-13 1.20808e-13 1.2206e-13 -1.21044e-13 -8.23258e-13 8.3259e-13 -9.52096e-13 -6.56861e-13 6.88001e-13 -5.37468e-13 5.64291e-13 -6.42423e-13 4.46226e-13 5.62047e-13 1.98698e-13 5.15073e-13 -5.17134e-13 -2.88824e-13 2.16866e-13 -5.37726e-13 -9.55064e-14 -7.78476e-13 -3.97325e-14 7.77962e-13 -5.90022e-13 1.34587e-12 -8.34032e-13 7.3931e-13 4.76944e-13 -8.43154e-13 5.33246e-13 -1.21225e-12 8.95226e-13 -1.06513e-12 -1.05325e-12 1.77074e-12 -1.41187e-13 -1.374e-12 1.0234e-12 8.4748e-13 -3.48223e-13 6.93798e-13 -5.30901e-13 7.06939e-11 4.31569e-09 2.0809e-07 7.54906e-06 0.000196194 0.00339427 0.0348873 0.185426 0.509208 0.657441 0.891136 0.884186 0.736985 0.510923 0.283077 0.115834 0.0318762 0.00620373 0.000990776 0.000140275 1.80026e-05 2.1111e-06 2.27328e-07 2.25663e-08 2.07301e-09 1.76859e-10 1.458e-11 9.89073e-14 1.695e-12 -1.08821e-12 1.46735e-12 2.31782e-13 -1.58436e-12 1.31843e-12 -1.22293e-12 1.08277e-12 5.73186e-13 -1.85019e-12 1.3685e-12 -1.32946e-12 1.37391e-12 3.54288e-13 -1.6013e-12 1.21144e-12 -1.09966e-12 8.80296e-13 -1.25158e-13 -2.27644e-12 2.30433e-13 2.20775e-14 -8.75176e-13 2.87002e-12 -1.24708e-12 -2.90127e-13 1.48807e-12 -1.09528e-12 2.69027e-12 -1.97784e-12 -6.39076e-13 1.4862e-12 -1.19628e-12 2.39501e-12 -2.49537e-12 1.01002e-12 -1.14848e-12 1.19272e-12 1.62218e-13 -1.44831e-12 2.54532e-13 8.69833e-14 2.05692e-12 -7.29135e-13 -1.99432e-12 -4.99258e-13 -2.54495e-13 1.98204e-12 -3.98211e-13 -7.59371e-13 2.00624e-12 -1.67696e-12 -5.04613e-13 2.09913e-12 -1.56226e-12 2.16312e-12 -2.06809e-12 -3.01849e-13 1.61725e-12 -1.17453e-12 1.6424e-12 -1.6123e-12 -8.32062e-13 2.22077e-12 -1.66906e-12 2.01295e-12 -1.99071e-12 -5.48454e-13 1.5659e-12 -2.54569e-12 1.02174e-12 -2.68172e-12 3.17996e-13 3.76043e-12 -3.17846e-12 2.50031e-13 8.35665e-13 3.25088e-13 4.37595e-12 -3.86066e-12 -4.18001e-13 0 0 1.05494e-14 5.65963e-14 -1.19128e-13 8.80654e-14 -7.00095e-14 -1.74147e-13 -1.49397e-13 1.44485e-13 6.81615e-14 -1.21069e-13 7.13985e-14 -4.23088e-13 2.33776e-13 -4.55439e-13 8.35757e-14 3.1367e-13 -3.36589e-13 3.1955e-13 -2.61854e-13 -6.73734e-14 2.6265e-13 2.72717e-13 -6.49419e-14 -5.23554e-13 -7.13966e-14 3.24408e-13 -3.01605e-13 1.12796e-13 -4.52725e-13 4.53642e-13 -8.2983e-14 4.69311e-13 -2.81885e-13 -5.84044e-13 3.15653e-14 1.24502e-13 5.31492e-13 -4.30089e-13 -5.01516e-14 -2.53309e-13 1.74705e-13 -1.09739e-13 -1.67919e-13 -2.7766e-14 4.44911e-13 -2.23682e-13 1.40875e-13 -2.10468e-13 -2.82154e-13 -9.937e-14 4.23845e-13 4.6352e-14 -3.37089e-13 -1.31807e-12 -1.92558e-13 8.39371e-13 5.13081e-15 -1.12776e-13 -4.13469e-13 6.32733e-13 6.57165e-13 -3.64735e-13 1.73872e-13 -1.56531e-13 3.80115e-13 4.19791e-15 -6.57892e-13 -5.21783e-13 5.74142e-14 1.44614e-14 -2.64747e-13 -7.29328e-13 8.02397e-13 9.76581e-13 -1.91072e-13 -8.25745e-13 -2.1777e-13 7.28313e-13 2.86416e-14 -9.45333e-13 3.02572e-13 -1.45451e-13 -1.82171e-14 -1.3307e-12 1.77202e-12 6.77703e-13 -5.5168e-13 1.86651e-13 2.86566e-13 2.03804e-12 6.94304e-11 4.31396e-09 2.08091e-07 7.54906e-06 0.000196194 0.00339427 0.0348873 0.185426 0.509208 0.657441 0.891136 0.884186 0.736985 0.510923 0.283077 0.115834 0.0318762 0.00620373 0.000990776 0.000140275 1.80026e-05 2.1111e-06 2.27328e-07 2.25682e-08 2.07186e-09 1.75499e-10 1.47947e-11 1.57149e-12 2.32993e-14 6.90974e-13 -1.25892e-12 1.26059e-12 1.01441e-13 -4.49017e-13 2.11494e-13 -1.45763e-12 1.2715e-12 9.96654e-14 -3.36202e-13 4.10042e-13 -1.3739e-12 1.43986e-12 2.22301e-13 -4.26264e-13 4.55709e-13 -1.47404e-12 7.78562e-13 -4.69033e-13 -1.22086e-12 6.22303e-13 -1.32693e-13 -1.64052e-13 5.00167e-13 9.95323e-13 -9.15091e-13 2.44488e-13 4.65096e-13 -2.57294e-13 8.48899e-13 -1.12822e-12 2.0641e-13 6.50547e-13 -5.06574e-13 -3.41766e-14 6.88084e-13 -1.21651e-12 1.23953e-12 2.79192e-13 6.43247e-13 -8.12719e-13 -2.17934e-12 6.29749e-13 7.56109e-13 2.9043e-13 -1.03078e-12 -1.06838e-12 3.75196e-13 4.46662e-13 -1.09963e-13 1.13102e-12 2.57547e-14 -2.05762e-13 -3.26829e-13 -3.34188e-13 1.39853e-12 -2.73488e-13 -6.52942e-14 -7.27021e-13 -3.1706e-13 1.20578e-12 -1.40722e-13 -3.68909e-13 -5.14684e-13 -1.37871e-13 1.19687e-12 -3.45028e-13 -5.80071e-13 -1.33839e-12 -1.3571e-12 1.16008e-12 4.17786e-13 -1.72704e-12 -5.0406e-13 1.94829e-12 7.78841e-13 -2.15989e-13 -2.57823e-13 -2.72762e-14 1.04555e-12 0 0 -4.06592e-14 -1.58027e-14 -3.73532e-14 -4.09955e-14 -1.09419e-14 -1.63427e-14 -1.08298e-13 -6.32134e-14 -3.67432e-14 -1.94996e-13 -7.77056e-14 -1.94379e-13 1.32762e-14 -9.43258e-14 1.61041e-14 5.58149e-14 -1.20497e-13 4.85822e-14 1.29276e-13 1.06407e-13 1.96389e-14 -2.35763e-13 -4.17655e-14 -7.60205e-14 -1.20818e-13 -1.30613e-14 -1.54111e-13 1.66913e-14 -7.37724e-14 1.17615e-13 2.08653e-13 1.96175e-14 -3.53643e-13 -1.47727e-13 5.15494e-14 -4.40993e-13 4.26246e-13 -4.66321e-13 3.03298e-13 -4.75132e-14 2.42875e-13 1.18501e-13 -2.41632e-13 -6.23604e-13 2.28938e-13 -6.53141e-13 9.15048e-13 -6.16343e-13 2.36743e-13 -3.03002e-13 -4.67121e-13 8.77666e-13 -9.28563e-13 -4.26008e-13 -3.66831e-13 3.00925e-13 9.58582e-13 -7.61849e-13 -4.58932e-14 5.5947e-13 4.34791e-13 2.74927e-13 5.56082e-13 -4.0698e-13 -6.62838e-14 -3.42787e-13 -3.76732e-13 -3.57192e-13 -1.05784e-12 1.01426e-12 -1.14175e-12 1.13484e-13 2.94589e-13 9.24952e-13 -9.81344e-13 3.67151e-13 -5.04556e-14 2.34668e-13 4.70617e-13 -2.37623e-12 -3.20719e-13 1.29457e-12 -6.64202e-13 -2.72041e-13 1.45058e-12 -1.68785e-13 1.25676e-13 9.93792e-13 -7.82053e-13 2.58451e-12 6.84942e-11 4.31525e-09 2.08091e-07 7.54906e-06 0.000196194 0.00339427 0.0348873 0.185426 0.509208 0.657441 0.891136 0.884186 0.736985 0.510923 0.283077 0.115834 0.0318762 0.00620373 0.000990776 0.000140275 1.80026e-05 2.1111e-06 2.27327e-07 2.25684e-08 2.07172e-09 1.75648e-10 1.4477e-11 1.42086e-12 -5.70757e-13 1.42608e-12 -1.59266e-12 1.1656e-12 -4.12128e-15 -8.60479e-13 1.28902e-12 -1.52503e-12 7.76996e-13 2.57021e-13 -8.28341e-13 1.35732e-12 -1.39309e-12 1.28127e-12 1.58207e-13 -1.25175e-12 1.34792e-12 -1.53711e-12 2.809e-13 -5.27385e-13 -1.01278e-12 1.95645e-13 2.1732e-13 -1.45288e-13 2.6022e-13 -4.23853e-14 -9.66353e-13 1.89109e-12 -1.46122e-13 -6.188e-13 -4.97985e-13 -6.73405e-13 2.09226e-12 -7.85494e-14 2.3689e-13 -1.49179e-12 2.22498e-12 -1.39534e-12 8.73046e-13 -6.92159e-13 -6.93279e-13 1.49391e-12 -9.69159e-13 8.88069e-13 -1.92072e-12 -3.84141e-13 6.17253e-13 -1.56078e-12 1.42128e-12 7.79706e-13 -4.40083e-13 8.23333e-13 -1.33742e-12 -3.89727e-13 1.94217e-12 -1.05843e-12 8.62385e-13 -1.15414e-12 -1.86691e-13 1.65903e-12 -5.85775e-13 1.49464e-13 -1.52566e-12 -5.02433e-13 2.24716e-12 -1.39778e-12 6.70384e-13 -1.12518e-12 -9.53113e-13 1.17417e-12 -2.94554e-12 -9.33002e-13 1.96569e-12 -1.03651e-12 5.59463e-13 -5.51046e-13 -3.98594e-13 2.00437e-12 6.72662e-13 -3.65392e-13 -2.14115e-12 0 0 -5.09571e-14 -1.37826e-13 9.55439e-14 -2.02911e-13 -7.08392e-14 3.49775e-14 7.00619e-14 -2.3897e-13 -1.48715e-13 -3.72385e-14 -4.87177e-13 4.07079e-13 -6.17963e-13 5.45435e-13 -2.75874e-14 -3.32157e-13 7.29588e-13 -5.20963e-13 2.46155e-13 7.01549e-15 -4.96459e-13 -3.08355e-13 -1.6855e-13 4.9443e-13 -3.48146e-14 -5.858e-13 -4.42669e-14 2.62124e-14 4.30233e-13 -3.2485e-13 5.83564e-13 -6.1049e-13 -1.94758e-13 4.02551e-13 -2.56596e-14 2.12561e-13 -4.76055e-13 6.92196e-13 -5.81902e-13 2.34602e-13 -3.56191e-13 -2.9258e-13 2.07304e-13 -1.30464e-13 -5.93414e-13 2.12711e-13 -3.61007e-13 2.86484e-13 3.5606e-13 -1.19929e-14 -2.28382e-13 -1.77798e-13 4.64847e-13 -8.01773e-13 -8.61696e-13 4.86872e-13 -3.38146e-14 4.88708e-13 -3.38522e-13 5.75704e-13 3.37053e-13 6.79792e-13 2.88502e-13 -4.37961e-13 -4.67015e-13 -6.75761e-14 -4.26045e-13 -1.04926e-13 -1.38036e-12 2.67287e-13 5.68692e-13 -7.00051e-14 1.77673e-12 -5.43126e-13 -1.23929e-13 -1.46134e-13 -1.15071e-12 1.69463e-14 -8.68909e-13 1.99247e-14 -2.73015e-12 1.8893e-13 1.61542e-12 4.4561e-13 -2.13945e-12 5.73283e-13 1.54898e-12 -5.05056e-13 1.26142e-12 -1.62045e-13 6.96306e-11 4.31734e-09 2.08089e-07 7.54906e-06 0.000196194 0.00339427 0.0348873 0.185426 0.509208 0.657441 0.891136 0.884186 0.736985 0.510923 0.283077 0.115834 0.0318762 0.00620373 0.000990776 0.000140275 1.80026e-05 2.1111e-06 2.27328e-07 2.25664e-08 2.07288e-09 1.77211e-10 1.39352e-11 2.72866e-13 1.78229e-12 -1.38174e-12 1.70733e-12 -7.35633e-13 -1.36449e-12 1.92754e-12 -1.49099e-12 1.70349e-12 -3.53125e-13 -1.35292e-12 1.62035e-12 -1.55218e-12 1.61228e-12 -1.47011e-13 -1.45287e-12 1.33486e-12 -1.24419e-12 1.17119e-12 -1.13646e-12 -2.09071e-12 9.95393e-13 -1.07892e-12 -1.17328e-12 3.52477e-12 -1.88734e-12 -1.25852e-12 2.18848e-12 -1.34523e-12 3.94214e-12 -2.08563e-12 -8.01034e-13 1.65351e-12 -2.31574e-12 2.11094e-12 -2.59867e-12 1.32277e-12 -8.99746e-13 2.92203e-12 -4.75812e-13 -1.75157e-12 -1.26846e-12 5.40242e-13 3.72205e-12 -2.63592e-12 -2.86974e-12 -6.94257e-13 5.36987e-13 1.72832e-12 -3.27732e-12 1.15262e-13 4.61533e-12 -2.06481e-12 -1.36241e-12 1.79609e-12 -6.48391e-14 3.13678e-12 -4.15166e-12 -1.63397e-13 1.16362e-12 -5.95309e-14 3.38271e-12 -3.45726e-12 -2.14487e-12 2.04206e-12 3.5601e-14 3.18769e-12 -4.06658e-12 -6.20446e-13 1.03596e-12 -1.09524e-12 8.4395e-13 -6.40683e-12 9.42613e-13 7.15612e-12 -3.4464e-12 -1.61557e-12 4.50707e-13 1.40323e-12 6.5609e-12 -5.55665e-12 -2.56171e-12 0 0 -8.84274e-15 7.04659e-14 -3.10497e-13 2.04163e-13 -2.55218e-13 -3.41318e-13 -9.9916e-14 3.22413e-13 -4.73238e-14 -2.7045e-13 -6.10779e-14 -7.81077e-13 7.34464e-13 -5.60009e-13 3.36171e-13 6.24658e-13 -1.02e-13 5.6746e-13 -8.98017e-13 -6.81787e-13 -8.82694e-14 5.73346e-13 -2.85395e-13 -8.92432e-13 -5.52767e-14 1.01363e-12 -2.34429e-13 -3.58867e-13 -2.82143e-13 7.70395e-13 -8.63822e-13 9.75317e-13 6.71018e-14 -1.22131e-12 6.59815e-13 8.53565e-13 1.23641e-12 -7.9056e-13 -5.1223e-13 -9.26122e-13 -2.52989e-13 -2.75187e-13 -4.48702e-13 3.39601e-13 1.27304e-12 -7.12871e-13 -4.9026e-14 -7.25989e-13 -1.55165e-13 1.16522e-13 1.23746e-12 1.24238e-12 -1.91421e-12 -6.69462e-13 -4.02804e-13 -8.25571e-13 1.43637e-12 -1.4971e-12 1.16154e-12 1.21916e-12 6.40429e-13 -4.25032e-13 -1.68157e-12 1.18683e-12 5.29163e-13 -6.89208e-15 -9.29479e-13 -1.92118e-12 1.84698e-12 -6.74812e-14 -1.24375e-12 9.43941e-13 1.38785e-12 3.03516e-12 -1.20641e-12 -3.79857e-12 -2.68927e-13 -1.46493e-12 1.56519e-12 -1.05058e-12 -1.76996e-12 4.59515e-13 -9.98563e-13 -3.41226e-13 5.80501e-13 1.57842e-13 -7.15331e-14 -1.29506e-12 1.99039e-12 2.17634e-12 6.89623e-11 4.31581e-09 2.08088e-07 7.54907e-06 0.000196194 0.00339427 0.0348873 0.185426 0.509208 0.657441 0.891136 0.884186 0.736985 0.510923 0.283077 0.115834 0.0318762 0.00620373 0.000990776 0.000140275 1.80026e-05 2.11109e-06 2.27329e-07 2.25686e-08 2.07256e-09 1.75599e-10 1.28318e-11 4.19261e-12 1.63097e-14 1.7852e-13 -5.21621e-14 -2.44959e-12 2.87811e-12 -3.86941e-13 -4.68996e-13 3.1881e-13 -1.98061e-12 2.86423e-12 -6.47631e-13 -4.69584e-13 -4.50542e-13 -1.48169e-12 2.53534e-12 -1.79014e-13 -4.09886e-13 -4.89816e-13 -2.1531e-12 1.11591e-12 -9.95219e-13 6.14762e-13 -1.50379e-12 -1.07379e-12 2.28461e-12 1.05615e-12 1.37884e-14 -1.29677e-12 3.62199e-13 2.98938e-12 2.54454e-12 -2.21134e-12 -3.83437e-12 -2.25927e-12 1.18962e-12 1.46427e-12 -4.31148e-13 2.01195e-12 -1.15325e-12 2.61036e-12 -7.11798e-13 -2.39509e-12 -4.90875e-13 -4.30049e-12 4.10414e-12 -2.72724e-14 -1.88784e-12 -1.65825e-13 -7.8051e-12 3.52562e-12 3.86434e-12 1.42234e-12 9.31563e-13 -2.04529e-12 1.38296e-12 8.06802e-13 -1.37391e-12 1.52545e-12 -2.03278e-12 -2.03276e-13 2.11609e-12 -4.23263e-13 4.02684e-13 -2.09693e-12 8.01805e-13 2.34825e-12 -1.61919e-12 1.43204e-12 -2.78821e-12 -4.9577e-13 -1.15377e-12 -2.229e-12 2.08485e-12 -2.23228e-12 2.42424e-12 1.75102e-12 2.45207e-12 -2.60554e-13 -2.01991e-12 1.36146e-12 7.87981e-13 0
				</DataArray>
				<DataArray Name="VitesseY" type="Float32" format="ascii">