<?xml version="1.0"?>
<VTKFile type="PolyData">
	<PolyData>
		<Piece NumberOfPoints="1206" NumberOfPolys="1000">
			<Points>
				<DataArray type="Float32" NumberOfComponents="3" format="ascii">
 0 0 0 0.005 0 0 0.01 0 0 0.015 0 0 0.02 0 0 0.025 0 0 0.03 0 0 0.035 0 0 0.04 0 0 0.045 0 0 0.05 0 0 0.055 0 0 0.06 0 0 0.065 0 0 0.07 0 0 0.075 0 0 0.08 0 0 0.085 0 0 0.09 0 0 0.095 0 0 0.1 0 0 0.105 0 0 0.11 0 0 0.115 0 0 0.12 0 0 0.125 0 0 0.13 0 0 0.135 0 0 0.14 0 0 0.145 0 0 0.15 0 0 0.155 0 0 0.16 0 0 0.165 0 0 0.17 0 0 0.175 0 0 0.18 0 0 0.185 0 0 0.19 0 0 0.195 0 0 0.2 0 0 0.205 0 0 0.21 0 0 0.215 0 0 0.22 0 0 0.225 0 0 0.23 0 0 0.235 0 0 0.24 0 0 0.245 0 0 0.25 0 0 0.255 0 0 0.26 0 0 0.265 0 0 0.27 0 0 0.275 0 0 0.28 0 0 0.285 0 0 0.29 0 0 0.295 0 0 0.3 0 0 0.305 0 0 0.31 0 0 0.315 0 0 0.32 0 0 0.325 0 0 0.33 0 0 0.335 0 0 0.34 0 0 0.345 0 0 0.35 0 0 0.355 0 0 0.36 0 0 0.365 0 0 0.37 0 0 0.375 0 0 0.38 0 0 0.385 0 0 0.39 0 0 0.395 0 0 0.4 0 0 0.405 0 0 0.41 0 0 0.415 0 0 0.42 0 0 0.425 0 0 0.43 0 0 0.435 0 0 0.44 0 0 0.445 0 0 0.45 0 0 0.455 0 0 0.46 0 0 0.465 0 0 0.47 0 0 0.475 0 0 0.48 0 0 0.485 0 0 0.49 0 0 0.495 0 0 0.5 0 0 0.505 0 0 0.51 0 0 0.515 0 0 0.52 0 0 0.525 0 0 0.53 0 0 0.535 0 0 0.54 0 0 0.545 0 0 0.55 0 0 0.555 0 0 0.56 0 0 0.565 0 0 0.57 0 0 0.575 0 0 0.58 0 0 0.585 0 0 0.59 0 0 0.595 0 0 0.6 0 0 0.605 0 0 0.61 0 0 0.615 0 0 0.62 0 0 0.625 0 0 0.63 0 0 0.635 0 0 0.64 0 0 0.645 0 0 0.65 0 0 0.655 0 0 0.66 0 0 0.665 0 0 0.67 0 0 0.675 0 0 0.68 0 0 0.685 0 0 0.69 0 0 0.695 0 0 0.7 0 0 0.705 0 0 0.71 0 0 0.715 0 0 0.72 0 0 0.725 0 0 0.73 0 0 0.735 0 0 0.74 0 0 0.745 0 0 0.75 0 0 0.755 0 0 0.76 0 0 0.765 0 0 0.77 0 0 0.775 0 0 0.78 0 0 0.785 0 0 0.79 0 0 0.795 0 0 0.8 0 0 0.805 0 0 0.81 0 0 0.815 0 0 0.82 0 0 0.825 0 0 0.83 0 0 0.835 0 0 0.84 0 0 0.845 0 0 0.85 0 0 0.855 0 0 0.86 0 0 0.865 0 0 0.87 0 0 0.875 0 0 0.88 0 0 0.885 0 0 0.89 0 0 0.895 0 0 0.9 0 0 0.905 0 0 0.91 0 0 0.915 0 0 0.92 0 0 0.925 0 0 0.93 0 0 0.935 0 0 0.94 0 0 0.945 0 0 0.95 0 0 0.955 0 0 0.96 0 0 0.965 0 0 0.97 0 0 0.975 0 0 0.98 0 0 0.985 0 0 0.99 0 0 0.995 0 0 1 0 0 0 0.02 0 0.005 0.02 0 0.01 0.02 0 0.015 0.02 0 0.02 0.02 0 0.025 0.02 0 0.03 0.02 0 0.035 0.02 0 0.04 0.02 0 0.045 0.02 0 0.05 0.02 0 0.055 0.02 0 0.06 0.02 0 0.065 0.02 0 0.07 0.02 0 0.075 0.02 0 0.08 0.02 0 0.085 0.02 0 0.09 0.02 0 0.095 0.02 0 0.1 0.02 0 0.105 0.02 0 0.11 0.02 0 0.115 0.02 0 0.12 0.02 0 0.125 0.02 0 0.13 0.02 0 0.135 0.02 0 0.14 0.02 0 0.145 0.02 0 0.15 0.02 0 0.155 0.02 0 0.16 0.02 0 0.165 0.02 0 0.17 0.02 0 0.175 0.02 0 0.18 0.02 0 0.185 0.02 0 0.19 0.02 0 0.195 0.02 0 0.2 0.02 0 0.205 0.02 0 0.21 0.02 0 0.215 0.02 0 0.22 0.02 0 0.225 0.02 0 0.23 0.02 0 0.235 0.02 0 0.24 0.02 0 0.245 0.02 0 0.25 0.02 0 0.255 0.02 0 0.26 0.02 0 0.265 0.02 0 0.27 0.02 0 0.275 0.02 0 0.28 0.02 0 0.285 0.02 0 0.29 0.02 0 0.295 0.02 0 0.3 0.02 0 0.305 0.02 0 0.31 0.02 0 0.315 0.02 0 0.32 0.02 0 0.325 0.02 0 0.33 0.02 0 0.335 0.02 0 0.34 0.02 0 0.345 0.02 0 0.35 0.02 0 0.355 0.02 0 0.36 0.02 0 0.365 0.02 0 0.37 0.02 0 0.375 0.02 0 0.38 0.02 0 0.385 0.02 0 0.39 0.02 0 0.395 0.02 0 0.4 0.02 0 0.405 0.02 0 0.41 0.02 0 0.415 0.02 0 0.42 0.02 0 0.425 0.02 0 0.43 0.02 0 0.435 0.02 0 0.44 0.02 0 0.445 0.02 0 0.45 0.02 0 0.455 0.02 0 0.46 0.02 0 0.465 0.02 0 0.47 0.02 0 0.475 0.02 0 0.48 0.02 0 0.485 0.02 0 0.49 0.02 0 0.495 0.02 0 0.5 0.02 0 0.505 0.02 0 0.51 0.02 0 0.515 0.02 0 0.52 0.02 0 0.525 0.02 0 0.53 0.02 0 0.535 0.02 0 0.54 0.02 0 0.545 0.02 0 0.55 0.02 0 0.555 0.02 0 0.56 0.02 0 0.565 0.02 0 0.57 0.02 0 0.575 0.02 0 0.58 0.02 0 0.585 0.02 0 0.59 0.02 0 0.595 0.02 0 0.6 0.02 0 0.605 0.02 0 0.61 0.02 0 0.615 0.02 0 0.62 0.02 0 0.625 0.02 0 0.63 0.02 0 0.635 0.02 0 0.64 0.02 0 0.645 0.02 0 0.65 0.02 0 0.655 0.02 0 0.66 0.02 0 0.665 0.02 0 0.67 0.02 0 0.675 0.02 0 0.68 0.02 0 0.685 0.02 0 0.69 0.02 0 0.695 0.02 0 0.7 0.02 0 0.705 0.02 0 0.71 0.02 0 0.715 0.02 0 0.72 0.02 0 0.725 0.02 0 0.73 0.02 0 0.735 0.02 0 0.74 0.02 0 0.745 0.02 0 0.75 0.02 0 0.755 0.02 0 0.76 0.02 0 0.765 0.02 0 0.77 0.02 0 0.775 0.02 0 0.78 0.02 0 0.785 0.02 0 0.79 0.02 0 0.795 0.02 0 0.8 0.02 0 0.805 0.02 0 0.81 0.02 0 0.815 0.02 0 0.82 0.02 0 0.825 0.02 0 0.83 0.02 0 0.835 0.02 0 0.84 0.02 0 0.845 0.02 0 0.85 0.02 0 0.855 0.02 0 0.86 0.02 0 0.865 0.02 0 0.87 0.02 0 0.875 0.02 0 0.88 0.02 0 0.885 0.02 0 0.89 0.02 0 0.895 0.02 0 0.9 0.02 0 0.905 0.02 0 0.91 0.02 0 0.915 0.02 0 0.92 0.02 0 0.925 0.02 0 0.93 0.02 0 0.935 0.02 0 0.94 0.02 0 0.945 0.02 0 0.95 0.02 0 0.955 0.02 0 0.96 0.02 0 0.965 0.02 0 0.97 0.02 0 0.975 0.02 0 0.98 0.02 0 0.985 0.02 0 0.99 0.02 0 0.995 0.02 0 1 0.02 0 0 0.04 0 0.005 0.04 0 0.01 0.04 0 0.015 0.04 0 0.02 0.04 0 0.025 0.04 0 0.03 0.04 0 0.035 0.04 0 0.04 0.04 0 0.045 0.04 0 0.05 0.04 0 0.055 0.04 0 0.06 0.04 0 0.065 0.04 0 0.07 0.04 0 0.075 0.04 0 0.08 0.04 0 0.085 0.04 0 0.09 0.04 0 0.095 0.04 0 0.1 0.04 0 0.105 0.04 0 0.11 0.04 0 0.115 0.04 0 0.12 0.04 0 0.125 0.04 0 0.13 0.04 0 0.135 0.04 0 0.14 0.04 0 0.145 0.04 0 0.15 0.04 0 0.155 0.04 0 0.16 0.04 0 0.165 0.04 0 0.17 0.04 0 0.175 0.04 0 0.18 0.04 0 0.185 0.04 0 0.19 0.04 0 0.195 0.04 0 0.2 0.04 0 0.205 0.04 0 0.21 0.04 0 0.215 0.04 0 0.22 0.04 0 0.225 0.04 0 0.23 0.04 0 0.235 0.04 0 0.24 0.04 0 0.245 0.04 0 0.25 0.04 0 0.255 0.04 0 0.26 0.04 0 0.265 0.04 0 0.27 0.04 0 0.275 0.04 0 0.28 0.04 0 0.285 0.04 0 0.29 0.04 0 0.295 0.04 0 0.3 0.04 0 0.305 0.04 0 0.31 0.04 0 0.315 0.04 0 0.32 0.04 0 0.325 0.04 0 0.33 0.04 0 0.335 0.04 0 0.34 0.04 0 0.345 0.04 0 0.35 0.04 0 0.355 0.04 0 0.36 0.04 0 0.365 0.04 0 0.37 0.04 0 0.375 0.04 0 0.38 0.04 0 0.385 0.04 0 0.39 0.04 0 0.395 0.04 0 0.4 0.04 0 0.405 0.04 0 0.41 0.04 0 0.415 0.04 0 0.42 0.04 0 0.425 0.04 0 0.43 0.04 0 0.435 0.04 0 0.44 0.04 0 0.445 0.04 0 0.45 0.04 0 0.455 0.04 0 0.46 0.04 0 0.465 0.04 0 0.47 0.04 0 0.475 0.04 0 0.48 0.04 0 0.485 0.04 0 0.49 0.04 0 0.495 0.04 0 0.5 0.04 0 0.505 0.04 0 0.51 0.04 0 0.515 0.04 0 0.52 0.04 0 0.525 0.04 0 0.53 0.04 0 0.535 0.04 0 0.54 0.04 0 0.545 0.04 0 0.55 0.04 0 0.555 0.04 0 0.56 0.04 0 0.565 0.04 0 0.57 0.04 0 0.575 0.04 0 0.58 0.04 0 0.585 0.04 0 0.59 0.04 0 0.595 0.04 0 0.6 0.04 0 0.605 0.04 0 0.61 0.04 0 0.615 0.04 0 0.62 0.04 0 0.625 0.04 0 0.63 0.04 0 0.635 0.04 0 0.64 0.04 0 0.645 0.04 0 0.65 0.04 0 0.655 0.04 0 0.66 0.04 0 0.665 0.04 0 0.67 0.04 0 0.675 0.04 0 0.68 0.04 0 0.685 0.04 0 0.69 0.04 0 0.695 0.04 0 0.7 0.04 0 0.705 0.04 0 0.71 0.04 0 0.715 0.04 0 0.72 0.04 0 0.725 0.04 0 0.73 0.04 0 0.735 0.04 0 0.74 0.04 0 0.745 0.04 0 0.75 0.04 0 0.755 0.04 0 0.76 0.04 0 0.765 0.04 0 0.77 0.04 0 0.775 0.04 0 0.78 0.04 0 0.785 0.04 0 0.79 0.04 0 0.795 0.04 0 0.8 0.04 0 0.805 0.04 0 0.81 0.04 0 0.815 0.04 0 0.82 0.04 0 0.825 0.04 0 0.83 0.04 0 0.835 0.04 0 0.84 0.04 0 0.845 0.04 0 0.85 0.04 0 0.855 0.04 0 0.86 0.04 0 0.865 0.04 0 0.87 0.04 0 0.875 0.04 0 0.88 0.04 0 0.885 0.04 0 0.89 0.04 0 0.895 0.04 0 0.9 0.04 0 0.905 0.04 0 0.91 0.04 0 0.915 0.04 0 0.92 0.04 0 0.925 0.04 0 0.93 0.04 0 0.935 0.04 0 0.94 0.04 0 0.945 0.04 0 0.95 0.04 0 0.955 0.04 0 0.96 0.04 0 0.965 0.04 0 0.97 0.04 0 0.975 0.04 0 0.98 0.04 0 0.985 0.04 0 0.99 0.04 0 0.995 0.04 0 1 0.04 0 0 0.06 0 0.005 0.06 0 0.01 0.06 0 0.015 0.06 0 0.02 0.06 0 0.025 0.06 0 0.03 0.06 0 0.035 0.06 0 0.04 0.06 0 0.045 0.06 0 0.05 0.06 0 0.055 0.06 0 0.06 0.06 0 0.065 0.06 0 0.07 0.06 0 0.075 0.06 0 0.08 0.06 0 0.085 0.06 0 0.09 0.06 0 0.095 0.06 0 0.1 0.06 0 0.105 0.06 0 0.11 0.06 0 0.115 0.06 0 0.12 0.06 0 0.125 0.06 0 0.13 0.06 0 0.135 0.06 0 0.14 0.06 0 0.145 0.06 0 0.15 0.06 0 0.155 0.06 0 0.16 0.06 0 0.165 0.06 0 0.17 0.06 0 0.175 0.06 0 0.18 0.06 0 0.185 0.06 0 0.19 0.06 0 0.195 0.06 0 0.2 0.06 0 0.205 0.06 0 0.21 0.06 0 0.215 0.06 0 0.22 0.06 0 0.225 0.06 0 0.23 0.06 0 0.235 0.06 0 0.24 0.06 0 0.245 0.06 0 0.25 0.06 0 0.255 0.06 0 0.26 0.06 0 0.265 0.06 0 0.27 0.06 0 0.275 0.06 0 0.28 0.06 0 0.285 0.06 0 0.29 0.06 0 0.295 0.06 0 0.3 0.06 0 0.305 0.06 0 0.31 0.06 0 0.315 0.06 0 0.32 0.06 0 0.325 0.06 0 0.33 0.06 0 0.335 0.06 0 0.34 0.06 0 0.345 0.06 0 0.35 0.06 0 0.355 0.06 0 0.36 0.06 0 0.365 0.06 0 0.37 0.06 0 0.375 0.06 0 0.38 0.06 0 0.385 0.06 0 0.39 0.06 0 0.395 0.06 0 0.4 0.06 0 0.405 0.06 0 0.41 0.06 0 0.415 0.06 0 0.42 0.06 0 0.425 0.06 0 0.43 0.06 0 0.435 0.06 0 0.44 0.06 0 0.445 0.06 0 0.45 0.06 0 0.455 0.06 0 0.46 0.06 0 0.465 0.06 0 0.47 0.06 0 0.475 0.06 0 0.48 0.06 0 0.485 0.06 0 0.49 0.06 0 0.495 0.06 0 0.5 0.06 0 0.505 0.06 0 0.51 0.06 0 0.515 0.06 0 0.52 0.06 0 0.525 0.06 0 0.53 0.06 0 0.535 0.06 0 0.54 0.06 0 0.545 0.06 0 0.55 0.06 0 0.555 0.06 0 0.56 0.06 0 0.565 0.06 0 0.57 0.06 0 0.575 0.06 0 0.58 0.06 0 0.585 0.06 0 0.59 0.06 0 0.595 0.06 0 0.6 0.06 0 0.605 0.06 0 0.61 0.06 0 0.615 0.06 0 0.62 0.06 0 0.625 0.06 0 0.63 0.06 0 0.635 0.06 0 0.64 0.06 0 0.645 0.06 0 0.65 0.06 0 0.655 0.06 0 0.66 0.06 0 0.665 0.06 0 0.67 0.06 0 0.675 0.06 0 0.68 0.06 0 0.685 0.06 0 0.69 0.06 0 0.695 0.06 0 0.7 0.06 0 0.705 0.06 0 0.71 0.06 0 0.715 0.06 0 0.72 0.06 0 0.725 0.06 0 0.73 0.06 0 0.735 0.06 0 0.74 0.06 0 0.745 0.06 0 0.75 0.06 0 0.755 0.06 0 0.76 0.06 0 0.765 0.06 0 0.77 0.06 0 0.775 0.06 0 0.78 0.06 0 0.785 0.06 0 0.79 0.06 0 0.795 0.06 0 0.8 0.06 0 0.805 0.06 0 0.81 0.06 0 0.815 0.06 0 0.82 0.06 0 0.825 0.06 0 0.83 0.06 0 0.835 0.06 0 0.84 0.06 0 0.845 0.06 0 0.85 0.06 0 0.855 0.06 0 0.86 0.06 0 0.865 0.06 0 0.87 0.06 0 0.875 0.06 0 0.88 0.06 0 0.885 0.06 0 0.89 0.06 0 0.895 0.06 0 0.9 0.06 0 0.905 0.06 0 0.91 0.06 0 0.915 0.06 0 0.92 0.06 0 0.925 0.06 0 0.93 0.06 0 0.935 0.06 0 0.94 0.06 0 0.945 0.06 0 0.95 0.06 0 0.955 0.06 0 0.96 0.06 0 0.965 0.06 0 0.97 0.06 0 0.975 0.06 0 0.98 0.06 0 0.985 0.06 0 0.99 0.06 0 0.995 0.06 0 1 0.06 0 0 0.08 0 0.005 0.08 0 0.01 0.08 0 0.015 0.08 0 0.02 0.08 0 0.025 0.08 0 0.03 0.08 0 0.035 0.08 0 0.04 0.08 0 0.045 0.08 0 0.05 0.08 0 0.055 0.08 0 0.06 0.08 0 0.065 0.08 0 0.07 0.08 0 0.075 0.08 0 0.08 0.08 0 0.085 0.08 0 0.09 0.08 0 0.095 0.08 0 0.1 0.08 0 0.105 0.08 0 0.11 0.08 0 0.115 0.08 0 0.12 0.08 0 0.125 0.08 0 0.13 0.08 0 0.135 0.08 0 0.14 0.08 0 0.145 0.08 0 0.15 0.08 0 0.155 0.08 0 0.16 0.08 0 0.165 0.08 0
[...]
			<PointData Scalars="VitesseX">
				<DataArray Name="VitesseX" type="Float32" format="ascii">
 0 -1.34575e-14 -2.176e-14 -1.12896e-14 -4.64952e-14 -2.63188e-14 1.41728e-14 -8.48684e-14 -5.31133e-14 -6.62739e-14 -1.30234e-13 4.52444e-14 -8.2636e-14 3.26807e-14 -1.76109e-13 -8.31422e-14 -1.43308e-13 -2.12367e-13 -4.20076e-15 -9.51933e-14 -3.43974e-15 8.54072e-14 -2.40952e-14 1.82424e-13 -9.08932e-14 -4.02256e-14 7.84846e-14 -2.23422e-13 -6.00601e-14 -6.81416e-14 -7.35512e-14 -6.84307e-14 -9.94536e-14 -2.49845e-14 -1.93309e-13 -2.17512e-13 -1.14597e-13 5.53904e-14 -1.05105e-13 -1.64593e-13 -3.32045e-13 9.86315e-14 -3.33053e-13 -1.94907e-13 -8.42185e-14 -4.44603e-13 -1.93351e-13 -1.26672e-13 3.76303e-13 -2.63001e-13 -3.03248e-13 6.29267e-13 1.66989e-13 -5.98854e-13 -1.87146e-13 1.03587e-13 -3.8027e-13 -1.84519e-14 2.07193e-13 -3.47924e-13 2.79498e-13 3.65134e-15 -1.1237e-13 -1.05063e-13 1.21844e-13 -1.74846e-14 1.18695e-13 4.44017e-12 4.81602e-11 4.51492e-10 3.8668e-09 3.0401e-08 2.18321e-07 1.42349e-06 8.36823e-06 4.39832e-05 0.000204574 0.000831389 0.00290722 0.0086016 0.0212395 0.0436677 0.0760099 0.115823 0.160339 0.207683 0.256826 0.307191 0.358503 0.410803 0.464093 0.513711 0.562317 0.608099 0.654236 0.697371 0.739592 0.780821 0.816696 0.852066 0.881705 0.901652 0.920062 0.92912 0.931197 0.933377 0.933822 0.93356 0.932818 0.931803 0.930814 0.929907 0.92885 0.927114 0.930748 0.931916 0.928008 0.927398 0.927775 0.928323 0.928118 0.926817 0.923894 0.918385 0.907251 0.885141 0.844647 0.777509 0.678209 0.549306 0.405367 0.267737 0.155413 0.0781174 0.0342664 0.0135891 0.00507763 0.00183663 0.000651122 0.000227256 7.81729e-05 2.64991e-05 8.8474e-06 2.90771e-06 9.40145e-07 2.98909e-07 9.34121e-08 2.86853e-08 8.65261e-09 2.56395e-09 7.45508e-10 2.12337e-10 6.00994e-11 1.59934e-11 4.63935e-12 5.37606e-13 -1.72452e-13 -1.41163e-13 4.65415e-13 4.00722e-13 -9.90328e-13 -4.55866e-13 -6.85838e-13 5.56205e-13 4.97932e-13 -2.3752e-13 -1.09074e-12 1.66117e-13 -3.93311e-14 7.43222e-13 -3.8261e-13 6.90673e-13 -2.46328e-13 -1.05608e-12 3.85461e-13 -1.2597e-13 4.25001e-13 -6.35949e-13 -9.7766e-13 1.11655e-13 3.35013e-13 -9.16558e-14 -2.29595e-13 -4.2642e-14 -2.38583e-13 9.18653e-13 -1.79654e-13 -5.78443e-13 -1.14792e-12 1.62848e-13 -8.20782e-13 -4.82368e-13 3.64738e-13 -7.00722e-13 -1.31579e-13 5.93267e-14 -7.7046e-13 5.76348e-13 1.26434e-13 6.34557e-13 0 0 -1.43826e-15 -3.25787e-15 -1.3594e-14 -1.87321e-14 -6.79126e-14 -6.67173e-14 -4.02065e-16 -3.089e-14 -6.46856e-15 1.49169e-14 -1.35677e-13 2.73225e-15 -1.59543e-13 1.54766e-15 -1.48908e-13 -4.94747e-14 -5.30165e-14 -1.49694e-13 -3.03565e-15 -1.50928e-13 -2.19177e-14 1.33192e-13 -1.96373e-13 1.40687e-13 5.37977e-14 -3.09429e-13 5.68977e-14 -1.99614e-13 -3.21016e-14 -7.61234e-14 4.65017e-15 -7.14575e-14 -1.25766e-13 -9.16707e-14 -1.53774e-13 -3.9606e-14 -1.84339e-13 -4.33203e-14 -1.38366e-13 -9.76463e-14 -4.28964e-13 5.77681e-14 -1.82031e-13 -3.64146e-13 1.46502e-14 2.31515e-14 -4.21145e-14 -1.68128e-13 3.76486e-13 3.71619e-13 -3.55508e-13 -2.4393e-13 5.03412e-13 -3.52826e-13 -4.3999e-13 1.18806e-13 -5.82847e-13 -2.83843e-13 3.72572e-13 -3.04003e-13 7.06521e-14 9.24889e-14 2.14578e-14 -3.1712e-13 -9.46861e-14 3.80244e-13 4.88232e-12 4.88233e-11 4.5132e-10 3.86663e-09 3.04012e-08 2.18321e-07 1.42349e-06 8.36823e-06 4.39832e-05 0.000204574 0.000831389 0.00290722 0.0086016 0.0212395 0.0436677 0.0760099 0.115823 0.160339 0.207683 0.256826 0.307191 0.358503 0.410803 0.464093 0.513711 0.562317 0.608099 0.654236 0.697371 0.739592 0.780821 0.816696 0.852066 0.881705 0.901652 0.920062 0.92912 0.931197 0.933377 0.933822 0.93356 0.932818 0.931803 0.930814 0.929907 0.92885 0.927114 0.930748 0.931916 0.928008 0.927398 0.927775 0.928323 0.928118 0.926817 0.923894 0.918385 0.907251 0.885141 0.844647 0.777509 0.678209 0.549306 0.405367 0.267737 0.155413 0.0781174 0.0342664 0.0135891 0.00507763 0.00183663 0.000651122 0.000227256 7.81729e-05 2.64991e-05 8.8474e-06 2.90771e-06 9.40145e-07 2.98908e-07 9.34129e-08 2.86845e-08 8.65325e-09 2.56323e-09 7.45748e-10 2.13208e-10 5.91572e-11 1.62539e-11 3.88157e-12 1.01999e-12 3.98123e-13 -2.98272e-13 -4.91539e-13 -4.18706e-13 2.58878e-13 -1.75424e-13 -2.17833e-13 -6.33764e-13 -3.00243e-13 -1.871e-13 1.92556e-13 3.60324e-13 3.10334e-13 -5.45272e-13 -8.2108e-14 6.02095e-14 1.63174e-13 1.23463e-13 -6.00271e-13 -8.30471e-15 -4.97541e-13 -1.20173e-13 5.54939e-13 -5.9032e-13 -2.78341e-13 7.54026e-14 -6.56938e-14 -6.11907e-15 3.33464e-13 -2.51536e-13 -1.35673e-13 -3.7613e-13 4.72028e-13 -8.79206e-13 -1.45649e-13 -3.38934e-13 -5.23594e-13 6.71096e-13 -6.85841e-13 -3.2383e-13 1.581e-13 1.91857e-13 -3.73353e-14 -1.98828e-13 0 0 -1.30787e-14 -1.73905e-14 -1.43247e-14 -3.75608e-14 -2.30443e-14 -2.40397e-14 -7.1908e-14 -1.20159e-15 2.06184e-14 -5.84516e-14 9.14936e-14 -7.44184e-14 -3.07947e-14 -1.62383e-13 2.16932e-14 -1.08166e-13 -1.56926e-13 -2.61831e-14 -1.60682e-13 -6.18455e-14 -4.70472e-14 -1.42848e-13 -3.32922e-14 -4.00066e-14 -8.77242e-14 6.79742e-14 -9.47575e-14 -5.15183e-14 -1.39326e-13 3.79316e-14 -4.39556e-14 -9.40268e-14 -3.37291e-15 -9.5609e-14 -1.67678e-13 -1.41496e-13 -7.13353e-14 -1.92815e-13 -1.7005e-13 -6.48264e-14 -4.22818e-14 4.30053e-14 -6.99485e-14 -2.67085e-14 -2.98847e-13 -1.70155e-13 -3.68699e-14 2.25707e-13 2.08273e-13 -6.44791e-14 6.12559e-14 1.75814e-13 -1.44566e-13 -2.00093e-13 -1.36275e-13 -4.8096e-13 -2.66528e-13 1.58245e-13 -2.55495e-13 -1.04881e-13 -1.19355e-13 -3.56254e-14 -4.51846e-14 -5.31959e-14 -1.0481e-13 8.21071e-13 5.11177e-12 4.87009e-11 4.51616e-10 3.86642e-09 3.04013e-08 2.18321e-07 1.42349e-06 8.36823e-06 4.39832e-05 0.000204574 0.000831389 0.00290722 0.0086016 0.0212395 0.0436677 0.0760099 0.115823 0.160339 0.207683 0.256826 0.307191 0.358503 0.410803 0.464093 0.513711 0.562317 0.608099 0.654236 0.697371 0.739592 0.780821 0.816696 0.852066 0.881705 0.901652 0.920062 0.92912 0.931197 0.933377 0.933822 0.93356 0.932818 0.931803 0.930814 0.929907 0.92885 0.927114 0.930748 0.931916 0.928008 0.927398 0.927775 0.928323 0.928118 0.926817 0.923894 0.918385 0.907251 0.885141 0.844647 0.777509 0.678209 0.549306 0.405367 0.267737 0.155413 0.0781174 0.0342664 0.0135891 0.00507763 0.00183663 0.000651122 0.000227256 7.81729e-05 2.64991e-05 8.8474e-06 2.90771e-06 9.40145e-07 2.98908e-07 9.34124e-08 2.86851e-08 8.65289e-09 2.56371e-09 7.45704e-10 2.12557e-10 5.95243e-11 1.60273e-11 4.26946e-12 4.84684e-13 3.76046e-13 -1.74399e-13 -5.74598e-13 -2.25373e-13 -5.73423e-13 5.57498e-14 -3.11004e-13 -5.91847e-14 -3.0443e-13 -8.58793e-13 2.53431e-13 3.10076e-13 -2.48908e-13 -1.48611e-13 -4.86426e-14 3.6332e-13 2.42337e-13 -1.24791e-13 -5.335e-13 -6.83039e-13 -3.21839e-13 3.18172e-14 -2.84415e-15 3.14422e-13 1.38486e-13 3.37998e-14 -2.11491e-13 -2.36785e-13 7.03695e-14 2.20423e-13 -1.0662e-13 1.63345e-13 -4.20159e-13 4.90334e-13 5.61532e-14 -3.37296e-13 -2.87753e-13 -1.20393e-12 7.22482e-13 3.90292e-13 -2.11046e-13 1.72363e-13 -2.36204e-13 2.44211e-13 0 0 -1.33739e-14 -1.83643e-14 -5.83288e-15 -4.50731e-14 1.00905e-14 5.36061e-14 3.98958e-14 -2.2495e-14 -5.81168e-14 -4.44045e-14 2.90066e-14 -1.62082e-14 -1.49711e-14 -2.11419e-13 -6.13603e-14 -9.25336e-14 -1.38905e-13 -1.2191e-13 -2.14178e-13 -4.66084e-14 -3.17501e-15 -5.22167e-14 -1.90894e-13 -3.91107e-14 -6.67389e-14 1.25503e-14 -7.74336e-14 8.62615e-14 4.64518e-14 -5.44931e-14 -4.94056e-14 1.09284e-15 -6.12853e-14 -6.51867e-14 -1.98414e-14 -2.89868e-13 -8.30533e-14 -1.23808e-14 -9.17522e-14 -1.64036e-13 1.53235e-13 6.72376e-14 -8.38624e-14 3.65424e-14 -2.90439e-13 -2.42556e-13 -5.494e-13 3.28152e-13 -3.03123e-13 -2.14749e-13 4.4341e-13 1.24714e-13 -1.96192e-13 -2.54133e-13 1.75311e-14 -3.69207e-13 -1.6032e-13 -1.85526e-13 1.94146e-14 1.87113e-13 -2.35119e-14 4.33996e-14 -1.27606e-13 1.08383e-13 -2.35622e-14 4.42879e-13 4.95005e-12 4.88877e-11 4.51625e-10 3.86644e-09 3.0401e-08 2.18321e-07 1.42349e-06 8.36823e-06 4.39832e-05 0.000204574 0.000831389 0.00290722 0.0086016 0.0212395 0.0436677 0.0760099 0.115823 0.160339 0.207683 0.256826 0.307191 0.358503 0.410803 0.464093 0.513711 0.562317 0.608099 0.654236 0.697371 0.739592 0.780821 0.816696 0.852066 0.881705 0.901652 0.920062 0.92912 0.931197 0.933377 0.933822 0.93356 0.932818 0.931803 0.930814 0.929907 0.92885 0.927114 0.930748 0.931916 0.928008 0.927398 0.927775 0.928323 0.928118 0.926817 0.923894 0.918385 0.907251 0.885141 0.844647 0.777509 0.678209 0.549306 0.405367 0.267737 0.155413 0.0781174 0.0342664 0.0135891 0.00507763 0.00183663 0.000651122 0.000227256 7.81729e-05 2.64991e-05 8.8474e-06 2.90771e-06 9.40145e-07 2.98908e-07 9.34122e-08 2.86849e-08 8.65276e-09 2.56379e-09 7.45715e-10 2.1288e-10 5.96036e-11 1.61538e-11 4.16212e-12 9.59646e-13 -2.6849e-13 2.19179e-13 -6.17242e-14 -1.73612e-13 -2.01452e-13 -9.71309e-14 -1.58421e-13 -4.75918e-13 -2.28802e-13 -1.28978e-13 -2.60726e-13 -3.89899e-13 -6.09832e-14 3.53099e-13 4.83225e-14 -2.72141e-13 2.41563e-13 -6.92727e-13 -3.39405e-13 -8.74173e-13 3.28456e-13 -3.65116e-13 2.38676e-13 4.65062e-13 -9.48984e-14 1.96458e-13 6.10634e-14 -4.21595e-13 -7.45334e-13 -2.38407e-13 8.10624e-13 7.56384e-13 -5.19111e-13 -5.76926e-13 1.8178e-13 -4.45572e-13 -2.21809e-13 -1.66539e-13 6.2017e-14 -6.05909e-13 -3.08181e-13 -2.27851e-13 6.22157e-13 2.34335e-13 0 0 4.28277e-15 -5.67135e-15 5.55071e-15 2.00397e-14 -2.37529e-14 4.42427e-14 1.17119e-13 -7.751e-15 -2.00113e-14 4.42081e-14 -1.65068e-13 4.96012e-14 -1.98912e-13 -9.05899e-14 -2.26104e-13 -9.74243e-14 -8.80893e-14 -1.33719e-13 -6.97508e-14 -1.52568e-13 -3.48531e-14 1.05459e-13 -3.04456e-13 8.66928e-14 1.26911e-13 -2.48042e-13 5.29292e-14 -2.36955e-13 1.42684e-13 -5.60638e-14 4.6044e-14 6.11276e-14 -9.32927e-14 2.98151e-14 -8.61847e-15 -2.96501e-14 -5.19138e-14 5.15189e-14 -1.01031e-13 -2.13306e-13 -4.35272e-13 -9.03303e-15 -1.91301e-13 -2.99919e-13 7.77433e-14 -1.05647e-13 -2.34745e-13 5.31471e-14 9.87476e-15 3.48853e-13 -3.96495e-13 -3.20282e-13 4.49144e-13 -3.63572e-13 -4.13377e-13 4.49231e-14 -6.12724e-13 -4.33015e-13 6.51668e-13 -8.34788e-14 2.54397e-13 2.01793e-13 4.48168e-14 -2.54615e-13 -7.40231e-14 2.13492e-13 4.83718e-12 4.91651e-11 4.51681e-10 3.86682e-09 3.04009e-08 2.18322e-07 1.42349e-06 8.36823e-06 4.39832e-05 0.000204574 0.000831389 0.00290722 0.0086016 0.0212395 0.0436677 0.0760099 0.115823 0.160339 0.207683 0.256826 0.307191 0.358503 0.410803 0.464093 0.513711 0.562317 0.608099 0.654236 0.697371 0.739592 0.780821 0.816696 0.852066 0.881705 0.901652 0.920062 0.92912 0.931197 0.933377 0.933822 0.93356 0.932818 0.931803 0.930814 0.929907 0.92885 0.927114 0.930748 0.931916 0.928008 0.927398 0.927775 0.928323 0.928118 0.926817 0.923894 0.918385 0.907251 0.885141 0.844647 0.777509 0.678209 0.549306 0.405367 0.267737 0.155413 0.0781174 0.0342664 0.0135891 0.00507763 0.00183663 0.000651122 0.000227256 7.81729e-05 2.64991e-05 8.8474e-06 2.90771e-06 9.40145e-07 2.98908e-07 9.34126e-08 2.86844e-08 8.6533e-09 2.5633e-09 7.45831e-10 2.13047e-10 5.94899e-11 1.61135e-11 3.8506e-12 1.14377e-12 -2.3434e-13 7.34204e-13 4.80421e-13 -1.67303e-14 6.53361e-13 -3.88364e-13 -1.14196e-14 -7.49957e-13 -5.49435e-13 2.14419e-13 -4.52402e-14 -4.15567e-13 2.51537e-13 -6.43735e-13 8.17484e-14 -2.65049e-13 9.06903e-14 -2.69389e-13 -9.06638e-13 -2.45008e-13 -4.3362e-13 -2.62539e-13 8.26387e-13 -1.31714e-13 -5.20469e-13 2.01733e-13 4.55805e-13 -2.3592e-13 -2.17275e-13 -5.50042e-13 3.01417e-13 -9.47711e-14 6.75449e-13 -1.38106e-12 -2.09203e-13 -4.10353e-13 -3.8542e-13 1.34312e-12 -7.68427e-13 -7.61108e-13 4.07354e-13 -1.77005e-13 4.45241e-13 -6.7347e-13 0 0 -1.42484e-15 -2.46394e-14 1.00162e-14 4.60731e-14 -4.26909e-15 8.08012e-14 -7.34334e-14 3.57515e-14 6.4111e-14 -9.97464e-14 1.11435e-13 -1.05318e-13 -7.77058e-14 -2.62312e-13 -7.14269e-14 -2.70472e-13 -3.18554e-13 2.19203e-13 -1.21632e-13 -3.71934e-14 -2.8208e-14 -2.60822e-13 2.81463e-13 -2.00673e-13 6.40314e-14 3.12107e-13 -2.66007e-13 -4.10303e-13 -9.01246e-14 1.51417e-13 2.52571e-14 -2.45226e-14 1.55788e-13 -1.11821e-14 -2.22875e-13 2.02057e-13 3.43676e-13 -2.76295e-13 -2.46518e-13 -3.64945e-13 -3.05018e-13 -5.1512e-13 -1.85619e-13 -8.2266e-14 -3.35232e-13 -3.06146e-13 5.13127e-13 6.13964e-13 2.65695e-14 -4.82415e-14 -2.17015e-13 1.16484e-13 -6.04136e-13 -1.00559e-13 -1.50799e-13 -7.51543e-13 -2.90623e-13 5.96392e-13 -3.39552e-13 1.36559e-13 1.79455e-13 -5.18129e-14 1.06498e-13 -7.63039e-14 -1.38655e-13 5.41574e-13 4.67333e-12 4.84703e-11 4.52197e-10 3.86715e-09 3.0401e-08 2.18321e-07 1.42349e-06 8.36823e-06 4.39832e-05 0.000204574 0.000831389 0.00290722 0.0086016 0.0212395 0.0436677 0.0760099 0.115823 0.160339 0.207683 0.256826 0.307191 0.358503 0.410803 0.464093 0.513711 0.562317 0.608099 0.654236 0.697371 0.739592 0.780821 0.816696 0.852066 0.881705 0.901652 0.920062 0.92912 0.931197 0.933377 0.933822 0.93356 0.932818 0.931803 0.930814 0.929907 0.92885 0.927114 0.930748 0.931916 0.928008 0.927398 0.927775 0.928323 0.928118 0.926817 0.923894 0.918385 0.907251 0.885141 0.844647 0.777509 0.678209 0.549306 0.405367 0.267737 0.155413 0.0781174 0.0342664 0.0135891 0.00507763 0.00183663 0.000651122 0.000227256 7.81729e-05 2.64991e-05 8.8474e-06 2.90771e-06 9.40145e-07 2.98908e-07 9.34119e-08 2.86856e-08 8.65296e-09 2.56392e-09 7.45651e-10 2.11368e-10 6.06064e-11 1.54594e-11 4.79208e-12 -1.64759e-13 -1.48306e-13 1.13663e-12 1.38359e-12 1.10115e-12 -9.45303e-13 -5.75985e-13 -5.78177e-13 1.15729e-12 -1.51708e-13 -8.94112e-13 -5.38016e-13 1.42874e-14 -5.32774e-13 -4.57123e-13 -2.48828e-13 1.31108e-12 -3.89748e-13 -7.05913e-13 -6.15463e-13 -2.1711e-13 -7.47748e-13 -1.26815e-13 -9.17804e-13 7.27587e-13 3.17528e-13 -1.64311e-13 2.68294e-13 -1.32623e-13 2.91345e-13 1.2393e-12 -1.13996e-12 -1.2018e-12 -5.43174e-13 1.29365e-12 -1.19914e-12 -4.08654e-13 5.09196e-13 -1.43145e-12 1.02418e-12 1.17717e-12 -7.76841e-14 6.39052e-13 -6.25135e-13 -2.94973e-13 0
				</DataArray>
				<DataArray Name="VitesseY" type="Float32" format="ascii">