<?xml version="1.0"?>
<VTKFile type="PolyData">
	<PolyData>
		<Piece NumberOfPoints="1206" NumberOfPolys="1000">
			<Points>
				<DataArray type="Float32" NumberOfComponents="3" format="ascii">
 0 0 0 0.005 0 0 0.01 0 0 0.015 0 0 0.02 0 0 0.025 0 0 0.03 0 0 0.035 0 0 0.04 0 0 0.045 0 0 0.05 0 0 0.055 0 0 0.06 0 0 0.065 0 0 0.07 0 0 0.075 0 0 0.08 0 0 0.085 0 0 0.09 0 0 0.095 0 0 0.1 0 0 0.105 0 0 0.11 0 0 0.115 0 0 0.12 0 0 0.125 0 0 0.13 0 0 0.135 0 0 0.14 0 0 0.145 0 0 0.15 0 0 0.155 0 0 0.16 0 0 0.165 0 0 0.17 0 0 0.175 0 0 0.18 0 0 0.185 0 0 0.19 0 0 0.195 0 0 0.2 0 0 0.205 0 0 0.21 0 0 0.215 0 0 0.22 0 0 0.225 0 0 0.23 0 0 0.235 0 0 0.24 0 0 0.245 0 0 0.25 0 0 0.255 0 0 0.26 0 0 0.265 0 0 0.27 0 0 0.275 0 0 0.28 0 0 0.285 0 0 0.29 0 0 0.295 0 0 0.3 0 0 0.305 0 0 0.31 0 0 0.315 0 0 0.32 0 0 0.325 0 0 0.33 0 0 0.335 0 0 0.34 0 0 0.345 0 0 0.35 0 0 0.355 0 0 0.36 0 0 0.365 0 0 0.37 0 0 0.375 0 0 0.38 0 0 0.385 0 0 0.39 0 0 0.395 0 0 0.4 0 0 0.405 0 0 0.41 0 0 0.415 0 0 0.42 0 0 0.425 0 0 0.43 0 0 0.435 0 0 0.44 0 0 0.445 0 0 0.45 0 0 0.455 0 0 0.46 0 0 0.465 0 0 0.47 0 0 0.475 0 0 0.48 0 0 0.485 0 0 0.49 0 0 0.495 0 0 0.5 0 0 0.505 0 0 0.51 0 0 0.515 0 0 0.52 0 0 0.525 0 0 0.53 0 0 0.535 0 0 0.54 0 0 0.545 0 0 0.55 0 0 0.555 0 0 0.56 0 0 0.565 0 0 0.57 0 0 0.575 0 0 0.58 0 0 0.585 0 0 0.59 0 0 0.595 0 0 0.6 0 0 0.605 0 0 0.61 0 0 0.615 0 0 0.62 0 0 0.625 0 0 0.63 0 0 0.635 0 0 0.64 0 0 0.645 0 0 0.65 0 0 0.655 0 0 0.66 0 0 0.665 0 0 0.67 0 0 0.675 0 0 0.68 0 0 0.685 0 0 0.69 0 0 0.695 0 0 0.7 0 0 0.705 0 0 0.71 0 0 0.715 0 0 0.72 0 0 0.725 0 0 0.73 0 0 0.735 0 0 0.74 0 0 0.745 0 0 0.75 0 0 0.755 0 0 0.76 0 0 0.765 0 0 0.77 0 0 0.775 0 0 0.78 0 0 0.785 0 0 0.79 0 0 0.795 0 0 0.8 0 0 0.805 0 0 0.81 0 0 0.815 0 0 0.82 0 0 0.825 0 0 0.83 0 0 0.835 0 0 0.84 0 0 0.845 0 0 0.85 0 0 0.855 0 0 0.86 0 0 0.865 0 0 0.87 0 0 0.875 0 0 0.88 0 0 0.885 0 0 0.89 0 0 0.895 0 0 0.9 0 0 0.905 0 0 0.91 0 0 0.915 0 0 0.92 0 0 0.925 0 0 0.93 0 0 0.935 0 0 0.94 0 0 0.945 0 0 0.95 0 0 0.955 0 0 0.96 0 0 0.965 0 0 0.97 0 0 0.975 0 0 0.98 0 0 0.985 0 0 0.99 0 0 0.995 0 0 1 0 0 0 0.02 0 0.005 0.02 0 0.01 0.02 0 0.015 0.02 0 0.02 0.02 0 0.025 0.02 0 0.03 0.02 0 0.035 0.02 0 0.04 0.02 0 0.045 0.02 0 0.05 0.02 0 0.055 0.02 0 0.06 0.02 0 0.065 0.02 0 0.07 0.02 0 0.075 0.02 0 0.08 0.02 0 0.085 0.02 0 0.09 0.02 0 0.095 0.02 0 0.1 0.02 0 0.105 0.02 0 0.11 0.02 0 0.115 0.02 0 0.12 0.02 0 0.125 0.02 0 0.13 0.02 0 0.135 0.02 0 0.14 0.02 0 0.145 0.02 0 0.15 0.02 0 0.155 0.02 0 0.16 0.02 0 0.165 0.02 0 0.17 0.02 0 0.175 0.02 0 0.18 0.02 0 0.185 0.02 0 0.19 0.02 0 0.195 0.02 0 0.2 0.02 0 0.205 0.02 0 0.21 0.02 0 0.215 0.02 0 0.22 0.02 0 0.225 0.02 0 0.23 0.02 0 0.235 0.02 0 0.24 0.02 0 0.245 0.02 0 0.25 0.02 0 0.255 0.02 0 0.26 0.02 0 0.265 0.02 0 0.27 0.02 0 0.275 0.02 0 0.28 0.02 0 0.285 0.02 0 0.29 0.02 0 0.295 0.02 0 0.3 0.02 0 0.305 0.02 0 0.31 0.02 0 0.315 0.02 0 0.32 0.02 0 0.325 0.02 0 0.33 0.02 0 0.335 0.02 0 0.34 0.02 0 0.345 0.02 0 0.35 0.02 0 0.355 0.02 0 0.36 0.02 0 0.365 0.02 0 0.37 0.02 0 0.375 0.02 0 0.38 0.02 0 0.385 0.02 0 0.39 0.02 0 0.395 0.02 0 0.4 0.02 0 0.405 0.02 0 0.41 0.02 0 0.415 0.02 0 0.42 0.02 0 0.425 0.02 0 0.43 0.02 0 0.435 0.02 0 0.44 0.02 0 0.445 0.02 0 0.45 0.02 0 0.455 0.02 0 0.46 0.02 0 0.465 0.02 0 0.47 0.02 0 0.475 0.02 0 0.48 0.02 0 0.485 0.02 0 0.49 0.02 0 0.495 0.02 0 0.5 0.02 0 0.505 0.02 0 0.51 0.02 0 0.515 0.02 0 0.52 0.02 0 0.525 0.02 0 0.53 0.02 0 0.535 0.02 0 0.54 0.02 0 0.545 0.02 0 0.55 0.02 0 0.555 0.02 0 0.56 0.02 0 0.565 0.02 0 0.57 0.02 0 0.575 0.02 0 0.58 0.02 0 0.585 0.02 0 0.59 0.02 0 0.595 0.02 0 0.6 0.02 0 0.605 0.02 0 0.61 0.02 0 0.615 0.02 0 0.62 0.02 0 0.625 0.02 0 0.63 0.02 0 0.635 0.02 0 0.64 0.02 0 0.645 0.02 0 0.65 0.02 0 0.655 0.02 0 0.66 0.02 0 0.665 0.02 0 0.67 0.02 0 0.675 0.02 0 0.68 0.02 0 0.685 0.02 0 0.69 0.02 0 0.695 0.02 0 0.7 0.02 0 0.705 0.02 0 0.71 0.02 0 0.715 0.02 0 0.72 0.02 0 0.725 0.02 0 0.73 0.02 0 0.735 0.02 0 0.74 0.02 0 0.745 0.02 0 0.75 0.02 0 0.755 0.02 0 0.76 0.02 0 0.765 0.02 0 0.77 0.02 0 0.775 0.02 0 0.78 0.02 0 0.785 0.02 0 0.79 0.02 0 0.795 0.02 0 0.8 0.02 0 0.805 0.02 0 0.81 0.02 0 0.815 0.02 0 0.82 0.02 0 0.825 0.02 0 0.83 0.02 0 0.835 0.02 0 0.84 0.02 0 0.845 0.02 0 0.85 0.02 0 0.855 0.02 0 0.86 0.02 0 0.865 0.02 0 0.87 0.02 0 0.875 0.02 0 0.88 0.02 0 0.885 0.02 0 0.89 0.02 0 0.895 0.02 0 0.9 0.02 0 0.905 0.02 0 0.91 0.02 0 0.915 0.02 0 0.92 0.02 0 0.925 0.02 0 0.93 0.02 0 0.935 0.02 0 0.94 0.02 0 0.945 0.02 0 0.95 0.02 0 0.955 0.02 0 0.96 0.02 0 0.965 0.02 0 0.97 0.02 0 0.975 0.02 0 0.98 0.02 0 0.985 0.02 0 0.99 0.02 0 0.995 0.02 0 1 0.02 0 0 0.04 0 0.005 0.04 0 0.01 0.04 0 0.015 0.04 0 0.02 0.04 0 0.025 0.04 0 0.03 0.04 0 0.035 0.04 0 0.04 0.04 0 0.045 0.04 0 0.05 0.04 0 0.055 0.04 0 0.06 0.04 0 0.065 0.04 0 0.07 0.04 0 0.075 0.04 0 0.08 0.04 0 0.085 0.04 0 0.09 0.04 0 0.095 0.04 0 0.1 0.04 0 0.105 0.04 0 0.11 0.04 0 0.115 0.04 0 0.12 0.04 0 0.125 0.04 0 0.13 0.04 0 0.135 0.04 0 0.14 0.04 0 0.145 0.04 0 0.15 0.04 0 0.155 0.04 0 0.16 0.04 0 0.165 0.04 0 0.17 0.04 0 0.175 0.04 0 0.18 0.04 0 0.185 0.04 0 0.19 0.04 0 0.195 0.04 0 0.2 0.04 0 0.205 0.04 0 0.21 0.04 0 0.215 0.04 0 0.22 0.04 0 0.225 0.04 0 0.23 0.04 0 0.235 0.04 0 0.24 0.04 0 0.245 0.04 0 0.25 0.04 0 0.255 0.04 0 0.26 0.04 0 0.265 0.04 0 0.27 0.04 0 0.275 0.04 0 0.28 0.04 0 0.285 0.04 0 0.29 0.04 0 0.295 0.04 0 0.3 0.04 0 0.305 0.04 0 0.31 0.04 0 0.315 0.04 0 0.32 0.04 0 0.325 0.04 0 0.33 0.04 0 0.335 0.04 0 0.34 0.04 0 0.345 0.04 0 0.35 0.04 0 0.355 0.04 0 0.36 0.04 0 0.365 0.04 0 0.37 0.04 0 0.375 0.04 0 0.38 0.04 0 0.385 0.04 0 0.39 0.04 0 0.395 0.04 0 0.4 0.04 0 0.405 0.04 0 0.41 0.04 0 0.415 0.04 0 0.42 0.04 0 0.425 0.04 0 0.43 0.04 0 0.435 0.04 0 0.44 0.04 0 0.445 0.04 0 0.45 0.04 0 0.455 0.04 0 0.46 0.04 0 0.465 0.04 0 0.47 0.04 0 0.475 0.04 0 0.48 0.04 0 0.485 0.04 0 0.49 0.04 0 0.495 0.04 0 0.5 0.04 0 0.505 0.04 0 0.51 0.04 0 0.515 0.04 0 0.52 0.04 0 0.525 0.04 0 0.53 0.04 0 0.535 0.04 0 0.54 0.04 0 0.545 0.04 0 0.55 0.04 0 0.555 0.04 0 0.56 0.04 0 0.565 0.04 0 0.57 0.04 0 0.575 0.04 0 0.58 0.04 0 0.585 0.04 0 0.59 0.04 0 0.595 0.04 0 0.6 0.04 0 0.605 0.04 0 0.61 0.04 0 0.615 0.04 0 0.62 0.04 0 0.625 0.04 0 0.63 0.04 0 0.635 0.04 0 0.64 0.04 0 0.645 0.04 0 0.65 0.04 0 0.655 0.04 0 0.66 0.04 0 0.665 0.04 0 0.67 0.04 0 0.675 0.04 0 0.68 0.04 0 0.685 0.04 0 0.69 0.04 0 0.695 0.04 0 0.7 0.04 0 0.705 0.04 0 0.71 0.04 0 0.715 0.04 0 0.72 0.04 0 0.725 0.04 0 0.73 0.04 0 0.735 0.04 0 0.74 0.04 0 0.745 0.04 0 0.75 0.04 0 0.755 0.04 0 0.76 0.04 0 0.765 0.04 0 0.77 0.04 0 0.775 0.04 0 0.78 0.04 0 0.785 0.04 0 0.79 0.04 0 0.795 0.04 0 0.8 0.04 0 0.805 0.04 0 0.81 0.04 0 0.815 0.04 0 0.82 0.04 0 0.825 0.04 0 0.83 0.04 0 0.835 0.04 0 0.84 0.04 0 0.845 0.04 0 0.85 0.04 0 0.855 0.04 0 0.86 0.04 0 0.865 0.04 0 0.87 0.04 0 0.875 0.04 0 0.88 0.04 0 0.885 0.04 0 0.89 0.04 0 0.895 0.04 0 0.9 0.04 0 0.905 0.04 0 0.91 0.04 0 0.915 0.04 0 0.92 0.04 0 0.925 0.04 0 0.93 0.04 0 0.935 0.04 0 0.94 0.04 0 0.945 0.04 0 0.95 0.04 0 0.955 0.04 0 0.96 0.04 0 0.965 0.04 0 0.97 0.04 0 0.975 0.04 0 0.98 0.04 0 0.985 0.04 0 0.99 0.04 0 0.995 0.04 0 1 0.04 0 0 0.06 0 0.005 0.06 0 0.01 0.06 0 0.015 0.06 0 0.02 0.06 0 0.025 0.06 0 0.03 0.06 0 0.035 0.06 0 0.04 0.06 0 0.045 0.06 0 0.05 0.06 0 0.055 0.06 0 0.06 0.06 0 0.065 0.06 0 0.07 0.06 0 0.075 0.06 0 0.08 0.06 0 0.085 0.06 0 0.09 0.06 0 0.095 0.06 0 0.1 0.06 0 0.105 0.06 0 0.11 0.06 0 0.115 0.06 0 0.12 0.06 0 0.125 0.06 0 0.13 0.06 0 0.135 0.06 0 0.14 0.06 0 0.145 0.06 0 0.15 0.06 0 0.155 0.06 0 0.16 0.06 0 0.165 0.06 0 0.17 0.06 0 0.175 0.06 0 0.18 0.06 0 0.185 0.06 0 0.19 0.06 0 0.195 0.06 0 0.2 0.06 0 0.205 0.06 0 0.21 0.06 0 0.215 0.06 0 0.22 0.06 0 0.225 0.06 0 0.23 0.06 0 0.235 0.06 0 0.24 0.06 0 0.245 0.06 0 0.25 0.06 0 0.255 0.06 0 0.26 0.06 0 0.265 0.06 0 0.27 0.06 0 0.275 0.06 0 0.28 0.06 0 0.285 0.06 0 0.29 0.06 0 0.295 0.06 0 0.3 0.06 0 0.305 0.06 0 0.31 0.06 0 0.315 0.06 0 0.32 0.06 0 0.325 0.06 0 0.33 0.06 0 0.335 0.06 0 0.34 0.06 0 0.345 0.06 0 0.35 0.06 0 0.355 0.06 0 0.36 0.06 0 0.365 0.06 0 0.37 0.06 0 0.375 0.06 0 0.38 0.06 0 0.385 0.06 0 0.39 0.06 0 0.395 0.06 0 0.4 0.06 0 0.405 0.06 0 0.41 0.06 0 0.415 0.06 0 0.42 0.06 0 0.425 0.06 0 0.43 0.06 0 0.435 0.06 0 0.44 0.06 0 0.445 0.06 0 0.45 0.06 0 0.455 0.06 0 0.46 0.06 0 0.465 0.06 0 0.47 0.06 0 0.475 0.06 0 0.48 0.06 0 0.485 0.06 0 0.49 0.06 0 0.495 0.06 0 0.5 0.06 0 0.505 0.06 0 0.51 0.06 0 0.515 0.06 0 0.52 0.06 0 0.525 0.06 0 0.53 0.06 0 0.535 0.06 0 0.54 0.06 0 0.545 0.06 0 0.55 0.06 0 0.555 0.06 0 0.56 0.06 0 0.565 0.06 0 0.57 0.06 0 0.575 0.06 0 0.58 0.06 0 0.585 0.06 0 0.59 0.06 0 0.595 0.06 0 0.6 0.06 0 0.605 0.06 0 0.61 0.06 0 0.615 0.06 0 0.62 0.06 0 0.625 0.06 0 0.63 0.06 0 0.635 0.06 0 0.64 0.06 0 0.645 0.06 0 0.65 0.06 0 0.655 0.06 0 0.66 0.06 0 0.665 0.06 0 0.67 0.06 0 0.675 0.06 0 0.68 0.06 0 0.685 0.06 0 0.69 0.06 0 0.695 0.06 0 0.7 0.06 0 0.705 0.06 0 0.71 0.06 0 0.715 0.06 0 0.72 0.06 0 0.725 0.06 0 0.73 0.06 0 0.735 0.06 0 0.74 0.06 0 0.745 0.06 0 0.75 0.06 0 0.755 0.06 0 0.76 0.06 0 0.765 0.06 0 0.77 0.06 0 0.775 0.06 0 0.78 0.06 0 0.785 0.06 0 0.79 0.06 0 0.795 0.06 0 0.8 0.06 0 0.805 0.06 0 0.81 0.06 0 0.815 0.06 0 0.82 0.06 0 0.825 0.06 0 0.83 0.06 0 0.835 0.06 0 0.84 0.06 0 0.845 0.06 0 0.85 0.06 0 0.855 0.06 0 0.86 0.06 0 0.865 0.06 0 0.87 0.06 0 0.875 0.06 0 0.88 0.06 0 0.885 0.06 0 0.89 0.06 0 0.895 0.06 0 0.9 0.06 0 0.905 0.06 0 0.91 0.06 0 0.915 0.06 0 0.92 0.06 0 0.925 0.06 0 0.93 0.06 0 0.935 0.06 0 0.94 0.06 0 0.945 0.06 0 0.95 0.06 0 0.955 0.06 0 0.96 0.06 0 0.965 0.06 0 0.97 0.06 0 0.975 0.06 0 0.98 0.06 0 0.985 0.06 0 0.99 0.06 0 0.995 0.06 0 1 0.06 0 0 0.08 0 0.005 0.08 0 0.01 0.08 0 0.015 0.08 0 0.02 0.08 0 0.025 0.08 0 0.03 0.08 0 0.035 0.08 0 0.04 0.08 0 0.045 0.08 0 0.05 0.08 0 0.055 0.08 0 0.06 0.08 0 0.065 0.08 0 0.07 0.08 0 0.075 0.08 0 0.08 0.08 0 0.085 0.08 0 0.09 0.08 0 0.095 0.08 0 0.1 0.08 0 0.105 0.08 0 0.11 0.08 0 0.115 0.08 0 0.12 0.08 0 0.125 0.08 0 0.13 0.08 0 0.135 0.08 0 0.14 0.08 0 0.145 0.08 0 0.15 0.08 0 0.155 0.08 0 0.16 0.08 0 0.165 0.08 0
[...]
			<PointData Scalars="VitesseX">
				<DataArray Name="VitesseX" type="Float32" format="ascii">
 0 -1.11848e-14 -6.38624e-15 5.75067e-14 -7.61539e-14 -8.29572e-14 -8.96402e-15 -2.06084e-14 -9.13585e-14 1.43776e-14 3.15278e-14 -2.27693e-13 1.19863e-13 -2.26023e-13 -2.04013e-14 -5.80065e-15 -2.52089e-13 2.06054e-13 -2.75231e-13 2.96402e-14 -1.56368e-13 3.13865e-14 -1.24792e-13 -4.42789e-14 1.9826e-13 6.99438e-14 -5.62715e-14 -6.0441e-14 -1.3385e-13 4.51057e-14 -3.00469e-13 2.05885e-13 -2.31149e-13 -3.83908e-13 4.0477e-13 -2.85606e-13 2.05118e-13 -5.27521e-13 3.24691e-13 -3.32269e-13 2.28631e-13 -1.5484e-13 -3.00248e-13 4.66154e-13 -6.80636e-14 -4.22272e-13 -3.729e-13 -5.14233e-13 -8.47722e-14 2.01453e-13 -3.46471e-14 -3.18874e-13 -3.32552e-13 1.8749e-13 1.02651e-12 8.13074e-14 -3.80211e-13 6.40099e-14 9.52857e-15 1.25874e-13 -3.95315e-13 -5.43764e-13 -1.14757e-13 -1.84758e-13 -3.59713e-13 1.63442e-13 1.38816e-13 8.14789e-13 -1.14275e-13 -2.76333e-13 -1.15772e-13 -1.15398e-13 -3.36603e-14 -7.14961e-13 3.8022e-13 -5.77157e-13 4.51716e-12 6.2539e-11 8.08843e-10 9.5146e-09 9.98371e-08 9.26891e-07 7.53535e-06 5.29691e-05 0.000316839 0.00157993 0.00640254 0.020524 0.051212 0.100861 0.164778 0.237284 0.315117 0.396992 0.482431 0.555975 0.628582 0.689818 0.752632 0.80739 0.847607 0.890999 0.913011 0.923525 0.932662 0.936238 0.935822 0.933847 0.930893 0.934982 0.930055 0.92945 0.928354 0.920655 0.903366 0.873449 0.819571 0.731182 0.606743 0.458652 0.309274 0.182254 0.0916473 0.0391708 0.0146808 0.00505852 0.00165716 0.000524177 0.000160966 4.80611e-05 1.39558e-05 3.94066e-06 1.08191e-06 2.88799e-07 7.49528e-08 1.89165e-08 4.64224e-09 1.10797e-09 2.58215e-10 5.72717e-11 1.28175e-11 3.06418e-12 -1.82682e-13 5.13371e-13 -1.98534e-13 -6.82261e-13 1.20167e-12 -1.34151e-12 6.2656e-13 -2.97759e-13 6.09942e-13 1.4022e-12 -9.79463e-13 3.57459e-13 -4.13398e-13 6.66307e-13 -4.44273e-13 -2.51735e-13 -1.0153e-12 -4.95451e-13 7.89496e-13 1.93636e-13 -3.62434e-13 -6.13339e-13 -7.12989e-13 4.93167e-13 1.20697e-13 1.53042e-13 7.38319e-13 -7.39838e-13 3.04868e-13 -2.60641e-13 -6.81898e-14 1.7043e-12 -8.1734e-13 -1.13884e-14 -8.41886e-13 7.62582e-13 7.91554e-13 -6.65073e-13 -6.33862e-13 -5.54559e-13 -8.80043e-13 5.03233e-13 -2.42078e-13 1.77439e-13 -6.89342e-13 -2.76556e-13 1.34705e-12 -1.33618e-12 -6.68022e-14 6.64734e-13 -1.92768e-12 1.318e-12 -1.05121e-12 -7.67005e-13 6.6978e-13 -2.0584e-12 1.10484e-12 -2.13836e-12 0 0 6.25921e-15 -2.31012e-15 -7.53417e-14 1.20817e-14 -8.51182e-15 -8.07096e-14 -7.50836e-14 -2.8115e-14 -1.02073e-13 -1.11587e-13 1.13318e-13 -1.9382e-13 5.57378e-14 -1.51193e-13 -4.01883e-14 1.44077e-13 -3.6498e-13 1.32801e-13 -1.61006e-13 -6.08239e-14 -1.15101e-13 1.08703e-14 -1.42998e-13 8.28258e-14 6.50085e-14 1.28411e-13 -7.01712e-14 -1.79097e-13 -4.4098e-14 1.86257e-13 -2.97394e-13 -1.32666e-13 5.8671e-14 -5.43168e-13 7.87313e-14 -8.17257e-14 3.21642e-13 -4.55245e-13 1.66224e-13 -2.833e-13 1.62701e-14 2.66011e-13 -4.97997e-13 -1.21432e-13 4.66668e-14 -1.74843e-13 -2.21715e-13 -5.42971e-13 -3.2295e-13 6.81518e-14 1.16074e-13 2.19159e-13 4.56963e-13 -4.98366e-13 3.03992e-13 3.40845e-13 -3.11526e-13 3.5764e-14 -2.16649e-13 -8.92218e-14 -1.21868e-13 -3.68335e-13 -3.58818e-13 2.07019e-13 1.15955e-13 1.45575e-13 -1.98833e-13 2.93937e-13 1.28511e-13 -7.58016e-14 -2.176e-13 -3.56204e-13 2.41948e-13 -7.21657e-13 8.92591e-13 4.28763e-12 6.17693e-11 8.09273e-10 9.51366e-09 9.98395e-08 9.26889e-07 7.53535e-06 5.29691e-05 0.000316839 0.00157993 0.00640254 0.020524 0.051212 0.100861 0.164778 0.237284 0.315117 0.396992 0.482431 0.555975 0.628582 0.689818 0.752632 0.80739 0.847607 0.890999 0.913011 0.923525 0.932662 0.936238 0.935822 0.933847 0.930893 0.934982 0.930055 0.92945 0.928354 0.920655 0.903366 0.873449 0.819571 0.731182 0.606743 0.458652 0.309274 0.182254 0.0916473 0.0391708 0.0146808 0.00505852 0.00165716 0.000524177 0.000160966 4.80611e-05 1.39558e-05 3.94066e-06 1.08191e-06 2.88798e-07 7.49542e-08 1.89151e-08 4.64254e-09 1.10837e-09 2.56649e-10 5.86358e-11 1.23899e-11 2.44305e-12 1.33689e-12 -2.40385e-13 2.82708e-14 2.43882e-13 -1.11113e-12 9.1096e-13 -6.2504e-13 1.05324e-12 -5.78693e-14 -7.77281e-13 8.98883e-13 -9.56272e-14 6.09643e-13 -6.1899e-13 -2.8233e-13 -3.62832e-13 -2.89141e-14 1.0168e-13 -4.68954e-13 -3.7822e-13 -2.52739e-13 2.20465e-13 1.42006e-13 -2.81338e-13 -5.61106e-13 2.13392e-13 -4.86952e-14 7.94942e-13 1.78969e-14 1.08588e-13 2.3922e-13 -9.71464e-13 1.01884e-12 -2.84529e-13 1.91205e-13 1.7925e-14 -8.11143e-13 3.48682e-13 -4.71695e-13 -4.30506e-13 1.86701e-13 -7.30576e-13 2.23962e-14 -3.24046e-13 3.53574e-13 1.99049e-13 -1.19588e-12 6.95733e-13 -2.06084e-13 -1.39334e-12 1.45273e-12 -1.407e-12 2.32259e-13 3.43191e-13 -1.51232e-12 5.2656e-13 -1.94289e-12 6.82827e-13 0 0 -2.32539e-14 -3.35047e-14 -1.04575e-14 -5.78716e-14 -5.69018e-14 -2.91719e-14 -9.02463e-14 -1.37369e-13 -5.34679e-14 -8.24553e-14 -8.88011e-14 1.18209e-13 -3.01916e-14 -2.77453e-14 2.11694e-14 -1.36844e-13 -5.40175e-14 -6.37279e-14 -1.1584e-13 -8.94279e-14 -8.85453e-14 -1.74271e-13 4.99072e-14 2.74273e-14 4.89928e-14 5.18743e-14 -1.15868e-14 -1.03494e-13 3.39003e-14 -2.17874e-13 -8.75664e-14 -6.30845e-14 -3.13614e-13 -8.38723e-14 -3.27523e-13 2.05542e-13 -2.22308e-13 2.27595e-13 -2.30886e-13 -1.05099e-13 -7.34185e-14 -3.5433e-14 1.92644e-14 -2.97153e-13 -1.12675e-13 9.92109e-14 -4.7985e-13 2.51225e-13 -2.84728e-13 1.69e-13 3.13714e-13 1.47525e-13 -4.76023e-13 2.54515e-13 -1.78475e-13 1.7917e-13 6.29813e-14 2.9274e-14 -5.46388e-13 -1.4755e-13 -1.28335e-14 -3.49419e-13 -1.60093e-13 9.2131e-14 2.36022e-13 -1.04071e-13 1.81078e-13 1.32712e-13 -1.35028e-13 1.27947e-14 1.44255e-13 -9.36556e-14 -4.30168e-13 3.59103e-13 1.51249e-13 4.78675e-12 6.1998e-11 8.08789e-10 9.51471e-09 9.9838e-08 9.26889e-07 7.53535e-06 5.29691e-05 0.000316839 0.00157993 0.00640254 0.020524 0.051212 0.100861 0.164778 0.237284 0.315117 0.396992 0.482431 0.555975 0.628582 0.689818 0.752632 0.80739 0.847607 0.890999 0.913011 0.923525 0.932662 0.936238 0.935822 0.933847 0.930893 0.934982 0.930055 0.92945 0.928354 0.920655 0.903366 0.873449 0.819571 0.731182 0.606743 0.458652 0.309274 0.182254 0.0916473 0.0391708 0.0146808 0.00505852 0.00165716 0.000524177 0.000160966 4.80611e-05 1.39558e-05 3.94066e-06 1.08191e-06 2.88799e-07 7.49533e-08 1.89157e-08 4.64224e-09 1.10797e-09 2.57095e-10 5.7741e-11 1.26325e-11 3.08322e-12 5.38775e-13 1.67974e-13 1.01611e-13 4.13805e-13 1.41425e-13 1.07294e-13 1.38578e-14 -5.9158e-13 2.56134e-13 3.77672e-13 1.94391e-13 7.07906e-13 -5.84373e-13 -5.74594e-13 -6.23295e-13 -2.63984e-13 -1.98139e-13 -7.42036e-14 -2.41916e-13 -1.00031e-13 7.65478e-14 -7.17236e-13 3.0128e-14 -2.39213e-13 2.56823e-14 1.9409e-13 4.99857e-13 -2.36314e-13 1.72123e-13 -8.81218e-14 -1.27968e-13 1.15256e-13 -1.10132e-13 8.15761e-13 2.18865e-13 -9.39975e-13 1.24532e-13 -5.40581e-13 -9.05717e-14 -2.89596e-13 -5.34305e-13 9.13443e-14 -1.64901e-13 1.01176e-13 1.64233e-13 -5.74807e-13 1.8852e-13 -2.67484e-13 -1.74164e-13 8.23356e-13 -7.52301e-13 -1.90539e-13 -7.92617e-13 1.44612e-13 -2.796e-13 -1.02394e-12 -9.62632e-15 2.80271e-13 0 0 -1.94464e-14 -2.40673e-14 -2.13717e-14 -6.95145e-14 -9.46958e-14 -8.83925e-14 -1.2827e-13 -4.50311e-14 3.39246e-14 3.72591e-14 -1.38202e-13 4.64706e-14 -1.27062e-13 8.79658e-14 -3.2678e-14 -1.96325e-13 -2.39862e-14 -2.40663e-13 -5.57397e-14 -1.7975e-13 -3.16867e-14 1.14247e-13 -2.47971e-15 -7.89563e-14 -4.07906e-14 1.38941e-13 -4.06559e-14 -1.5776e-13 -1.80525e-13 -6.81816e-14 8.69475e-14 -8.70014e-14 -2.26422e-13 2.23289e-13 -7.51165e-14 1.86739e-13 -1.47761e-13 -1.97408e-14 -2.90423e-13 4.98726e-14 -4.92362e-13 -1.51052e-13 3.55706e-13 -3.89456e-14 -3.61779e-14 -3.21258e-13 5.85658e-14 -1.06124e-14 3.01057e-13 -7.85697e-14 -3.54266e-13 9.46526e-14 -5.66843e-14 1.31762e-13 -2.44546e-14 -1.10232e-13 -1.23916e-13 -1.81362e-13 1.66586e-14 -6.13767e-13 -3.21704e-13 -3.37799e-13 -9.02775e-14 -1.38662e-13 4.37152e-13 3.4043e-13 3.59585e-13 2.97691e-13 -1.22036e-13 6.59496e-14 1.71624e-13 -1.25945e-13 -2.73512e-13 3.79418e-15 1.69703e-13 4.57121e-12 6.23899e-11 8.09339e-10 9.51436e-09 9.98374e-08 9.2689e-07 7.53535e-06 5.29691e-05 0.000316839 0.00157993 0.00640254 0.020524 0.051212 0.100861 0.164778 0.237284 0.315117 0.396992 0.482431 0.555975 0.628582 0.689818 0.752632 0.80739 0.847607 0.890999 0.913011 0.923525 0.932662 0.936238 0.935822 0.933847 0.930893 0.934982 0.930055 0.92945 0.928354 0.920655 0.903366 0.873449 0.819571 0.731182 0.606743 0.458652 0.309274 0.182254 0.0916473 0.0391708 0.0146808 0.00505852 0.00165716 0.000524177 0.000160966 4.80611e-05 1.39558e-05 3.94066e-06 1.08191e-06 2.88799e-07 7.4953e-08 1.8916e-08 4.64234e-09 1.10823e-09 2.57424e-10 5.76517e-11 1.29778e-11 3.18747e-12 9.75329e-14 1.69722e-13 3.474e-13 2.90597e-13 1.27803e-12 1.21667e-14 1.0323e-13 -8.70326e-13 -1.07824e-13 7.22192e-13 1.36309e-14 -3.96947e-13 -6.82625e-13 -3.40053e-14 -2.62352e-14 -7.89796e-13 -9.27326e-13 -3.3744e-13 -2.96444e-13 2.17057e-13 9.93807e-15 -5.2826e-13 -5.2124e-13 -6.45359e-13 6.00953e-13 4.51977e-13 -3.34471e-13 -7.52372e-13 1.47512e-13 1.88823e-13 7.21864e-13 1.1794e-12 -7.55024e-13 -3.05512e-13 -4.49765e-13 4.76778e-14 3.81006e-13 -6.96955e-13 -4.22235e-13 -4.88518e-13 -2.554e-14 2.79411e-14 8.14537e-13 5.72393e-13 -3.46591e-13 -7.25934e-13 6.08946e-14 -1.97356e-13 1.58262e-13 3.93878e-13 -8.002e-13 5.69391e-13 -6.97349e-13 -6.18143e-14 7.62008e-13 -7.75464e-13 -1.27784e-14 -1.54864e-12 0 0 1.40085e-15 -8.67296e-15 -9.5608e-14 2.65988e-15 -6.12366e-14 -1.23115e-13 -1.20432e-13 3.83836e-14 -1.30245e-14 -3.10291e-14 1.08245e-13 -2.27383e-13 2.21062e-14 -1.36174e-13 -5.22548e-14 4.35351e-14 -3.65697e-13 -2.76227e-14 -1.72961e-13 -1.31523e-13 -1.20532e-13 1.35457e-13 -2.15223e-13 -1.08197e-13 -5.84458e-14 8.99627e-14 -2.98111e-13 -8.80941e-14 -6.61596e-14 3.98003e-13 4.82745e-14 5.65716e-14 3.47711e-13 -2.72558e-13 3.08137e-13 -9.56248e-14 2.71682e-13 -6.43265e-13 7.8722e-14 -2.97855e-13 -2.83754e-13 1.87141e-13 -4.37942e-13 -9.2407e-14 1.75275e-14 -2.65101e-13 1.88431e-13 -7.8822e-13 -1.82999e-13 7.26853e-14 -1.81427e-14 1.85345e-13 4.79608e-13 -8.30041e-13 2.92006e-13 1.38679e-13 -4.90354e-13 -1.17959e-13 3.72176e-14 -3.14943e-13 -4.37222e-13 -1.25974e-13 -6.34461e-14 4.08183e-13 2.78697e-13 4.22131e-13 -2.53737e-13 3.62771e-13 3.49867e-13 -1.51301e-13 -3.3898e-13 -4.26836e-13 3.44741e-13 -5.83597e-13 1.29357e-12 4.41289e-12 6.19e-11 8.0955e-10 9.51387e-09 9.98393e-08 9.2689e-07 7.53535e-06 5.29691e-05 0.000316839 0.00157993 0.00640254 0.020524 0.051212 0.100861 0.164778 0.237284 0.315117 0.396992 0.482431 0.555975 0.628582 0.689818 0.752632 0.80739 0.847607 0.890999 0.913011 0.923525 0.932662 0.936238 0.935822 0.933847 0.930893 0.934982 0.930055 0.92945 0.928354 0.920655 0.903366 0.873449 0.819571 0.731182 0.606743 0.458652 0.309274 0.182254 0.0916473 0.0391708 0.0146808 0.00505852 0.00165716 0.000524177 0.000160966 4.80611e-05 1.39558e-05 3.94066e-06 1.08191e-06 2.88798e-07 7.49541e-08 1.89153e-08 4.64262e-09 1.10848e-09 2.5697e-10 5.86831e-11 1.29951e-11 2.53988e-12 1.2976e-12 -1.30819e-13 6.72766e-13 4.69512e-13 -7.30571e-13 1.34779e-12 -4.28573e-13 6.62188e-13 -4.39122e-13 -1.15639e-12 5.97164e-13 -3.2033e-13 2.1296e-13 -7.61008e-13 -1.00508e-13 -9.47111e-13 -5.39699e-13 -3.01639e-13 -7.19942e-13 5.95312e-14 -8.21399e-13 9.94809e-13 2.09727e-13 -2.33793e-13 -1.24669e-13 2.25026e-13 -1.14189e-12 3.46376e-13 -2.37595e-13 -1.14682e-13 7.60871e-13 -6.83188e-13 5.43452e-13 -6.83239e-13 -7.44392e-14 1.81e-13 -8.50311e-13 -1.13208e-13 -5.41981e-13 -3.97678e-13 7.2954e-13 -6.61554e-13 7.25345e-13 1.62739e-13 1.37827e-13 -6.00726e-14 -1.32535e-12 7.82829e-13 1.43157e-13 -1.24639e-12 1.35687e-12 -9.30089e-13 6.57656e-13 1.66339e-13 -8.35322e-13 4.58278e-13 -2.11562e-12 -2.11909e-13 0 0 -2.85164e-14 -3.79866e-14 3.88025e-14 -7.17118e-14 -1.12819e-13 2.4667e-14 -3.52589e-14 -1.43037e-13 1.76894e-14 -4.67849e-14 -1.39037e-13 1.96214e-13 -9.95464e-14 -2.21785e-13 7.77613e-14 -3.34211e-13 1.44559e-13 -2.42209e-13 -1.14471e-13 -1.17122e-13 -9.31926e-14 -4.52654e-13 -8.3956e-14 2.89818e-14 2.60183e-15 -3.07301e-13 -4.58183e-13 1.56688e-13 4.29833e-13 -1.76361e-13 5.48194e-13 1.95161e-13 1.97876e-14 3.31668e-13 -3.31609e-13 2.14926e-13 -7.76535e-13 4.43323e-13 -3.88199e-13 -1.10422e-13 8.29989e-14 -2.26751e-13 -8.66189e-14 -5.26429e-13 -6.33545e-13 2.87521e-13 -7.70773e-13 -5.15957e-14 -6.90214e-13 4.6956e-13 7.48652e-13 -2.94436e-13 -6.05895e-13 6.08667e-13 -2.50705e-13 -2.0574e-13 8.01473e-14 1.23354e-13 -4.92486e-13 8.56766e-14 -5.56732e-13 3.46726e-13 2.66354e-13 5.04201e-13 8.66667e-14 -1.97075e-13 3.47968e-13 -3.06566e-13 1.40396e-13 -3.7308e-13 -4.12897e-13 -1.10347e-13 -8.22686e-13 1.36696e-12 1.87897e-13 5.19878e-12 6.20167e-11 8.08297e-10 9.51572e-09 9.98378e-08 9.2689e-07 7.53535e-06 5.29691e-05 0.000316839 0.00157993 0.00640254 0.020524 0.051212 0.100861 0.164778 0.237284 0.315117 0.396992 0.482431 0.555975 0.628582 0.689818 0.752632 0.80739 0.847607 0.890999 0.913011 0.923525 0.932662 0.936238 0.935822 0.933847 0.930893 0.934982 0.930055 0.92945 0.928354 0.920655 0.903366 0.873449 0.819571 0.731182 0.606743 0.458652 0.309274 0.182254 0.0916473 0.0391708 0.0146808 0.00505852 0.00165716 0.000524177 0.000160966 4.80611e-05 1.39558e-05 3.94066e-06 1.08191e-06 2.88799e-07 7.49532e-08 1.89165e-08 4.6422e-09 1.10768e-09 2.58198e-10 5.75449e-11 1.33372e-11 3.04932e-12 6.21231e-13 7.29009e-13 5.98879e-13 1.54143e-14 -3.10415e-13 -2.77589e-13 8.4075e-13 -5.22365e-13 5.75351e-13 -4.50594e-14 -1.22138e-12 2.11776e-12 -1.01026e-12 -6.98905e-13 -1.27475e-12 -3.68667e-13 -5.78498e-13 -7.75618e-13 3.96575e-13 4.34962e-13 -1.36653e-12 5.57396e-13 5.25188e-13 1.40055e-12 -1.56972e-13 -3.39463e-13 2.20586e-13 -6.04852e-13 -1.56895e-13 -1.26107e-12 -7.24551e-13 1.52563e-13 -4.78338e-13 1.43374e-12 -3.59131e-14 -8.86575e-13 2.0027e-13 -1.27611e-12 -1.11107e-13 -9.1061e-14 -8.11895e-13 7.68083e-13 -7.95056e-13 2.08575e-13 -9.91865e-14 -4.92546e-13 1.34336e-12 -1.30224e-12 -3.31728e-14 1.81758e-12 -2.02361e-12 7.5196e-13 -3.90951e-13 -7.07856e-13 -5.9448e-14 -2.69192e-12 7.65682e-13 -2.70013e-13 0
				</DataArray>
				<DataArray Name="VitesseY" type="Float32" format="ascii">