<?xml version="1.0"?>
<VTKFile type="PolyData">
	<PolyData>
		<Piece NumberOfPoints="1206" NumberOfPolys="1000">
			<Points>
				<DataArray type="Float32" NumberOfComponents="3" format="ascii">
 0 0 0 0.005 0 0 0.01 0 0 0.015 0 0 0.02 0 0 0.025 0 0 0.03 0 0 0.035 0 0 0.04 0 0 0.045 0 0 0.05 0 0 0.055 0 0 0.06 0 0 0.065 0 0 0.07 0 0 0.075 0 0 0.08 0 0 0.085 0 0 0.09 0 0 0.095 0 0 0.1 0 0 0.105 0 0 0.11 0 0 0.115 0 0 0.12 0 0 0.125 0 0 0.13 0 0 0.135 0 0 0.14 0 0 0.145 0 0 0.15 0 0 0.155 0 0 0.16 0 0 0.165 0 0 0.17 0 0 0.175 0 0 0.18 0 0 0.185 0 0 0.19 0 0 0.195 0 0 0.2 0 0 0.205 0 0 0.21 0 0 0.215 0 0 0.22 0 0 0.225 0 0 0.23 0 0 0.235 0 0 0.24 0 0 0.245 0 0 0.25 0 0 0.255 0 0 0.26 0 0 0.265 0 0 0.27 0 0 0.275 0 0 0.28 0 0 0.285 0 0 0.29 0 0 0.295 0 0 0.3 0 0 0.305 0 0 0.31 0 0 0.315 0 0 0.32 0 0 0.325 0 0 0.33 0 0 0.335 0 0 0.34 0 0 0.345 0 0 0.35 0 0 0.355 0 0 0.36 0 0 0.365 0 0 0.37 0 0 0.375 0 0 0.38 0 0 0.385 0 0 0.39 0 0 0.395 0 0 0.4 0 0 0.405 0 0 0.41 0 0 0.415 0 0 0.42 0 0 0.425 0 0 0.43 0 0 0.435 0 0 0.44 0 0 0.445 0 0 0.45 0 0 0.455 0 0 0.46 0 0 0.465 0 0 0.47 0 0 0.475 0 0 0.48 0 0 0.485 0 0 0.49 0 0 0.495 0 0 0.5 0 0 0.505 0 0 0.51 0 0 0.515 0 0 0.52 0 0 0.525 0 0 0.53 0 0 0.535 0 0 0.54 0 0 0.545 0 0 0.55 0 0 0.555 0 0 0.56 0 0 0.565 0 0 0.57 0 0 0.575 0 0 0.58 0 0 0.585 0 0 0.59 0 0 0.595 0 0 0.6 0 0 0.605 0 0 0.61 0 0 0.615 0 0 0.62 0 0 0.625 0 0 0.63 0 0 0.635 0 0 0.64 0 0 0.645 0 0 0.65 0 0 0.655 0 0 0.66 0 0 0.665 0 0 0.67 0 0 0.675 0 0 0.68 0 0 0.685 0 0 0.69 0 0 0.695 0 0 0.7 0 0 0.705 0 0 0.71 0 0 0.715 0 0 0.72 0 0 0.725 0 0 0.73 0 0 0.735 0 0 0.74 0 0 0.745 0 0 0.75 0 0 0.755 0 0 0.76 0 0 0.765 0 0 0.77 0 0 0.775 0 0 0.78 0 0 0.785 0 0 0.79 0 0 0.795 0 0 0.8 0 0 0.805 0 0 0.81 0 0 0.815 0 0 0.82 0 0 0.825 0 0 0.83 0 0 0.835 0 0 0.84 0 0 0.845 0 0 0.85 0 0 0.855 0 0 0.86 0 0 0.865 0 0 0.87 0 0 0.875 0 0 0.88 0 0 0.885 0 0 0.89 0 0 0.895 0 0 0.9 0 0 0.905 0 0 0.91 0 0 0.915 0 0 0.92 0 0 0.925 0 0 0.93 0 0 0.935 0 0 0.94 0 0 0.945 0 0 0.95 0 0 0.955 0 0 0.96 0 0 0.965 0 0 0.97 0 0 0.975 0 0 0.98 0 0 0.985 0 0 0.99 0 0 0.995 0 0 1 0 0 0 0.02 0 0.005 0.02 0 0.01 0.02 0 0.015 0.02 0 0.02 0.02 0 0.025 0.02 0 0.03 0.02 0 0.035 0.02 0 0.04 0.02 0 0.045 0.02 0 0.05 0.02 0 0.055 0.02 0 0.06 0.02 0 0.065 0.02 0 0.07 0.02 0 0.075 0.02 0 0.08 0.02 0 0.085 0.02 0 0.09 0.02 0 0.095 0.02 0 0.1 0.02 0 0.105 0.02 0 0.11 0.02 0 0.115 0.02 0 0.12 0.02 0 0.125 0.02 0 0.13 0.02 0 0.135 0.02 0 0.14 0.02 0 0.145 0.02 0 0.15 0.02 0 0.155 0.02 0 0.16 0.02 0 0.165 0.02 0 0.17 0.02 0 0.175 0.02 0 0.18 0.02 0 0.185 0.02 0 0.19 0.02 0 0.195 0.02 0 0.2 0.02 0 0.205 0.02 0 0.21 0.02 0 0.215 0.02 0 0.22 0.02 0 0.225 0.02 0 0.23 0.02 0 0.235 0.02 0 0.24 0.02 0 0.245 0.02 0 0.25 0.02 0 0.255 0.02 0 0.26 0.02 0 0.265 0.02 0 0.27 0.02 0 0.275 0.02 0 0.28 0.02 0 0.285 0.02 0 0.29 0.02 0 0.295 0.02 0 0.3 0.02 0 0.305 0.02 0 0.31 0.02 0 0.315 0.02 0 0.32 0.02 0 0.325 0.02 0 0.33 0.02 0 0.335 0.02 0 0.34 0.02 0 0.345 0.02 0 0.35 0.02 0 0.355 0.02 0 0.36 0.02 0 0.365 0.02 0 0.37 0.02 0 0.375 0.02 0 0.38 0.02 0 0.385 0.02 0 0.39 0.02 0 0.395 0.02 0 0.4 0.02 0 0.405 0.02 0 0.41 0.02 0 0.415 0.02 0 0.42 0.02 0 0.425 0.02 0 0.43 0.02 0 0.435 0.02 0 0.44 0.02 0 0.445 0.02 0 0.45 0.02 0 0.455 0.02 0 0.46 0.02 0 0.465 0.02 0 0.47 0.02 0 0.475 0.02 0 0.48 0.02 0 0.485 0.02 0 0.49 0.02 0 0.495 0.02 0 0.5 0.02 0 0.505 0.02 0 0.51 0.02 0 0.515 0.02 0 0.52 0.02 0 0.525 0.02 0 0.53 0.02 0 0.535 0.02 0 0.54 0.02 0 0.545 0.02 0 0.55 0.02 0 0.555 0.02 0 0.56 0.02 0 0.565 0.02 0 0.57 0.02 0 0.575 0.02 0 0.58 0.02 0 0.585 0.02 0 0.59 0.02 0 0.595 0.02 0 0.6 0.02 0 0.605 0.02 0 0.61 0.02 0 0.615 0.02 0 0.62 0.02 0 0.625 0.02 0 0.63 0.02 0 0.635 0.02 0 0.64 0.02 0 0.645 0.02 0 0.65 0.02 0 0.655 0.02 0 0.66 0.02 0 0.665 0.02 0 0.67 0.02 0 0.675 0.02 0 0.68 0.02 0 0.685 0.02 0 0.69 0.02 0 0.695 0.02 0 0.7 0.02 0 0.705 0.02 0 0.71 0.02 0 0.715 0.02 0 0.72 0.02 0 0.725 0.02 0 0.73 0.02 0 0.735 0.02 0 0.74 0.02 0 0.745 0.02 0 0.75 0.02 0 0.755 0.02 0 0.76 0.02 0 0.765 0.02 0 0.77 0.02 0 0.775 0.02 0 0.78 0.02 0 0.785 0.02 0 0.79 0.02 0 0.795 0.02 0 0.8 0.02 0 0.805 0.02 0 0.81 0.02 0 0.815 0.02 0 0.82 0.02 0 0.825 0.02 0 0.83 0.02 0 0.835 0.02 0 0.84 0.02 0 0.845 0.02 0 0.85 0.02 0 0.855 0.02 0 0.86 0.02 0 0.865 0.02 0 0.87 0.02 0 0.875 0.02 0 0.88 0.02 0 0.885 0.02 0 0.89 0.02 0 0.895 0.02 0 0.9 0.02 0 0.905 0.02 0 0.91 0.02 0 0.915 0.02 0 0.92 0.02 0 0.925 0.02 0 0.93 0.02 0 0.935 0.02 0 0.94 0.02 0 0.945 0.02 0 0.95 0.02 0 0.955 0.02 0 0.96 0.02 0 0.965 0.02 0 0.97 0.02 0 0.975 0.02 0 0.98 0.02 0 0.985 0.02 0 0.99 0.02 0 0.995 0.02 0 1 0.02 0 0 0.04 0 0.005 0.04 0 0.01 0.04 0 0.015 0.04 0 0.02 0.04 0 0.025 0.04 0 0.03 0.04 0 0.035 0.04 0 0.04 0.04 0 0.045 0.04 0 0.05 0.04 0 0.055 0.04 0 0.06 0.04 0 0.065 0.04 0 0.07 0.04 0 0.075 0.04 0 0.08 0.04 0 0.085 0.04 0 0.09 0.04 0 0.095 0.04 0 0.1 0.04 0 0.105 0.04 0 0.11 0.04 0 0.115 0.04 0 0.12 0.04 0 0.125 0.04 0 0.13 0.04 0 0.135 0.04 0 0.14 0.04 0 0.145 0.04 0 0.15 0.04 0 0.155 0.04 0 0.16 0.04 0 0.165 0.04 0 0.17 0.04 0 0.175 0.04 0 0.18 0.04 0 0.185 0.04 0 0.19 0.04 0 0.195 0.04 0 0.2 0.04 0 0.205 0.04 0 0.21 0.04 0 0.215 0.04 0 0.22 0.04 0 0.225 0.04 0 0.23 0.04 0 0.235 0.04 0 0.24 0.04 0 0.245 0.04 0 0.25 0.04 0 0.255 0.04 0 0.26 0.04 0 0.265 0.04 0 0.27 0.04 0 0.275 0.04 0 0.28 0.04 0 0.285 0.04 0 0.29 0.04 0 0.295 0.04 0 0.3 0.04 0 0.305 0.04 0 0.31 0.04 0 0.315 0.04 0 0.32 0.04 0 0.325 0.04 0 0.33 0.04 0 0.335 0.04 0 0.34 0.04 0 0.345 0.04 0 0.35 0.04 0 0.355 0.04 0 0.36 0.04 0 0.365 0.04 0 0.37 0.04 0 0.375 0.04 0 0.38 0.04 0 0.385 0.04 0 0.39 0.04 0 0.395 0.04 0 0.4 0.04 0 0.405 0.04 0 0.41 0.04 0 0.415 0.04 0 0.42 0.04 0 0.425 0.04 0 0.43 0.04 0 0.435 0.04 0 0.44 0.04 0 0.445 0.04 0 0.45 0.04 0 0.455 0.04 0 0.46 0.04 0 0.465 0.04 0 0.47 0.04 0 0.475 0.04 0 0.48 0.04 0 0.485 0.04 0 0.49 0.04 0 0.495 0.04 0 0.5 0.04 0 0.505 0.04 0 0.51 0.04 0 0.515 0.04 0 0.52 0.04 0 0.525 0.04 0 0.53 0.04 0 0.535 0.04 0 0.54 0.04 0 0.545 0.04 0 0.55 0.04 0 0.555 0.04 0 0.56 0.04 0 0.565 0.04 0 0.57 0.04 0 0.575 0.04 0 0.58 0.04 0 0.585 0.04 0 0.59 0.04 0 0.595 0.04 0 0.6 0.04 0 0.605 0.04 0 0.61 0.04 0 0.615 0.04 0 0.62 0.04 0 0.625 0.04 0 0.63 0.04 0 0.635 0.04 0 0.64 0.04 0 0.645 0.04 0 0.65 0.04 0 0.655 0.04 0 0.66 0.04 0 0.665 0.04 0 0.67 0.04 0 0.675 0.04 0 0.68 0.04 0 0.685 0.04 0 0.69 0.04 0 0.695 0.04 0 0.7 0.04 0 0.705 0.04 0 0.71 0.04 0 0.715 0.04 0 0.72 0.04 0 0.725 0.04 0 0.73 0.04 0 0.735 0.04 0 0.74 0.04 0 0.745 0.04 0 0.75 0.04 0 0.755 0.04 0 0.76 0.04 0 0.765 0.04 0 0.77 0.04 0 0.775 0.04 0 0.78 0.04 0 0.785 0.04 0 0.79 0.04 0 0.795 0.04 0 0.8 0.04 0 0.805 0.04 0 0.81 0.04 0 0.815 0.04 0 0.82 0.04 0 0.825 0.04 0 0.83 0.04 0 0.835 0.04 0 0.84 0.04 0 0.845 0.04 0 0.85 0.04 0 0.855 0.04 0 0.86 0.04 0 0.865 0.04 0 0.87 0.04 0 0.875 0.04 0 0.88 0.04 0 0.885 0.04 0 0.89 0.04 0 0.895 0.04 0 0.9 0.04 0 0.905 0.04 0 0.91 0.04 0 0.915 0.04 0 0.92 0.04 0 0.925 0.04 0 0.93 0.04 0 0.935 0.04 0 0.94 0.04 0 0.945 0.04 0 0.95 0.04 0 0.955 0.04 0 0.96 0.04 0 0.965 0.04 0 0.97 0.04 0 0.975 0.04 0 0.98 0.04 0 0.985 0.04 0 0.99 0.04 0 0.995 0.04 0 1 0.04 0 0 0.06 0 0.005 0.06 0 0.01 0.06 0 0.015 0.06 0 0.02 0.06 0 0.025 0.06 0 0.03 0.06 0 0.035 0.06 0 0.04 0.06 0 0.045 0.06 0 0.05 0.06 0 0.055 0.06 0 0.06 0.06 0 0.065 0.06 0 0.07 0.06 0 0.075 0.06 0 0.08 0.06 0 0.085 0.06 0 0.09 0.06 0 0.095 0.06 0 0.1 0.06 0 0.105 0.06 0 0.11 0.06 0 0.115 0.06 0 0.12 0.06 0 0.125 0.06 0 0.13 0.06 0 0.135 0.06 0 0.14 0.06 0 0.145 0.06 0 0.15 0.06 0 0.155 0.06 0 0.16 0.06 0 0.165 0.06 0 0.17 0.06 0 0.175 0.06 0 0.18 0.06 0 0.185 0.06 0 0.19 0.06 0 0.195 0.06 0 0.2 0.06 0 0.205 0.06 0 0.21 0.06 0 0.215 0.06 0 0.22 0.06 0 0.225 0.06 0 0.23 0.06 0 0.235 0.06 0 0.24 0.06 0 0.245 0.06 0 0.25 0.06 0 0.255 0.06 0 0.26 0.06 0 0.265 0.06 0 0.27 0.06 0 0.275 0.06 0 0.28 0.06 0 0.285 0.06 0 0.29 0.06 0 0.295 0.06 0 0.3 0.06 0 0.305 0.06 0 0.31 0.06 0 0.315 0.06 0 0.32 0.06 0 0.325 0.06 0 0.33 0.06 0 0.335 0.06 0 0.34 0.06 0 0.345 0.06 0 0.35 0.06 0 0.355 0.06 0 0.36 0.06 0 0.365 0.06 0 0.37 0.06 0 0.375 0.06 0 0.38 0.06 0 0.385 0.06 0 0.39 0.06 0 0.395 0.06 0 0.4 0.06 0 0.405 0.06 0 0.41 0.06 0 0.415 0.06 0 0.42 0.06 0 0.425 0.06 0 0.43 0.06 0 0.435 0.06 0 0.44 0.06 0 0.445 0.06 0 0.45 0.06 0 0.455 0.06 0 0.46 0.06 0 0.465 0.06 0 0.47 0.06 0 0.475 0.06 0 0.48 0.06 0 0.485 0.06 0 0.49 0.06 0 0.495 0.06 0 0.5 0.06 0 0.505 0.06 0 0.51 0.06 0 0.515 0.06 0 0.52 0.06 0 0.525 0.06 0 0.53 0.06 0 0.535 0.06 0 0.54 0.06 0 0.545 0.06 0 0.55 0.06 0 0.555 0.06 0 0.56 0.06 0 0.565 0.06 0 0.57 0.06 0 0.575 0.06 0 0.58 0.06 0 0.585 0.06 0 0.59 0.06 0 0.595 0.06 0 0.6 0.06 0 0.605 0.06 0 0.61 0.06 0 0.615 0.06 0 0.62 0.06 0 0.625 0.06 0 0.63 0.06 0 0.635 0.06 0 0.64 0.06 0 0.645 0.06 0 0.65 0.06 0 0.655 0.06 0 0.66 0.06 0 0.665 0.06 0 0.67 0.06 0 0.675 0.06 0 0.68 0.06 0 0.685 0.06 0 0.69 0.06 0 0.695 0.06 0 0.7 0.06 0 0.705 0.06 0 0.71 0.06 0 0.715 0.06 0 0.72 0.06 0 0.725 0.06 0 0.73 0.06 0 0.735 0.06 0 0.74 0.06 0 0.745 0.06 0 0.75 0.06 0 0.755 0.06 0 0.76 0.06 0 0.765 0.06 0 0.77 0.06 0 0.775 0.06 0 0.78 0.06 0 0.785 0.06 0 0.79 0.06 0 0.795 0.06 0 0.8 0.06 0 0.805 0.06 0 0.81 0.06 0 0.815 0.06 0 0.82 0.06 0 0.825 0.06 0 0.83 0.06 0 0.835 0.06 0 0.84 0.06 0 0.845 0.06 0 0.85 0.06 0 0.855 0.06 0 0.86 0.06 0 0.865 0.06 0 0.87 0.06 0 0.875 0.06 0 0.88 0.06 0 0.885 0.06 0 0.89 0.06 0 0.895 0.06 0 0.9 0.06 0 0.905 0.06 0 0.91 0.06 0 0.915 0.06 0 0.92 0.06 0 0.925 0.06 0 0.93 0.06 0 0.935 0.06 0 0.94 0.06 0 0.945 0.06 0 0.95 0.06 0 0.955 0.06 0 0.96 0.06 0 0.965 0.06 0 0.97 0.06 0 0.975 0.06 0 0.98 0.06 0 0.985 0.06 0 0.99 0.06 0 0.995 0.06 0 1 0.06 0 0 0.08 0 0.005 0.08 0 0.01 0.08 0 0.015 0.08 0 0.02 0.08 0 0.025 0.08 0 0.03 0.08 0 0.035 0.08 0 0.04 0.08 0 0.045 0.08 0 0.05 0.08 0 0.055 0.08 0 0.06 0.08 0 0.065 0.08 0 0.07 0.08 0 0.075 0.08 0 0.08 0.08 0 0.085 0.08 0 0.09 0.08 0 0.095 0.08 0 0.1 0.08 0 0.105 0.08 0 0.11 0.08 0 0.115 0.08 0 0.12 0.08 0 0.125 0.08 0 0.13 0.08 0 0.135 0.08 0 0.14 0.08 0 0.145 0.08 0 0.15 0.08 0 0.155 0.08 0 0.16 0.08 0 0.165 0.08 0
[...]
			<PointData Scalars="VitesseX">
				<DataArray Name="VitesseX" type="Float32" format="ascii">
 0 -2.72444e-14 -2.84788e-14 3.42375e-14 3.40819e-14 -2.30088e-14 4.31879e-14 -2.57659e-14 -1.34208e-14 3.28292e-14 4.85684e-14 -3.64314e-14 6.421e-14 3.49863e-14 -1.54355e-13 3.21425e-14 -9.95434e-14 -1.49294e-13 -1.31942e-14 -8.85581e-14 -9.80614e-14 -1.61651e-13 -1.15984e-14 -4.835e-14 -1.41912e-13 2.5943e-14 -3.19342e-13 -3.33578e-14 -3.00372e-13 1.85897e-13 -1.45148e-13 -1.73366e-13 -1.74104e-13 -2.73114e-13 -4.51201e-14 -2.22293e-13 5.06227e-14 -7.37354e-14 -2.65799e-14 1.02854e-13 7.73099e-14 9.91399e-13 5.58862e-12 3.60851e-11 2.10071e-10 1.15936e-09 6.05949e-09 2.99451e-08 1.39607e-07 6.12263e-07 2.51779e-06 9.6728e-06 3.45675e-05 0.000114333 0.000347918 0.000967343 0.0024388 0.00553403 0.0112417 0.0204268 0.0333975 0.0497614 0.0687092 0.0894182 0.111265 0.133842 0.156902 0.180301 0.203937 0.227747 0.251695 0.275759 0.299923 0.324183 0.348538 0.372995 0.397565 0.422272 0.447062 0.471319 0.495524 0.519245 0.542936 0.566244 0.589614 0.612625 0.635589 0.658327 0.680825 0.703284 0.725336 0.747273 0.769034 0.790086 0.811148 0.831559 0.850859 0.870107 0.886599 0.901208 0.913571 0.921226 0.926932 0.930297 0.93107 0.931583 0.931691 0.931614 0.931413 0.931121 0.930788 0.930444 0.930101 0.929764 0.929455 0.929192 0.928978 0.928804 0.928654 0.92853 0.92843 0.928348 0.928277 0.928208 0.928131 0.928025 0.927856 0.927568 0.9271 0.926445 0.92672 0.930325 0.930344 0.927532 0.927104 0.927245 0.927451 0.927552 0.927626 0.927677 0.927637 0.92755 0.927534 0.927619 0.92762 0.927606 0.927589 0.92756 0.927491 0.927345 0.927071 0.926534 0.925451 0.923272 0.918947 0.910513 0.894534 0.865569 0.816367 0.739732 0.632542 0.500723 0.360533 0.232475 0.13204 0.0655661 0.0289423 0.0117981 0.00461039 0.00176716 0.000671573 0.00025414 9.59171e-05 3.61204e-05 1.35719e-05 5.08716e-06 1.9017e-06 7.08764e-07 2.63276e-07 9.74359e-08 3.5914e-08 1.31796e-08 4.81344e-09 1.7489e-09 6.31781e-10 2.26759e-10 8.05499e-11 2.8613e-11 1.02074e-11 3.2129e-12 5.94378e-13 9.84648e-13 1.20217e-13 -2.03135e-13 7.4951e-13 2.99889e-13 -3.81821e-13 6.78037e-13 1.62588e-13 -1.77456e-13 0 0 -5.98318e-15 2.07811e-15 -4.14268e-15 1.86425e-14 2.25527e-14 -7.68428e-15 -3.61882e-15 -8.45863e-15 1.72855e-14 -1.67286e-14 1.00198e-13 -2.04846e-14 -9.07642e-14 3.50498e-14 -4.48586e-14 -9.13311e-14 -6.73116e-14 -9.1101e-14 -8.94446e-14 -3.40179e-14 -3.44448e-14 -6.23937e-14 -1.55363e-13 -3.75436e-14 -1.804e-13 6.0044e-14 -3.08229e-13 3.07571e-14 -2.07779e-13 -6.09452e-14 -2.23349e-13 -1.74807e-13 -1.89072e-13 -1.91092e-13 -5.78569e-14 -1.38016e-13 6.29092e-14 9.88187e-14 -1.68526e-13 2.0503e-13 7.54011e-13 5.82524e-12 3.58547e-11 2.10108e-10 1.15975e-09 6.05932e-09 2.99451e-08 1.39608e-07 6.12263e-07 2.51779e-06 9.6728e-06 3.45675e-05 0.000114333 0.000347918 0.000967343 0.0024388 0.00553403 0.0112417 0.0204268 0.0333975 0.0497614 0.0687092 0.0894182 0.111265 0.133842 0.156902 0.180301 0.203937 0.227747 0.251695 0.275759 0.299923 0.324183 0.348538 0.372995 0.397565 0.422272 0.447062 0.471319 0.495524 0.519245 0.542936 0.566244 0.589614 0.612625 0.635589 0.658327 0.680825 0.703284 0.725336 0.747273 0.769034 0.790086 0.811148 0.831559 0.850859 0.870107 0.886599 0.901208 0.913571 0.921226 0.926932 0.930297 0.93107 0.931583 0.931691 0.931614 0.931413 0.931121 0.930788 0.930444 0.930101 0.929764 0.929455 0.929192 0.928978 0.928804 0.928654 0.92853 0.92843 0.928348 0.928277 0.928208 0.928131 0.928025 0.927856 0.927568 0.9271 0.926445 0.92672 0.930325 0.930344 0.927532 0.927104 0.927245 0.927451 0.927552 0.927626 0.927677 0.927637 0.92755 0.927534 0.927619 0.92762 0.927606 0.927589 0.92756 0.927491 0.927345 0.927071 0.926534 0.925451 0.923272 0.918947 0.910513 0.894534 0.865569 0.816367 0.739732 0.632542 0.500723 0.360533 0.232475 0.13204 0.0655661 0.0289423 0.0117981 0.00461039 0.00176716 0.000671573 0.00025414 9.59171e-05 3.61204e-05 1.35719e-05 5.08716e-06 1.9017e-06 7.08764e-07 2.63276e-07 9.74358e-08 3.59146e-08 1.31796e-08 4.81335e-09 1.74872e-09 6.31732e-10 2.26848e-10 8.10599e-11 2.84658e-11 9.81245e-12 3.48524e-12 1.29901e-12 -4.71038e-13 7.4201e-13 4.14203e-13 2.63007e-13 -1.57735e-13 1.08649e-12 -3.82161e-13 3.81778e-13 2.15223e-13 0 0 6.54652e-15 -5.26907e-15 -6.47805e-15 -2.32813e-14 -3.69025e-14 2.66457e-14 -1.39645e-14 3.03089e-14 4.53884e-14 -6.54178e-14 -3.37341e-14 4.88115e-14 2.80685e-14 -1.13471e-13 5.75295e-14 1.94007e-14 -8.58586e-14 -3.07706e-15 -8.32002e-14 -1.14435e-13 -2.09063e-14 -1.20185e-13 -8.60602e-14 2.36932e-14 -4.09888e-14 -2.70799e-13 -1.52185e-13 -2.768e-13 1.60026e-14 -9.55131e-14 -1.68397e-13 -2.80118e-14 -1.90208e-13 -1.22435e-13 -1.80701e-13 1.09634e-13 -9.15103e-14 -9.76805e-14 -3.89413e-14 1.18568e-13 5.53266e-13 5.83488e-12 3.60033e-11 2.10214e-10 1.15952e-09 6.05944e-09 2.99451e-08 1.39608e-07 6.12263e-07 2.51779e-06 9.6728e-06 3.45675e-05 0.000114333 0.000347918 0.000967343 0.0024388 0.00553403 0.0112417 0.0204268 0.0333975 0.0497614 0.0687092 0.0894182 0.111265 0.133842 0.156902 0.180301 0.203937 0.227747 0.251695 0.275759 0.299923 0.324183 0.348538 0.372995 0.397565 0.422272 0.447062 0.471319 0.495524 0.519245 0.542936 0.566244 0.589614 0.612625 0.635589 0.658327 0.680825 0.703284 0.725336 0.747273 0.769034 0.790086 0.811148 0.831559 0.850859 0.870107 0.886599 0.901208 0.913571 0.921226 0.926932 0.930297 0.93107 0.931583 0.931691 0.931614 0.931413 0.931121 0.930788 0.930444 0.930101 0.929764 0.929455 0.929192 0.928978 0.928804 0.928654 0.92853 0.92843 0.928348 0.928277 0.928208 0.928131 0.928025 0.927856 0.927568 0.9271 0.926445 0.92672 0.930325 0.930344 0.927532 0.927104 0.927245 0.927451 0.927552 0.927626 0.927677 0.927637 0.92755 0.927534 0.927619 0.92762 0.927606 0.927589 0.92756 0.927491 0.927345 0.927071 0.926534 0.925451 0.923272 0.918947 0.910513 0.894534 0.865569 0.816367 0.739732 0.632542 0.500723 0.360533 0.232475 0.13204 0.0655661 0.0289423 0.0117981 0.00461039 0.00176716 0.000671573 0.00025414 9.59171e-05 3.61204e-05 1.35719e-05 5.08716e-06 1.9017e-06 7.08764e-07 2.63276e-07 9.74359e-08 3.59146e-08 1.31796e-08 4.81374e-09 1.74882e-09 6.31972e-10 2.2689e-10 8.09129e-11 2.84296e-11 9.82711e-12 3.51146e-12 1.07329e-12 2.23556e-13 2.02634e-13 3.2257e-13 2.1375e-13 4.66793e-13 -2.6645e-13 -1.44721e-13 6.3442e-13 -1.65939e-13 0 0 -8.63785e-15 -1.78156e-14 -5.3264e-15 -3.8598e-14 -5.2917e-14 2.12305e-14 -4.44573e-14 -3.14266e-14 -4.81356e-15 1.46304e-14 1.54102e-14 4.38563e-14 -4.89794e-15 -7.73444e-15 4.37858e-14 3.36813e-14 -8.53934e-14 -8.90534e-14 4.76219e-14 -7.56212e-14 3.13429e-14 -3.24477e-14 -5.54133e-14 -1.0019e-13 -9.28374e-14 -1.81373e-13 -1.86175e-13 -3.12298e-13 -1.78633e-14 -4.05361e-14 3.91045e-14 -2.22444e-13 -1.27274e-13 -4.70184e-14 -2.5603e-13 5.08966e-14 -2.16586e-13 -1.35634e-15 2.6781e-14 -2.13087e-13 8.89118e-13 5.92818e-12 3.62371e-11 2.1034e-10 1.15961e-09 6.05943e-09 2.9945e-08 1.39608e-07 6.12263e-07 2.51779e-06 9.6728e-06 3.45675e-05 0.000114333 0.000347918 0.000967343 0.0024388 0.00553403 0.0112417 0.0204268 0.0333975 0.0497614 0.0687092 0.0894182 0.111265 0.133842 0.156902 0.180301 0.203937 0.227747 0.251695 0.275759 0.299923 0.324183 0.348538 0.372995 0.397565 0.422272 0.447062 0.471319 0.495524 0.519245 0.542936 0.566244 0.589614 0.612625 0.635589 0.658327 0.680825 0.703284 0.725336 0.747273 0.769034 0.790086 0.811148 0.831559 0.850859 0.870107 0.886599 0.901208 0.913571 0.921226 0.926932 0.930297 0.93107 0.931583 0.931691 0.931614 0.931413 0.931121 0.930788 0.930444 0.930101 0.929764 0.929455 0.929192 0.928978 0.928804 0.928654 0.92853 0.92843 0.928348 0.928277 0.928208 0.928131 0.928025 0.927856 0.927568 0.9271 0.926445 0.92672 0.930325 0.930344 0.927532 0.927104 0.927245 0.927451 0.927552 0.927626 0.927677 0.927637 0.92755 0.927534 0.927619 0.92762 0.927606 0.927589 0.92756 0.927491 0.927345 0.927071 0.926534 0.925451 0.923272 0.918947 0.910513 0.894534 0.865569 0.816367 0.739732 0.632542 0.500723 0.360533 0.232475 0.13204 0.0655661 0.0289423 0.0117981 0.00461039 0.00176716 0.000671573 0.00025414 9.59171e-05 3.61204e-05 1.35719e-05 5.08716e-06 1.9017e-06 7.08764e-07 2.63276e-07 9.74361e-08 3.59144e-08 1.31799e-08 4.81351e-09 1.74921e-09 6.32056e-10 2.26825e-10 8.08403e-11 2.89834e-11 9.7407e-12 3.28322e-12 1.17592e-12 6.1864e-13 -3.76038e-13 -7.12977e-13 2.85059e-13 -1.25375e-14 7.60143e-14 8.18e-13 -2.99714e-13 -5.69218e-13 0 0 -1.37726e-14 -1.29581e-14 -3.90802e-14 -1.0933e-14 -2.33438e-14 -6.19263e-14 -3.03864e-14 -4.6206e-14 -1.93423e-14 -2.76745e-16 7.89211e-14 -1.67747e-14 -6.93105e-14 1.83904e-13 -3.20806e-14 1.23543e-14 2.47751e-14 -8.75963e-14 6.55991e-15 -1.03964e-13 3.7657e-14 2.20987e-14 -9.45707e-14 -9.9661e-14 -2.1224e-13 1.44284e-13 -2.99247e-13 1.80034e-14 -3.01675e-13 -3.93608e-14 -3.54078e-14 -1.73386e-13 -1.91615e-13 -8.21591e-14 -1.7587e-13 -2.06583e-14 6.44676e-14 8.28091e-14 -1.25521e-13 -1.48118e-13 8.27607e-13 5.8979e-12 3.61812e-11 2.10287e-10 1.15986e-09 6.05934e-09 2.9945e-08 1.39608e-07 6.12263e-07 2.51779e-06 9.6728e-06 3.45675e-05 0.000114333 0.000347918 0.000967343 0.0024388 0.00553403 0.0112417 0.0204268 0.0333975 0.0497614 0.0687092 0.0894182 0.111265 0.133842 0.156902 0.180301 0.203937 0.227747 0.251695 0.275759 0.299923 0.324183 0.348538 0.372995 0.397565 0.422272 0.447062 0.471319 0.495524 0.519245 0.542936 0.566244 0.589614 0.612625 0.635589 0.658327 0.680825 0.703284 0.725336 0.747273 0.769034 0.790086 0.811148 0.831559 0.850859 0.870107 0.886599 0.901208 0.913571 0.921226 0.926932 0.930297 0.93107 0.931583 0.931691 0.931614 0.931413 0.931121 0.930788 0.930444 0.930101 0.929764 0.929455 0.929192 0.928978 0.928804 0.928654 0.92853 0.92843 0.928348 0.928277 0.928208 0.928131 0.928025 0.927856 0.927568 0.9271 0.926445 0.92672 0.930325 0.930344 0.927532 0.927104 0.927245 0.927451 0.927552 0.927626 0.927677 0.927637 0.92755 0.927534 0.927619 0.92762 0.927606 0.927589 0.92756 0.927491 0.927345 0.927071 0.926534 0.925451 0.923272 0.918947 0.910513 0.894534 0.865569 0.816367 0.739732 0.632542 0.500723 0.360533 0.232475 0.13204 0.0655661 0.0289423 0.0117981 0.00461039 0.00176716 0.000671573 0.00025414 9.59171e-05 3.61204e-05 1.35719e-05 5.08716e-06 1.9017e-06 7.08764e-07 2.63276e-07 9.74361e-08 3.59147e-08 1.31798e-08 4.81348e-09 1.74906e-09 6.3211e-10 2.26829e-10 8.1332e-11 2.89395e-11 9.78927e-12 3.1007e-12 1.05612e-12 -5.78204e-13 2.91358e-13 -1.85468e-13 -7.82559e-13 -1.49888e-13 1.38924e-12 2.29656e-13 -2.06933e-13 5.70048e-14 0 0 -1.24545e-14 -3.34582e-14 -3.79408e-14 5.56418e-15 -8.27727e-14 -5.44658e-14 -1.83153e-14 3.45553e-14 5.99775e-14 -7.86244e-14 -1.77274e-13 8.15404e-14 1.43827e-13 -6.812e-14 8.51858e-14 7.92663e-14 3.39488e-14 1.65768e-13 -1.58193e-13 -3.15581e-13 -1.21946e-13 -1.80891e-14 1.19407e-14 -1.838e-14 6.59594e-14 -3.29716e-13 5.25861e-14 -2.54883e-13 6.58376e-14 -2.11933e-13 -2.12487e-13 2.17603e-13 -4.04066e-13 2.19119e-14 -3.07662e-13 4.02812e-13 1.79534e-13 -2.51248e-13 5.7419e-14 3.4324e-14 4.66889e-13 5.54735e-12 3.62705e-11 2.10178e-10 1.15942e-09 6.05955e-09 2.99452e-08 1.39608e-07 6.12264e-07 2.51779e-06 9.6728e-06 3.45675e-05 0.000114333 0.000347918 0.000967343 0.0024388 0.00553403 0.0112417 0.0204268 0.0333975 0.0497614 0.0687092 0.0894182 0.111265 0.133842 0.156902 0.180301 0.203937 0.227747 0.251695 0.275759 0.299923 0.324183 0.348538 0.372995 0.397565 0.422272 0.447062 0.471319 0.495524 0.519245 0.542936 0.566244 0.589614 0.612625 0.635589 0.658327 0.680825 0.703284 0.725336 0.747273 0.769034 0.790086 0.811148 0.831559 0.850859 0.870107 0.886599 0.901208 0.913571 0.921226 0.926932 0.930297 0.93107 0.931583 0.931691 0.931614 0.931413 0.931121 0.930788 0.930444 0.930101 0.929764 0.929455 0.929192 0.928978 0.928804 0.928654 0.92853 0.92843 0.928348 0.928277 0.928208 0.928131 0.928025 0.927856 0.927568 0.9271 0.926445 0.92672 0.930325 0.930344 0.927532 0.927104 0.927245 0.927451 0.927552 0.927626 0.927677 0.927637 0.92755 0.927534 0.927619 0.92762 0.927606 0.927589 0.92756 0.927491 0.927345 0.927071 0.926534 0.925451 0.923272 0.918947 0.910513 0.894534 0.865569 0.816367 0.739732 0.632542 0.500723 0.360533 0.232475 0.13204 0.0655661 0.0289423 0.0117981 0.00461039 0.00176716 0.000671573 0.00025414 9.59171e-05 3.61204e-05 1.35719e-05 5.08716e-06 1.90169e-06 7.08764e-07 2.63276e-07 9.7436e-08 3.59148e-08 1.31794e-08 4.81417e-09 1.74881e-09 6.32367e-10 2.26851e-10 8.12394e-11 2.84529e-11 1.03339e-11 2.90031e-12 -9.66615e-14 -1.9852e-14 3.76257e-13 6.68619e-13 -1.48424e-12 1.27424e-12 -4.61268e-13 -2.37706e-14 8.53436e-13 3.12666e-13 0
				</DataArray>
				<DataArray Name="VitesseY" type="Float32" format="ascii">