<?xml version="1.0"?>
<VTKFile type="PolyData">
	<PolyData>
		<Piece NumberOfPoints="1206" NumberOfPolys="1000">
			<Points>
				<DataArray type="Float32" NumberOfComponents="3" format="ascii">
 0 0 0 0.005 0 0 0.01 0 0 0.015 0 0 0.02 0 0 0.025 0 0 0.03 0 0 0.035 0 0 0.04 0 0 0.045 0 0 0.05 0 0 0.055 0 0 0.06 0 0 0.065 0 0 0.07 0 0 0.075 0 0 0.08 0 0 0.085 0 0 0.09 0 0 0.095 0 0 0.1 0 0 0.105 0 0 0.11 0 0 0.115 0 0 0.12 0 0 0.125 0 0 0.13 0 0 0.135 0 0 0.14 0 0 0.145 0 0 0.15 0 0 0.155 0 0 0.16 0 0 0.165 0 0 0.17 0 0 0.175 0 0 0.18 0 0 0.185 0 0 0.19 0 0 0.195 0 0 0.2 0 0 0.205 0 0 0.21 0 0 0.215 0 0 0.22 0 0 0.225 0 0 0.23 0 0 0.235 0 0 0.24 0 0 0.245 0 0 0.25 0 0 0.255 0 0 0.26 0 0 0.265 0 0 0.27 0 0 0.275 0 0 0.28 0 0 0.285 0 0 0.29 0 0 0.295 0 0 0.3 0 0 0.305 0 0 0.31 0 0 0.315 0 0 0.32 0 0 0.325 0 0 0.33 0 0 0.335 0 0 0.34 0 0 0.345 0 0 0.35 0 0 0.355 0 0 0.36 0 0 0.365 0 0 0.37 0 0 0.375 0 0 0.38 0 0 0.385 0 0 0.39 0 0 0.395 0 0 0.4 0 0 0.405 0 0 0.41 0 0 0.415 0 0 0.42 0 0 0.425 0 0 0.43 0 0 0.435 0 0 0.44 0 0 0.445 0 0 0.45 0 0 0.455 0 0 0.46 0 0 0.465 0 0 0.47 0 0 0.475 0 0 0.48 0 0 0.485 0 0 0.49 0 0 0.495 0 0 0.5 0 0 0.505 0 0 0.51 0 0 0.515 0 0 0.52 0 0 0.525 0 0 0.53 0 0 0.535 0 0 0.54 0 0 0.545 0 0 0.55 0 0 0.555 0 0 0.56 0 0 0.565 0 0 0.57 0 0 0.575 0 0 0.58 0 0 0.585 0 0 0.59 0 0 0.595 0 0 0.6 0 0 0.605 0 0 0.61 0 0 0.615 0 0 0.62 0 0 0.625 0 0 0.63 0 0 0.635 0 0 0.64 0 0 0.645 0 0 0.65 0 0 0.655 0 0 0.66 0 0 0.665 0 0 0.67 0 0 0.675 0 0 0.68 0 0 0.685 0 0 0.69 0 0 0.695 0 0 0.7 0 0 0.705 0 0 0.71 0 0 0.715 0 0 0.72 0 0 0.725 0 0 0.73 0 0 0.735 0 0 0.74 0 0 0.745 0 0 0.75 0 0 0.755 0 0 0.76 0 0 0.765 0 0 0.77 0 0 0.775 0 0 0.78 0 0 0.785 0 0 0.79 0 0 0.795 0 0 0.8 0 0 0.805 0 0 0.81 0 0 0.815 0 0 0.82 0 0 0.825 0 0 0.83 0 0 0.835 0 0 0.84 0 0 0.845 0 0 0.85 0 0 0.855 0 0 0.86 0 0 0.865 0 0 0.87 0 0 0.875 0 0 0.88 0 0 0.885 0 0 0.89 0 0 0.895 0 0 0.9 0 0 0.905 0 0 0.91 0 0 0.915 0 0 0.92 0 0 0.925 0 0 0.93 0 0 0.935 0 0 0.94 0 0 0.945 0 0 0.95 0 0 0.955 0 0 0.96 0 0 0.965 0 0 0.97 0 0 0.975 0 0 0.98 0 0 0.985 0 0 0.99 0 0 0.995 0 0 1 0 0 0 0.02 0 0.005 0.02 0 0.01 0.02 0 0.015 0.02 0 0.02 0.02 0 0.025 0.02 0 0.03 0.02 0 0.035 0.02 0 0.04 0.02 0 0.045 0.02 0 0.05 0.02 0 0.055 0.02 0 0.06 0.02 0 0.065 0.02 0 0.07 0.02 0 0.075 0.02 0 0.08 0.02 0 0.085 0.02 0 0.09 0.02 0 0.095 0.02 0 0.1 0.02 0 0.105 0.02 0 0.11 0.02 0 0.115 0.02 0 0.12 0.02 0 0.125 0.02 0 0.13 0.02 0 0.135 0.02 0 0.14 0.02 0 0.145 0.02 0 0.15 0.02 0 0.155 0.02 0 0.16 0.02 0 0.165 0.02 0 0.17 0.02 0 0.175 0.02 0 0.18 0.02 0 0.185 0.02 0 0.19 0.02 0 0.195 0.02 0 0.2 0.02 0 0.205 0.02 0 0.21 0.02 0 0.215 0.02 0 0.22 0.02 0 0.225 0.02 0 0.23 0.02 0 0.235 0.02 0 0.24 0.02 0 0.245 0.02 0 0.25 0.02 0 0.255 0.02 0 0.26 0.02 0 0.265 0.02 0 0.27 0.02 0 0.275 0.02 0 0.28 0.02 0 0.285 0.02 0 0.29 0.02 0 0.295 0.02 0 0.3 0.02 0 0.305 0.02 0 0.31 0.02 0 0.315 0.02 0 0.32 0.02 0 0.325 0.02 0 0.33 0.02 0 0.335 0.02 0 0.34 0.02 0 0.345 0.02 0 0.35 0.02 0 0.355 0.02 0 0.36 0.02 0 0.365 0.02 0 0.37 0.02 0 0.375 0.02 0 0.38 0.02 0 0.385 0.02 0 0.39 0.02 0 0.395 0.02 0 0.4 0.02 0 0.405 0.02 0 0.41 0.02 0 0.415 0.02 0 0.42 0.02 0 0.425 0.02 0 0.43 0.02 0 0.435 0.02 0 0.44 0.02 0 0.445 0.02 0 0.45 0.02 0 0.455 0.02 0 0.46 0.02 0 0.465 0.02 0 0.47 0.02 0 0.475 0.02 0 0.48 0.02 0 0.485 0.02 0 0.49 0.02 0 0.495 0.02 0 0.5 0.02 0 0.505 0.02 0 0.51 0.02 0 0.515 0.02 0 0.52 0.02 0 0.525 0.02 0 0.53 0.02 0 0.535 0.02 0 0.54 0.02 0 0.545 0.02 0 0.55 0.02 0 0.555 0.02 0 0.56 0.02 0 0.565 0.02 0 0.57 0.02 0 0.575 0.02 0 0.58 0.02 0 0.585 0.02 0 0.59 0.02 0 0.595 0.02 0 0.6 0.02 0 0.605 0.02 0 0.61 0.02 0 0.615 0.02 0 0.62 0.02 0 0.625 0.02 0 0.63 0.02 0 0.635 0.02 0 0.64 0.02 0 0.645 0.02 0 0.65 0.02 0 0.655 0.02 0 0.66 0.02 0 0.665 0.02 0 0.67 0.02 0 0.675 0.02 0 0.68 0.02 0 0.685 0.02 0 0.69 0.02 0 0.695 0.02 0 0.7 0.02 0 0.705 0.02 0 0.71 0.02 0 0.715 0.02 0 0.72 0.02 0 0.725 0.02 0 0.73 0.02 0 0.735 0.02 0 0.74 0.02 0 0.745 0.02 0 0.75 0.02 0 0.755 0.02 0 0.76 0.02 0 0.765 0.02 0 0.77 0.02 0 0.775 0.02 0 0.78 0.02 0 0.785 0.02 0 0.79 0.02 0 0.795 0.02 0 0.8 0.02 0 0.805 0.02 0 0.81 0.02 0 0.815 0.02 0 0.82 0.02 0 0.825 0.02 0 0.83 0.02 0 0.835 0.02 0 0.84 0.02 0 0.845 0.02 0 0.85 0.02 0 0.855 0.02 0 0.86 0.02 0 0.865 0.02 0 0.87 0.02 0 0.875 0.02 0 0.88 0.02 0 0.885 0.02 0 0.89 0.02 0 0.895 0.02 0 0.9 0.02 0 0.905 0.02 0 0.91 0.02 0 0.915 0.02 0 0.92 0.02 0 0.925 0.02 0 0.93 0.02 0 0.935 0.02 0 0.94 0.02 0 0.945 0.02 0 0.95 0.02 0 0.955 0.02 0 0.96 0.02 0 0.965 0.02 0 0.97 0.02 0 0.975 0.02 0 0.98 0.02 0 0.985 0.02 0 0.99 0.02 0 0.995 0.02 0 1 0.02 0 0 0.04 0 0.005 0.04 0 0.01 0.04 0 0.015 0.04 0 0.02 0.04 0 0.025 0.04 0 0.03 0.04 0 0.035 0.04 0 0.04 0.04 0 0.045 0.04 0 0.05 0.04 0 0.055 0.04 0 0.06 0.04 0 0.065 0.04 0 0.07 0.04 0 0.075 0.04 0 0.08 0.04 0 0.085 0.04 0 0.09 0.04 0 0.095 0.04 0 0.1 0.04 0 0.105 0.04 0 0.11 0.04 0 0.115 0.04 0 0.12 0.04 0 0.125 0.04 0 0.13 0.04 0 0.135 0.04 0 0.14 0.04 0 0.145 0.04 0 0.15 0.04 0 0.155 0.04 0 0.16 0.04 0 0.165 0.04 0 0.17 0.04 0 0.175 0.04 0 0.18 0.04 0 0.185 0.04 0 0.19 0.04 0 0.195 0.04 0 0.2 0.04 0 0.205 0.04 0 0.21 0.04 0 0.215 0.04 0 0.22 0.04 0 0.225 0.04 0 0.23 0.04 0 0.235 0.04 0 0.24 0.04 0 0.245 0.04 0 0.25 0.04 0 0.255 0.04 0 0.26 0.04 0 0.265 0.04 0 0.27 0.04 0 0.275 0.04 0 0.28 0.04 0 0.285 0.04 0 0.29 0.04 0 0.295 0.04 0 0.3 0.04 0 0.305 0.04 0 0.31 0.04 0 0.315 0.04 0 0.32 0.04 0 0.325 0.04 0 0.33 0.04 0 0.335 0.04 0 0.34 0.04 0 0.345 0.04 0 0.35 0.04 0 0.355 0.04 0 0.36 0.04 0 0.365 0.04 0 0.37 0.04 0 0.375 0.04 0 0.38 0.04 0 0.385 0.04 0 0.39 0.04 0 0.395 0.04 0 0.4 0.04 0 0.405 0.04 0 0.41 0.04 0 0.415 0.04 0 0.42 0.04 0 0.425 0.04 0 0.43 0.04 0 0.435 0.04 0 0.44 0.04 0 0.445 0.04 0 0.45 0.04 0 0.455 0.04 0 0.46 0.04 0 0.465 0.04 0 0.47 0.04 0 0.475 0.04 0 0.48 0.04 0 0.485 0.04 0 0.49 0.04 0 0.495 0.04 0 0.5 0.04 0 0.505 0.04 0 0.51 0.04 0 0.515 0.04 0 0.52 0.04 0 0.525 0.04 0 0.53 0.04 0 0.535 0.04 0 0.54 0.04 0 0.545 0.04 0 0.55 0.04 0 0.555 0.04 0 0.56 0.04 0 0.565 0.04 0 0.57 0.04 0 0.575 0.04 0 0.58 0.04 0 0.585 0.04 0 0.59 0.04 0 0.595 0.04 0 0.6 0.04 0 0.605 0.04 0 0.61 0.04 0 0.615 0.04 0 0.62 0.04 0 0.625 0.04 0 0.63 0.04 0 0.635 0.04 0 0.64 0.04 0 0.645 0.04 0 0.65 0.04 0 0.655 0.04 0 0.66 0.04 0 0.665 0.04 0 0.67 0.04 0 0.675 0.04 0 0.68 0.04 0 0.685 0.04 0 0.69 0.04 0 0.695 0.04 0 0.7 0.04 0 0.705 0.04 0 0.71 0.04 0 0.715 0.04 0 0.72 0.04 0 0.725 0.04 0 0.73 0.04 0 0.735 0.04 0 0.74 0.04 0 0.745 0.04 0 0.75 0.04 0 0.755 0.04 0 0.76 0.04 0 0.765 0.04 0 0.77 0.04 0 0.775 0.04 0 0.78 0.04 0 0.785 0.04 0 0.79 0.04 0 0.795 0.04 0 0.8 0.04 0 0.805 0.04 0 0.81 0.04 0 0.815 0.04 0 0.82 0.04 0 0.825 0.04 0 0.83 0.04 0 0.835 0.04 0 0.84 0.04 0 0.845 0.04 0 0.85 0.04 0 0.855 0.04 0 0.86 0.04 0 0.865 0.04 0 0.87 0.04 0 0.875 0.04 0 0.88 0.04 0 0.885 0.04 0 0.89 0.04 0 0.895 0.04 0 0.9 0.04 0 0.905 0.04 0 0.91 0.04 0 0.915 0.04 0 0.92 0.04 0 0.925 0.04 0 0.93 0.04 0 0.935 0.04 0 0.94 0.04 0 0.945 0.04 0 0.95 0.04 0 0.955 0.04 0 0.96 0.04 0 0.965 0.04 0 0.97 0.04 0 0.975 0.04 0 0.98 0.04 0 0.985 0.04 0 0.99 0.04 0 0.995 0.04 0 1 0.04 0 0 0.06 0 0.005 0.06 0 0.01 0.06 0 0.015 0.06 0 0.02 0.06 0 0.025 0.06 0 0.03 0.06 0 0.035 0.06 0 0.04 0.06 0 0.045 0.06 0 0.05 0.06 0 0.055 0.06 0 0.06 0.06 0 0.065 0.06 0 0.07 0.06 0 0.075 0.06 0 0.08 0.06 0 0.085 0.06 0 0.09 0.06 0 0.095 0.06 0 0.1 0.06 0 0.105 0.06 0 0.11 0.06 0 0.115 0.06 0 0.12 0.06 0 0.125 0.06 0 0.13 0.06 0 0.135 0.06 0 0.14 0.06 0 0.145 0.06 0 0.15 0.06 0 0.155 0.06 0 0.16 0.06 0 0.165 0.06 0 0.17 0.06 0 0.175 0.06 0 0.18 0.06 0 0.185 0.06 0 0.19 0.06 0 0.195 0.06 0 0.2 0.06 0 0.205 0.06 0 0.21 0.06 0 0.215 0.06 0 0.22 0.06 0 0.225 0.06 0 0.23 0.06 0 0.235 0.06 0 0.24 0.06 0 0.245 0.06 0 0.25 0.06 0 0.255 0.06 0 0.26 0.06 0 0.265 0.06 0 0.27 0.06 0 0.275 0.06 0 0.28 0.06 0 0.285 0.06 0 0.29 0.06 0 0.295 0.06 0 0.3 0.06 0 0.305 0.06 0 0.31 0.06 0 0.315 0.06 0 0.32 0.06 0 0.325 0.06 0 0.33 0.06 0 0.335 0.06 0 0.34 0.06 0 0.345 0.06 0 0.35 0.06 0 0.355 0.06 0 0.36 0.06 0 0.365 0.06 0 0.37 0.06 0 0.375 0.06 0 0.38 0.06 0 0.385 0.06 0 0.39 0.06 0 0.395 0.06 0 0.4 0.06 0 0.405 0.06 0 0.41 0.06 0 0.415 0.06 0 0.42 0.06 0 0.425 0.06 0 0.43 0.06 0 0.435 0.06 0 0.44 0.06 0 0.445 0.06 0 0.45 0.06 0 0.455 0.06 0 0.46 0.06 0 0.465 0.06 0 0.47 0.06 0 0.475 0.06 0 0.48 0.06 0 0.485 0.06 0 0.49 0.06 0 0.495 0.06 0 0.5 0.06 0 0.505 0.06 0 0.51 0.06 0 0.515 0.06 0 0.52 0.06 0 0.525 0.06 0 0.53 0.06 0 0.535 0.06 0 0.54 0.06 0 0.545 0.06 0 0.55 0.06 0 0.555 0.06 0 0.56 0.06 0 0.565 0.06 0 0.57 0.06 0 0.575 0.06 0 0.58 0.06 0 0.585 0.06 0 0.59 0.06 0 0.595 0.06 0 0.6 0.06 0 0.605 0.06 0 0.61 0.06 0 0.615 0.06 0 0.62 0.06 0 0.625 0.06 0 0.63 0.06 0 0.635 0.06 0 0.64 0.06 0 0.645 0.06 0 0.65 0.06 0 0.655 0.06 0 0.66 0.06 0 0.665 0.06 0 0.67 0.06 0 0.675 0.06 0 0.68 0.06 0 0.685 0.06 0 0.69 0.06 0 0.695 0.06 0 0.7 0.06 0 0.705 0.06 0 0.71 0.06 0 0.715 0.06 0 0.72 0.06 0 0.725 0.06 0 0.73 0.06 0 0.735 0.06 0 0.74 0.06 0 0.745 0.06 0 0.75 0.06 0 0.755 0.06 0 0.76 0.06 0 0.765 0.06 0 0.77 0.06 0 0.775 0.06 0 0.78 0.06 0 0.785 0.06 0 0.79 0.06 0 0.795 0.06 0 0.8 0.06 0 0.805 0.06 0 0.81 0.06 0 0.815 0.06 0 0.82 0.06 0 0.825 0.06 0 0.83 0.06 0 0.835 0.06 0 0.84 0.06 0 0.845 0.06 0 0.85 0.06 0 0.855 0.06 0 0.86 0.06 0 0.865 0.06 0 0.87 0.06 0 0.875 0.06 0 0.88 0.06 0 0.885 0.06 0 0.89 0.06 0 0.895 0.06 0 0.9 0.06 0 0.905 0.06 0 0.91 0.06 0 0.915 0.06 0 0.92 0.06 0 0.925 0.06 0 0.93 0.06 0 0.935 0.06 0 0.94 0.06 0 0.945 0.06 0 0.95 0.06 0 0.955 0.06 0 0.96 0.06 0 0.965 0.06 0 0.97 0.06 0 0.975 0.06 0 0.98 0.06 0 0.985 0.06 0 0.99 0.06 0 0.995 0.06 0 1 0.06 0 0 0.08 0 0.005 0.08 0 0.01 0.08 0 0.015 0.08 0 0.02 0.08 0 0.025 0.08 0 0.03 0.08 0 0.035 0.08 0 0.04 0.08 0 0.045 0.08 0 0.05 0.08 0 0.055 0.08 0 0.06 0.08 0 0.065 0.08 0 0.07 0.08 0 0.075 0.08 0 0.08 0.08 0 0.085 0.08 0 0.09 0.08 0 0.095 0.08 0 0.1 0.08 0 0.105 0.08 0 0.11 0.08 0 0.115 0.08 0 0.12 0.08 0 0.125 0.08 0 0.13 0.08 0 0.135 0.08 0 0.14 0.08 0 0.145 0.08 0 0.15 0.08 0 0.155 0.08 0 0.16 0.08 0 0.165 0.08 0
[...]
			<PointData Scalars="VitesseX">
				<DataArray Name="VitesseX" type="Float32" format="ascii">
 0 -2.45026e-15 5.69659e-14 -1.85235e-13 1.21721e-13 7.82712e-15 -7.20227e-14 -1.22649e-13 7.99941e-14 -3.487e-14 -1.60026e-13 2.25659e-13 -4.24178e-13 4.63166e-13 -4.43228e-13 1.34349e-14 3.16082e-13 -4.85998e-13 4.40923e-13 -2.67236e-13 -7.94109e-14 1.5021e-13 1.57443e-13 -1.72248e-13 -4.97526e-13 -2.08238e-13 1.981e-13 2.21528e-13 -8.17848e-14 -1.9406e-13 4.54675e-14 -2.48687e-13 3.46842e-13 8.13225e-14 -5.0998e-13 3.58404e-14 -7.29959e-14 3.8796e-13 -4.7106e-13 2.10801e-13 -2.34596e-13 2.61342e-13 9.3362e-15 -6.91737e-13 -2.2371e-13 7.96158e-13 4.85008e-14 7.81282e-14 -5.63587e-13 -3.03628e-13 3.62815e-14 6.64035e-13 4.30534e-14 -8.06967e-14 -1.44071e-12 1.56617e-13 1.15915e-12 -5.43983e-13 3.91513e-13 -7.13485e-13 2.63178e-13 4.98875e-13 -1.73137e-13 -1.0238e-13 1.24392e-13 3.59789e-13 -5.8525e-13 -9.25192e-13 6.58783e-13 4.86003e-13 -2.24325e-13 2.29108e-13 -1.7777e-12 1.43312e-12 3.51888e-13 1.32534e-13 -6.24453e-13 -2.49649e-13 8.96737e-13 -3.27921e-13 -6.23114e-14 -2.96522e-14 -5.29942e-13 -3.18346e-13 -6.91197e-13 1.52536e-12 2.7193e-12 7.07965e-11 2.10584e-09 5.20598e-08 1.05984e-06 1.7361e-05 0.000221865 0.00211897 0.0142432 0.0628081 0.176044 0.342346 0.543901 0.656038 0.789981 0.844244 0.895349 0.94139 0.935332 0.891786 0.795754 0.657456 0.479508 0.296165 0.149689 0.0587366 0.0178752 0.00454486 0.00103789 0.000219879 4.36698e-05 8.16121e-06 1.43802e-06 2.39275e-07 3.76514e-08 5.61062e-09 7.9325e-10 1.06681e-10 1.37688e-11 1.60488e-12 -9.44099e-13 3.73089e-13 6.68952e-13 1.49118e-14 8.10552e-14 -1.16095e-12 3.59111e-13 5.59611e-13 -2.23644e-13 -4.29634e-13 -1.81399e-12 2.55237e-13 7.18693e-13 2.5012e-13 -9.75329e-16 -6.35973e-13 -8.21256e-13 3.62802e-14 1.49608e-12 1.7511e-13 -1.42012e-13 1.57931e-13 4.69781e-14 1.42948e-12 -1.23446e-12 -2.35704e-13 1.86536e-13 -4.4459e-14 9.23916e-13 1.78716e-13 -1.33291e-12 -3.65793e-13 1.156e-12 8.37338e-13 -6.6781e-13 -1.78796e-12 8.18315e-14 1.12336e-12 6.12555e-13 -1.03203e-12 -1.38148e-12 9.42878e-13 2.46788e-13 -6.29598e-13 1.22534e-12 5.89279e-13 -2.84198e-13 -6.23128e-13 -3.0755e-13 1.01093e-12 2.33664e-13 -3.24547e-13 -7.089e-13 -4.08452e-13 1.16022e-12 5.44479e-13 -6.27185e-13 -6.54246e-13 -4.36302e-13 6.54914e-13 -7.187e-13 -1.15362e-12 -1.18991e-12 -1.48204e-13 2.50061e-12 -9.25287e-13 -6.23449e-13 -1.75172e-12 2.25864e-12 5.83231e-13 -1.16527e-12 2.19292e-13 7.30323e-13 2.03281e-12 0 0 -1.6547e-14 -7.87138e-14 8.22329e-14 -1.21402e-13 7.89979e-15 7.25593e-14 -4.79216e-14 -1.59821e-13 -7.50016e-14 2.42731e-14 -1.43572e-13 2.70698e-13 -4.82946e-13 2.86331e-13 -9.61969e-14 -3.22754e-13 3.35013e-13 -3.57105e-13 2.67627e-13 1.60685e-13 -1.20517e-13 -1.97194e-13 -5.47308e-15 1.68651e-13 -1.89132e-13 -6.28957e-13 2.09507e-13 3.22684e-13 7.98629e-14 -4.22984e-13 3.39624e-13 -4.08663e-13 -1.73765e-13 5.72567e-13 -5.97025e-14 -4.64682e-13 -2.2147e-13 1.61933e-13 2.77439e-14 2.7938e-13 -1.78315e-13 -3.85929e-13 1.72857e-13 -2.70689e-14 -2.23801e-13 -4.1774e-14 2.16612e-13 -4.74746e-14 -7.08959e-14 6.27259e-14 -3.22368e-13 1.53942e-14 -4.31954e-13 2.4936e-13 -1.7092e-13 -2.9987e-13 4.79824e-13 -1.91011e-13 2.74771e-13 -3.86724e-13 1.09705e-13 4.12254e-13 1.09596e-13 1.68025e-13 -3.87315e-13 -2.90054e-13 2.25644e-13 -1.48028e-13 -5.60632e-13 5.01474e-13 -5.12297e-13 5.66837e-13 -6.07063e-13 6.4266e-14 7.78053e-15 3.51554e-13 5.17411e-14 -6.2339e-13 6.08976e-13 -4.72419e-13 -3.12467e-13 3.98147e-13 -3.92796e-13 4.40637e-14 4.14733e-13 1.72271e-12 7.24974e-11 2.10649e-09 5.20587e-08 1.05984e-06 1.7361e-05 0.000221865 0.00211897 0.0142432 0.0628081 0.176044 0.342346 0.543901 0.656038 0.789981 0.844244 0.895349 0.94139 0.935332 0.891786 0.795754 0.657456 0.479508 0.296165 0.149689 0.0587366 0.0178752 0.00454486 0.00103789 0.000219879 4.36698e-05 8.16121e-06 1.43802e-06 2.39274e-07 3.76521e-08 5.61083e-09 7.92926e-10 1.06421e-10 1.34175e-11 1.81325e-12 -1.12869e-13 1.78171e-13 6.39483e-14 -2.85966e-13 8.7385e-14 9.09092e-14 -2.21773e-14 -4.03763e-14 -4.25317e-13 -2.43338e-13 -3.89632e-13 -5.90602e-13 3.48603e-13 4.56509e-13 -2.07568e-13 -1.80824e-13 -5.20712e-13 -2.51165e-14 -1.27255e-13 7.07804e-13 9.74612e-13 -4.19339e-13 3.17064e-13 -4.59651e-13 5.08753e-13 2.78248e-13 -4.93472e-13 5.31237e-13 -2.79627e-13 5.69121e-14 8.89677e-14 4.09139e-13 -6.56567e-13 -5.58444e-13 6.15661e-13 3.01854e-13 -2.27331e-13 -8.77981e-13 -5.79793e-13 4.09423e-13 1.02035e-13 1.34829e-13 1.16497e-14 -7.72843e-14 1.69578e-13 2.43436e-13 1.61068e-13 3.76684e-13 -2.56299e-13 -9.72395e-14 1.64501e-13 1.92267e-14 5.20511e-13 -4.77011e-13 -2.30004e-13 1.28796e-13 -2.00416e-13 5.61901e-13 -5.89698e-13 -6.67418e-13 -7.29907e-13 -8.80777e-13 4.44944e-13 -1.94134e-13 -7.24365e-13 8.80083e-13 -3.11007e-13 -5.11612e-14 -1.16823e-12 -1.17566e-14 1.85918e-12 2.96612e-14 1.2252e-12 -1.10419e-12 0 0 1.4923e-14 1.12691e-14 -5.85851e-15 7.63505e-15 -1.10568e-13 -9.58913e-14 -2.77971e-14 -6.73593e-14 -4.20861e-14 -8.57668e-14 -1.5591e-13 -1.04648e-13 4.75179e-14 -1.97941e-13 -4.17631e-14 4.8059e-14 3.07879e-14 8.60279e-14 -1.32353e-13 8.62403e-14 3.60878e-14 1.35047e-13 -1.99574e-13 -2.5326e-13 -1.37458e-13 8.50916e-16 2.19561e-13 9.78381e-14 -2.78237e-13 -6.92491e-14 -6.2033e-14 1.2596e-13 -1.43452e-13 -5.64125e-14 1.05671e-13 6.35326e-14 -5.12017e-13 1.65097e-13 3.29191e-14 -7.59518e-14 -4.51083e-14 -2.83057e-13 -1.44448e-13 2.34483e-13 -1.7531e-13 4.34205e-13 -5.37214e-13 2.35989e-14 -2.15519e-13 -4.15979e-14 -1.95708e-13 -1.54072e-13 2.17498e-13 1.78333e-13 -3.91225e-13 -3.27335e-13 -3.83414e-13 6.22853e-13 3.35336e-13 -2.43566e-13 7.63202e-14 2.81779e-13 5.36962e-13 -3.53296e-13 -3.69821e-13 2.21732e-13 -2.37723e-13 1.10944e-13 -3.63371e-13 -7.21939e-13 6.68454e-13 3.05266e-13 -3.14411e-13 -8.08612e-13 1.84165e-13 4.16467e-13 -1.35203e-13 -5.78619e-13 -5.98177e-13 7.83267e-13 -3.55418e-13 9.22476e-14 8.5013e-13 -6.05846e-14 -1.28615e-12 2.48257e-12 7.24439e-11 2.10645e-09 5.20595e-08 1.05983e-06 1.7361e-05 0.000221865 0.00211897 0.0142432 0.0628081 0.176044 0.342346 0.543901 0.656038 0.789981 0.844244 0.895349 0.94139 0.935332 0.891786 0.795754 0.657456 0.479508 0.296165 0.149689 0.0587366 0.0178752 0.00454486 0.00103789 0.000219879 4.36698e-05 8.16121e-06 1.43802e-06 2.39275e-07 3.76512e-08 5.61187e-09 7.92802e-10 1.05837e-10 1.35731e-11 7.20491e-13 1.5682e-12 2.34734e-13 -7.80086e-13 -1.24932e-13 -8.6155e-13 1.52866e-12 -1.59052e-13 -3.78445e-13 -4.10301e-14 -1.2355e-12 1.10384e-12 -3.99856e-13 -1.12328e-12 3.27156e-13 1.99416e-14 2.75772e-13 1.14333e-12 -1.35732e-12 -9.12517e-13 1.13076e-12 4.37955e-14 1.27203e-12 -6.13594e-13 -6.77314e-13 6.68418e-13 -5.04849e-13 1.36165e-12 -4.60008e-13 -4.5229e-13 -1.12505e-12 1.68064e-12 6.42656e-13 -3.36267e-13 -8.86023e-13 -3.99517e-13 1.0762e-12 -5.19998e-13 -9.07092e-13 -5.95785e-13 2.28899e-13 9.84485e-13 -8.74019e-13 -7.03044e-13 7.23574e-13 -1.26604e-13 7.67471e-13 6.63355e-13 -6.39258e-13 6.23439e-14 -8.56699e-13 9.24833e-13 7.80677e-13 -7.17676e-13 4.5408e-14 -5.09267e-13 3.00655e-13 4.99008e-13 -5.92042e-13 -7.89929e-14 -1.36876e-12 -2.01699e-13 3.89308e-13 -1.19503e-12 5.92651e-13 -1.3406e-12 -2.21282e-13 2.21516e-12 -1.15196e-12 -1.71579e-12 6.85618e-13 1.3392e-12 1.65802e-12 -1.54993e-12 -1.65944e-13 0 0 1.15138e-14 4.29198e-14 -7.59874e-14 -3.84378e-14 -4.13117e-14 -3.99831e-14 -5.75261e-14 -1.89249e-13 -1.78536e-13 -2.14535e-13 2.55089e-13 -1.84104e-13 8.32536e-14 -3.84203e-13 -5.15184e-14 1.7766e-13 -2.63086e-13 2.53993e-13 4.79723e-14 1.98332e-14 -9.21034e-14 -8.1301e-14 -1.50185e-14 -2.02276e-13 -1.28067e-13 1.79822e-13 -1.94334e-13 1.66499e-13 -5.47304e-14 -1.49217e-13 -2.03901e-13 1.02336e-13 -8.45891e-14 -4.58528e-14 6.96177e-14 1.56756e-13 3.13257e-13 -6.04059e-13 -2.11031e-13 -8.91274e-14 8.67839e-14 -8.66038e-14 -2.92171e-13 -8.45962e-14 6.24725e-13 -3.29461e-14 -5.68926e-14 -5.91272e-13 -5.97782e-13 -1.25991e-13 6.6198e-13 3.6289e-13 -5.76735e-13 -4.56361e-13 1.15024e-13 2.50448e-13 4.72194e-13 -3.61815e-13 -2.97233e-13 -3.38243e-13 3.31332e-13 4.44109e-13 3.52591e-13 -1.14736e-13 -4.30219e-13 -3.31797e-13 -4.51341e-13 8.60255e-14 1.04129e-12 -1.67715e-13 -2.659e-13 -4.26279e-13 1.28401e-13 1.87427e-13 -1.72794e-13 -7.97569e-13 3.16007e-13 -2.63566e-13 -1.01789e-12 -1.00991e-13 7.16595e-13 3.08343e-13 -6.84055e-13 2.8874e-13 2.05472e-13 1.9151e-12 7.0889e-11 2.10605e-09 5.2061e-08 1.05984e-06 1.7361e-05 0.000221865 0.00211897 0.0142432 0.0628081 0.176044 0.342346 0.543901 0.656038 0.789981 0.844244 0.895349 0.94139 0.935332 0.891786 0.795754 0.657456 0.479508 0.296165 0.149689 0.0587366 0.0178752 0.00454486 0.00103789 0.000219879 4.36698e-05 8.16121e-06 1.43802e-06 2.39274e-07 3.76516e-08 5.61112e-09 7.92996e-10 1.065e-10 1.28389e-11 1.59076e-12 4.0254e-13 2.3111e-13 3.91854e-13 -7.43199e-13 8.34128e-14 -5.26801e-14 1.00675e-13 5.5632e-13 -7.41379e-13 -3.24919e-13 -4.43464e-13 -2.65655e-13 -1.5245e-13 -1.48335e-12 6.912e-13 1.30643e-12 -2.86632e-13 -1.94759e-13 -3.55058e-13 -2.02255e-13 5.09292e-13 6.41378e-13 -1.87847e-13 -3.74126e-13 -5.82814e-13 9.37955e-13 1.15983e-12 -1.99276e-13 -5.94149e-13 -7.8695e-13 -1.36381e-13 -1.75889e-13 1.21447e-12 7.67332e-13 -7.26441e-13 -1.25662e-12 -7.19221e-13 7.72661e-13 -4.63814e-13 -9.52487e-13 -7.06986e-14 9.11942e-13 3.385e-13 -1.26734e-12 2.48821e-13 1.18778e-12 1.77342e-13 -6.75928e-13 -5.52202e-13 6.84018e-13 1.21619e-12 -7.29818e-14 -7.34882e-13 -1.30011e-12 8.85185e-13 1.10119e-12 -3.9023e-13 -1.04635e-12 -1.05322e-12 3.6239e-13 3.92492e-13 -1.25684e-12 -1.66955e-12 -2.5401e-13 3.39794e-12 2.24343e-13 -2.03476e-12 -1.53955e-12 -1.95773e-13 1.35664e-12 -1.31948e-13 -5.04318e-14 1.94382e-13 9.25025e-13 0 0 -1.72317e-14 -4.77835e-14 4.73072e-14 -1.93519e-13 -6.28932e-14 -4.03575e-15 -1.1826e-13 -1.94945e-13 -1.39312e-13 -4.6434e-14 -3.1621e-14 1.20715e-13 -4.82755e-13 2.00803e-13 -3.20362e-14 -2.95813e-14 3.14547e-13 -3.39905e-13 1.26683e-13 -7.07362e-14 -2.02882e-13 -4.25201e-13 -3.44074e-14 8.60912e-14 -8.03673e-14 -2.78822e-13 -6.05516e-14 9.34087e-14 1.03087e-13 -1.67888e-13 2.93703e-13 -3.62813e-13 -5.6301e-14 8.0011e-13 5.16872e-14 -1.47531e-13 3.97807e-13 -3.28244e-13 -4.18314e-13 -4.6548e-14 -4.31201e-13 -3.28663e-13 5.55224e-14 -1.59484e-14 2.9734e-13 -3.57985e-13 2.23533e-13 -3.30328e-13 -4.85644e-13 2.2868e-13 1.44763e-13 -1.239e-14 -8.45443e-13 2.2168e-13 3.0948e-13 -3.6772e-13 8.45983e-13 -6.3519e-13 1.53314e-13 -4.84189e-13 2.28197e-13 4.97875e-13 2.16912e-13 2.54857e-13 -4.64251e-13 -8.48813e-13 8.15358e-14 -1.43031e-13 4.63372e-13 8.82795e-13 -5.99037e-13 8.80979e-13 -6.96408e-13 2.69324e-13 -5.85022e-13 -6.5099e-13 -1.33677e-14 -1.12391e-12 -5.63799e-14 -9.54408e-13 5.02996e-13 3.32285e-13 -1.3972e-12 5.13905e-13 7.38969e-13 1.29367e-12 7.17575e-11 2.10678e-09 5.20589e-08 1.05984e-06 1.7361e-05 0.000221865 0.00211897 0.0142432 0.0628081 0.176044 0.342346 0.543901 0.656038 0.789981 0.844244 0.895349 0.94139 0.935332 0.891786 0.795754 0.657456 0.479508 0.296165 0.149689 0.0587366 0.0178752 0.00454486 0.00103789 0.000219879 4.36698e-05 8.16121e-06 1.43802e-06 2.39274e-07 3.76523e-08 5.6103e-09 7.92906e-10 1.06633e-10 1.32548e-11 2.44483e-12 -6.71232e-13 -1.87902e-13 3.1449e-13 -2.52555e-13 8.80633e-13 -7.16995e-13 -1.41995e-13 3.57429e-15 -5.39355e-13 2.97306e-13 -1.0682e-12 -9.36281e-13 2.38889e-13 -5.62484e-13 6.59806e-13 7.45926e-13 -1.84461e-12 5.12965e-13 3.32189e-13 6.03952e-13 1.59011e-12 -6.06826e-13 7.14159e-13 -4.45984e-13 1.95198e-13 7.11411e-13 -9.54601e-13 3.16888e-13 -3.99191e-13 -1.48497e-13 -1.54459e-12 -7.60067e-13 -2.83544e-13 1.52032e-12 1.22297e-12 -4.40854e-13 -2.04133e-12 -1.85617e-12 -1.02557e-12 3.79826e-13 5.81687e-13 1.70067e-12 3.19177e-13 -1.31972e-12 -7.08896e-13 -4.53592e-13 5.72267e-13 1.37014e-12 4.54967e-13 -6.18281e-14 -6.8948e-13 -7.27193e-13 1.6827e-12 -1.80103e-13 -1.8009e-14 -6.34284e-13 -6.48719e-13 1.26321e-12 -4.98806e-13 -3.35091e-13 -1.56803e-12 -2.37972e-12 6.93632e-13 9.2888e-13 2.14953e-12 7.33664e-13 -3.24579e-12 -5.86004e-13 -8.12936e-13 6.81587e-13 1.8467e-12 -4.33113e-13 1.9255e-12 -1.0152e-12 0 0 2.9986e-15 5.55251e-14 -1.14829e-13 6.96323e-14 -2.72271e-13 -3.37029e-13 -2.03868e-13 2.53524e-13 1.0941e-13 -4.39038e-14 -3.72436e-13 -5.65232e-13 3.92076e-13 -2.4176e-13 1.61267e-13 6.43225e-13 6.08166e-14 1.39393e-13 -9.09775e-13 -4.09439e-13 2.41863e-13 1.34124e-13 -5.99228e-13 -7.64614e-13 -9.49049e-15 5.40427e-13 5.09202e-13 -6.77657e-13 -5.94624e-13 7.15596e-13 -5.67943e-14 4.8579e-13 1.98526e-13 -7.6013e-14 3.30727e-13 3.74859e-13 -2.40364e-14 8.68976e-14 -1.93414e-13 -8.60101e-13 -5.08215e-13 -2.69039e-13 -6.3096e-13 4.36689e-13 2.38369e-13 3.50379e-13 -8.68674e-13 1.00449e-13 -3.68598e-13 5.36975e-13 -1.17078e-13 -1.04644e-12 6.8079e-13 -2.26679e-13 1.04919e-13 -1.32113e-13 -1.52288e-12 1.47249e-12 3.08741e-13 2.576e-13 2.25837e-13 -3.26555e-13 4.80992e-13 -1.79065e-13 3.26713e-13 -5.95708e-13 -7.86172e-13 7.18616e-13 -2.75311e-13 -5.70131e-13 1.92434e-12 3.1367e-13 3.68806e-13 -1.23007e-12 -3.39153e-13 -2.0147e-13 -1.28229e-12 -7.34413e-13 -8.19209e-13 7.42228e-13 -5.42752e-13 -1.09386e-12 7.41213e-13 -4.50162e-13 -8.09415e-13 2.99615e-12 7.24267e-11 2.10721e-09 5.20575e-08 1.05984e-06 1.7361e-05 0.000221865 0.00211897 0.0142432 0.0628081 0.176044 0.342346 0.543901 0.656038 0.789981 0.844244 0.895349 0.94139 0.935332 0.891786 0.795754 0.657456 0.479508 0.296165 0.149689 0.0587366 0.0178752 0.00454486 0.00103789 0.000219879 4.36698e-05 8.16121e-06 1.43802e-06 2.39276e-07 3.76512e-08 5.61106e-09 7.92825e-10 1.05778e-10 1.49118e-11 1.12749e-12 2.70485e-13 -3.51811e-13 -1.17385e-12 1.31827e-12 -2.22375e-13 3.85922e-13 -3.99977e-13 -1.22202e-12 9.48978e-13 -1.16952e-12 -7.65104e-14 -7.04523e-13 -1.4424e-12 1.83315e-12 3.91256e-13 -8.43797e-13 -6.09126e-13 -1.21268e-12 1.30005e-12 2.63343e-12 1.57999e-13 1.04426e-12 -1.03279e-14 8.50439e-13 6.40892e-13 -2.25499e-12 -3.32076e-13 -9.94623e-13 9.68507e-13 -9.08303e-13 -9.65981e-13 -1.06711e-12 -1.19943e-12 1.68815e-12 1.20066e-12 1.39226e-12 -3.14771e-12 -4.19252e-12 -5.42948e-13 1.27155e-12 1.68819e-12 5.02633e-13 -1.22124e-12 8.67356e-13 -1.28246e-12 -1.64539e-12 1.51023e-12 1.43712e-12 2.34407e-12 -1.99968e-12 -2.05701e-12 -1.10069e-13 1.6499e-12 2.87639e-12 -1.2047e-12 -2.58274e-12 2.54685e-13 1.65699e-12 1.69393e-12 -2.14273e-12 -3.58333e-12 -8.5921e-13 2.56521e-13 3.79115e-12 -1.22868e-12 -2.10938e-12 2.00683e-12 -2.04623e-12 -7.08153e-14 6.27866e-13 1.75206e-12 2.71064e-12 -1.35771e-12 2.88652e-14 0
				</DataArray>
				<DataArray Name="VitesseY" type="Float32" format="ascii">