<?xml version="1.0"?>
<VTKFile type="PolyData">
	<PolyData>
		<Piece NumberOfPoints="1206" NumberOfPolys="1000">
			<Points>
				<DataArray type="Float32" NumberOfComponents="3" format="ascii">
 0 0 0 0.005 0 0 0.01 0 0 0.015 0 0 0.02 0 0 0.025 0 0 0.03 0 0 0.035 0 0 0.04 0 0 0.045 0 0 0.05 0 0 0.055 0 0 0.06 0 0 0.065 0 0 0.07 0 0 0.075 0 0 0.08 0 0 0.085 0 0 0.09 0 0 0.095 0 0 0.1 0 0 0.105 0 0 0.11 0 0 0.115 0 0 0.12 0 0 0.125 0 0 0.13 0 0 0.135 0 0 0.14 0 0 0.145 0 0 0.15 0 0 0.155 0 0 0.16 0 0 0.165 0 0 0.17 0 0 0.175 0 0 0.18 0 0 0.185 0 0 0.19 0 0 0.195 0 0 0.2 0 0 0.205 0 0 0.21 0 0 0.215 0 0 0.22 0 0 0.225 0 0 0.23 0 0 0.235 0 0 0.24 0 0 0.245 0 0 0.25 0 0 0.255 0 0 0.26 0 0 0.265 0 0 0.27 0 0 0.275 0 0 0.28 0 0 0.285 0 0 0.29 0 0 0.295 0 0 0.3 0 0 0.305 0 0 0.31 0 0 0.315 0 0 0.32 0 0 0.325 0 0 0.33 0 0 0.335 0 0 0.34 0 0 0.345 0 0 0.35 0 0 0.355 0 0 0.36 0 0 0.365 0 0 0.37 0 0 0.375 0 0 0.38 0 0 0.385 0 0 0.39 0 0 0.395 0 0 0.4 0 0 0.405 0 0 0.41 0 0 0.415 0 0 0.42 0 0 0.425 0 0 0.43 0 0 0.435 0 0 0.44 0 0 0.445 0 0 0.45 0 0 0.455 0 0 0.46 0 0 0.465 0 0 0.47 0 0 0.475 0 0 0.48 0 0 0.485 0 0 0.49 0 0 0.495 0 0 0.5 0 0 0.505 0 0 0.51 0 0 0.515 0 0 0.52 0 0 0.525 0 0 0.53 0 0 0.535 0 0 0.54 0 0 0.545 0 0 0.55 0 0 0.555 0 0 0.56 0 0 0.565 0 0 0.57 0 0 0.575 0 0 0.58 0 0 0.585 0 0 0.59 0 0 0.595 0 0 0.6 0 0 0.605 0 0 0.61 0 0 0.615 0 0 0.62 0 0 0.625 0 0 0.63 0 0 0.635 0 0 0.64 0 0 0.645 0 0 0.65 0 0 0.655 0 0 0.66 0 0 0.665 0 0 0.67 0 0 0.675 0 0 0.68 0 0 0.685 0 0 0.69 0 0 0.695 0 0 0.7 0 0 0.705 0 0 0.71 0 0 0.715 0 0 0.72 0 0 0.725 0 0 0.73 0 0 0.735 0 0 0.74 0 0 0.745 0 0 0.75 0 0 0.755 0 0 0.76 0 0 0.765 0 0 0.77 0 0 0.775 0 0 0.78 0 0 0.785 0 0 0.79 0 0 0.795 0 0 0.8 0 0 0.805 0 0 0.81 0 0 0.815 0 0 0.82 0 0 0.825 0 0 0.83 0 0 0.835 0 0 0.84 0 0 0.845 0 0 0.85 0 0 0.855 0 0 0.86 0 0 0.865 0 0 0.87 0 0 0.875 0 0 0.88 0 0 0.885 0 0 0.89 0 0 0.895 0 0 0.9 0 0 0.905 0 0 0.91 0 0 0.915 0 0 0.92 0 0 0.925 0 0 0.93 0 0 0.935 0 0 0.94 0 0 0.945 0 0 0.95 0 0 0.955 0 0 0.96 0 0 0.965 0 0 0.97 0 0 0.975 0 0 0.98 0 0 0.985 0 0 0.99 0 0 0.995 0 0 1 0 0 0 0.02 0 0.005 0.02 0 0.01 0.02 0 0.015 0.02 0 0.02 0.02 0 0.025 0.02 0 0.03 0.02 0 0.035 0.02 0 0.04 0.02 0 0.045 0.02 0 0.05 0.02 0 0.055 0.02 0 0.06 0.02 0 0.065 0.02 0 0.07 0.02 0 0.075 0.02 0 0.08 0.02 0 0.085 0.02 0 0.09 0.02 0 0.095 0.02 0 0.1 0.02 0 0.105 0.02 0 0.11 0.02 0 0.115 0.02 0 0.12 0.02 0 0.125 0.02 0 0.13 0.02 0 0.135 0.02 0 0.14 0.02 0 0.145 0.02 0 0.15 0.02 0 0.155 0.02 0 0.16 0.02 0 0.165 0.02 0 0.17 0.02 0 0.175 0.02 0 0.18 0.02 0 0.185 0.02 0 0.19 0.02 0 0.195 0.02 0 0.2 0.02 0 0.205 0.02 0 0.21 0.02 0 0.215 0.02 0 0.22 0.02 0 0.225 0.02 0 0.23 0.02 0 0.235 0.02 0 0.24 0.02 0 0.245 0.02 0 0.25 0.02 0 0.255 0.02 0 0.26 0.02 0 0.265 0.02 0 0.27 0.02 0 0.275 0.02 0 0.28 0.02 0 0.285 0.02 0 0.29 0.02 0 0.295 0.02 0 0.3 0.02 0 0.305 0.02 0 0.31 0.02 0 0.315 0.02 0 0.32 0.02 0 0.325 0.02 0 0.33 0.02 0 0.335 0.02 0 0.34 0.02 0 0.345 0.02 0 0.35 0.02 0 0.355 0.02 0 0.36 0.02 0 0.365 0.02 0 0.37 0.02 0 0.375 0.02 0 0.38 0.02 0 0.385 0.02 0 0.39 0.02 0 0.395 0.02 0 0.4 0.02 0 0.405 0.02 0 0.41 0.02 0 0.415 0.02 0 0.42 0.02 0 0.425 0.02 0 0.43 0.02 0 0.435 0.02 0 0.44 0.02 0 0.445 0.02 0 0.45 0.02 0 0.455 0.02 0 0.46 0.02 0 0.465 0.02 0 0.47 0.02 0 0.475 0.02 0 0.48 0.02 0 0.485 0.02 0 0.49 0.02 0 0.495 0.02 0 0.5 0.02 0 0.505 0.02 0 0.51 0.02 0 0.515 0.02 0 0.52 0.02 0 0.525 0.02 0 0.53 0.02 0 0.535 0.02 0 0.54 0.02 0 0.545 0.02 0 0.55 0.02 0 0.555 0.02 0 0.56 0.02 0 0.565 0.02 0 0.57 0.02 0 0.575 0.02 0 0.58 0.02 0 0.585 0.02 0 0.59 0.02 0 0.595 0.02 0 0.6 0.02 0 0.605 0.02 0 0.61 0.02 0 0.615 0.02 0 0.62 0.02 0 0.625 0.02 0 0.63 0.02 0 0.635 0.02 0 0.64 0.02 0 0.645 0.02 0 0.65 0.02 0 0.655 0.02 0 0.66 0.02 0 0.665 0.02 0 0.67 0.02 0 0.675 0.02 0 0.68 0.02 0 0.685 0.02 0 0.69 0.02 0 0.695 0.02 0 0.7 0.02 0 0.705 0.02 0 0.71 0.02 0 0.715 0.02 0 0.72 0.02 0 0.725 0.02 0 0.73 0.02 0 0.735 0.02 0 0.74 0.02 0 0.745 0.02 0 0.75 0.02 0 0.755 0.02 0 0.76 0.02 0 0.765 0.02 0 0.77 0.02 0 0.775 0.02 0 0.78 0.02 0 0.785 0.02 0 0.79 0.02 0 0.795 0.02 0 0.8 0.02 0 0.805 0.02 0 0.81 0.02 0 0.815 0.02 0 0.82 0.02 0 0.825 0.02 0 0.83 0.02 0 0.835 0.02 0 0.84 0.02 0 0.845 0.02 0 0.85 0.02 0 0.855 0.02 0 0.86 0.02 0 0.865 0.02 0 0.87 0.02 0 0.875 0.02 0 0.88 0.02 0 0.885 0.02 0 0.89 0.02 0 0.895 0.02 0 0.9 0.02 0 0.905 0.02 0 0.91 0.02 0 0.915 0.02 0 0.92 0.02 0 0.925 0.02 0 0.93 0.02 0 0.935 0.02 0 0.94 0.02 0 0.945 0.02 0 0.95 0.02 0 0.955 0.02 0 0.96 0.02 0 0.965 0.02 0 0.97 0.02 0 0.975 0.02 0 0.98 0.02 0 0.985 0.02 0 0.99 0.02 0 0.995 0.02 0 1 0.02 0 0 0.04 0 0.005 0.04 0 0.01 0.04 0 0.015 0.04 0 0.02 0.04 0 0.025 0.04 0 0.03 0.04 0 0.035 0.04 0 0.04 0.04 0 0.045 0.04 0 0.05 0.04 0 0.055 0.04 0 0.06 0.04 0 0.065 0.04 0 0.07 0.04 0 0.075 0.04 0 0.08 0.04 0 0.085 0.04 0 0.09 0.04 0 0.095 0.04 0 0.1 0.04 0 0.105 0.04 0 0.11 0.04 0 0.115 0.04 0 0.12 0.04 0 0.125 0.04 0 0.13 0.04 0 0.135 0.04 0 0.14 0.04 0 0.145 0.04 0 0.15 0.04 0 0.155 0.04 0 0.16 0.04 0 0.165 0.04 0 0.17 0.04 0 0.175 0.04 0 0.18 0.04 0 0.185 0.04 0 0.19 0.04 0 0.195 0.04 0 0.2 0.04 0 0.205 0.04 0 0.21 0.04 0 0.215 0.04 0 0.22 0.04 0 0.225 0.04 0 0.23 0.04 0 0.235 0.04 0 0.24 0.04 0 0.245 0.04 0 0.25 0.04 0 0.255 0.04 0 0.26 0.04 0 0.265 0.04 0 0.27 0.04 0 0.275 0.04 0 0.28 0.04 0 0.285 0.04 0 0.29 0.04 0 0.295 0.04 0 0.3 0.04 0 0.305 0.04 0 0.31 0.04 0 0.315 0.04 0 0.32 0.04 0 0.325 0.04 0 0.33 0.04 0 0.335 0.04 0 0.34 0.04 0 0.345 0.04 0 0.35 0.04 0 0.355 0.04 0 0.36 0.04 0 0.365 0.04 0 0.37 0.04 0 0.375 0.04 0 0.38 0.04 0 0.385 0.04 0 0.39 0.04 0 0.395 0.04 0 0.4 0.04 0 0.405 0.04 0 0.41 0.04 0 0.415 0.04 0 0.42 0.04 0 0.425 0.04 0 0.43 0.04 0 0.435 0.04 0 0.44 0.04 0 0.445 0.04 0 0.45 0.04 0 0.455 0.04 0 0.46 0.04 0 0.465 0.04 0 0.47 0.04 0 0.475 0.04 0 0.48 0.04 0 0.485 0.04 0 0.49 0.04 0 0.495 0.04 0 0.5 0.04 0 0.505 0.04 0 0.51 0.04 0 0.515 0.04 0 0.52 0.04 0 0.525 0.04 0 0.53 0.04 0 0.535 0.04 0 0.54 0.04 0 0.545 0.04 0 0.55 0.04 0 0.555 0.04 0 0.56 0.04 0 0.565 0.04 0 0.57 0.04 0 0.575 0.04 0 0.58 0.04 0 0.585 0.04 0 0.59 0.04 0 0.595 0.04 0 0.6 0.04 0 0.605 0.04 0 0.61 0.04 0 0.615 0.04 0 0.62 0.04 0 0.625 0.04 0 0.63 0.04 0 0.635 0.04 0 0.64 0.04 0 0.645 0.04 0 0.65 0.04 0 0.655 0.04 0 0.66 0.04 0 0.665 0.04 0 0.67 0.04 0 0.675 0.04 0 0.68 0.04 0 0.685 0.04 0 0.69 0.04 0 0.695 0.04 0 0.7 0.04 0 0.705 0.04 0 0.71 0.04 0 0.715 0.04 0 0.72 0.04 0 0.725 0.04 0 0.73 0.04 0 0.735 0.04 0 0.74 0.04 0 0.745 0.04 0 0.75 0.04 0 0.755 0.04 0 0.76 0.04 0 0.765 0.04 0 0.77 0.04 0 0.775 0.04 0 0.78 0.04 0 0.785 0.04 0 0.79 0.04 0 0.795 0.04 0 0.8 0.04 0 0.805 0.04 0 0.81 0.04 0 0.815 0.04 0 0.82 0.04 0 0.825 0.04 0 0.83 0.04 0 0.835 0.04 0 0.84 0.04 0 0.845 0.04 0 0.85 0.04 0 0.855 0.04 0 0.86 0.04 0 0.865 0.04 0 0.87 0.04 0 0.875 0.04 0 0.88 0.04 0 0.885 0.04 0 0.89 0.04 0 0.895 0.04 0 0.9 0.04 0 0.905 0.04 0 0.91 0.04 0 0.915 0.04 0 0.92 0.04 0 0.925 0.04 0 0.93 0.04 0 0.935 0.04 0 0.94 0.04 0 0.945 0.04 0 0.95 0.04 0 0.955 0.04 0 0.96 0.04 0 0.965 0.04 0 0.97 0.04 0 0.975 0.04 0 0.98 0.04 0 0.985 0.04 0 0.99 0.04 0 0.995 0.04 0 1 0.04 0 0 0.06 0 0.005 0.06 0 0.01 0.06 0 0.015 0.06 0 0.02 0.06 0 0.025 0.06 0 0.03 0.06 0 0.035 0.06 0 0.04 0.06 0 0.045 0.06 0 0.05 0.06 0 0.055 0.06 0 0.06 0.06 0 0.065 0.06 0 0.07 0.06 0 0.075 0.06 0 0.08 0.06 0 0.085 0.06 0 0.09 0.06 0 0.095 0.06 0 0.1 0.06 0 0.105 0.06 0 0.11 0.06 0 0.115 0.06 0 0.12 0.06 0 0.125 0.06 0 0.13 0.06 0 0.135 0.06 0 0.14 0.06 0 0.145 0.06 0 0.15 0.06 0 0.155 0.06 0 0.16 0.06 0 0.165 0.06 0 0.17 0.06 0 0.175 0.06 0 0.18 0.06 0 0.185 0.06 0 0.19 0.06 0 0.195 0.06 0 0.2 0.06 0 0.205 0.06 0 0.21 0.06 0 0.215 0.06 0 0.22 0.06 0 0.225 0.06 0 0.23 0.06 0 0.235 0.06 0 0.24 0.06 0 0.245 0.06 0 0.25 0.06 0 0.255 0.06 0 0.26 0.06 0 0.265 0.06 0 0.27 0.06 0 0.275 0.06 0 0.28 0.06 0 0.285 0.06 0 0.29 0.06 0 0.295 0.06 0 0.3 0.06 0 0.305 0.06 0 0.31 0.06 0 0.315 0.06 0 0.32 0.06 0 0.325 0.06 0 0.33 0.06 0 0.335 0.06 0 0.34 0.06 0 0.345 0.06 0 0.35 0.06 0 0.355 0.06 0 0.36 0.06 0 0.365 0.06 0 0.37 0.06 0 0.375 0.06 0 0.38 0.06 0 0.385 0.06 0 0.39 0.06 0 0.395 0.06 0 0.4 0.06 0 0.405 0.06 0 0.41 0.06 0 0.415 0.06 0 0.42 0.06 0 0.425 0.06 0 0.43 0.06 0 0.435 0.06 0 0.44 0.06 0 0.445 0.06 0 0.45 0.06 0 0.455 0.06 0 0.46 0.06 0 0.465 0.06 0 0.47 0.06 0 0.475 0.06 0 0.48 0.06 0 0.485 0.06 0 0.49 0.06 0 0.495 0.06 0 0.5 0.06 0 0.505 0.06 0 0.51 0.06 0 0.515 0.06 0 0.52 0.06 0 0.525 0.06 0 0.53 0.06 0 0.535 0.06 0 0.54 0.06 0 0.545 0.06 0 0.55 0.06 0 0.555 0.06 0 0.56 0.06 0 0.565 0.06 0 0.57 0.06 0 0.575 0.06 0 0.58 0.06 0 0.585 0.06 0 0.59 0.06 0 0.595 0.06 0 0.6 0.06 0 0.605 0.06 0 0.61 0.06 0 0.615 0.06 0 0.62 0.06 0 0.625 0.06 0 0.63 0.06 0 0.635 0.06 0 0.64 0.06 0 0.645 0.06 0 0.65 0.06 0 0.655 0.06 0 0.66 0.06 0 0.665 0.06 0 0.67 0.06 0 0.675 0.06 0 0.68 0.06 0 0.685 0.06 0 0.69 0.06 0 0.695 0.06 0 0.7 0.06 0 0.705 0.06 0 0.71 0.06 0 0.715 0.06 0 0.72 0.06 0 0.725 0.06 0 0.73 0.06 0 0.735 0.06 0 0.74 0.06 0 0.745 0.06 0 0.75 0.06 0 0.755 0.06 0 0.76 0.06 0 0.765 0.06 0 0.77 0.06 0 0.775 0.06 0 0.78 0.06 0 0.785 0.06 0 0.79 0.06 0 0.795 0.06 0 0.8 0.06 0 0.805 0.06 0 0.81 0.06 0 0.815 0.06 0 0.82 0.06 0 0.825 0.06 0 0.83 0.06 0 0.835 0.06 0 0.84 0.06 0 0.845 0.06 0 0.85 0.06 0 0.855 0.06 0 0.86 0.06 0 0.865 0.06 0 0.87 0.06 0 0.875 0.06 0 0.88 0.06 0 0.885 0.06 0 0.89 0.06 0 0.895 0.06 0 0.9 0.06 0 0.905 0.06 0 0.91 0.06 0 0.915 0.06 0 0.92 0.06 0 0.925 0.06 0 0.93 0.06 0 0.935 0.06 0 0.94 0.06 0 0.945 0.06 0 0.95 0.06 0 0.955 0.06 0 0.96 0.06 0 0.965 0.06 0 0.97 0.06 0 0.975 0.06 0 0.98 0.06 0 0.985 0.06 0 0.99 0.06 0 0.995 0.06 0 1 0.06 0 0 0.08 0 0.005 0.08 0 0.01 0.08 0 0.015 0.08 0 0.02 0.08 0 0.025 0.08 0 0.03 0.08 0 0.035 0.08 0 0.04 0.08 0 0.045 0.08 0 0.05 0.08 0 0.055 0.08 0 0.06 0.08 0 0.065 0.08 0 0.07 0.08 0 0.075 0.08 0 0.08 0.08 0 0.085 0.08 0 0.09 0.08 0 0.095 0.08 0 0.1 0.08 0 0.105 0.08 0 0.11 0.08 0 0.115 0.08 0 0.12 0.08 0 0.125 0.08 0 0.13 0.08 0 0.135 0.08 0 0.14 0.08 0 0.145 0.08 0 0.15 0.08 0 0.155 0.08 0 0.16 0.08 0 0.165 0.08 0
[...]
			<PointData Scalars="VitesseX">
				<DataArray Name="VitesseX" type="Float32" format="ascii">
 0 1.14747e-14 2.45391e-14 -7.38807e-14 4.81109e-14 -3.26557e-14 -9.22942e-14 -3.69951e-14 -4.98755e-15 1.91341e-14 -1.25499e-14 -3.9489e-14 -2.00424e-13 1.42849e-13 -2.65483e-13 2.56586e-14 1.10089e-13 -2.48178e-13 2.70074e-13 -2.06898e-13 -8.89285e-14 5.88304e-14 1.13114e-13 -2.63956e-13 -3.70138e-13 -1.35746e-13 4.61568e-13 7.96343e-14 -1.49905e-13 -5.26456e-14 -1.2494e-13 -3.97425e-13 3.2342e-13 9.11281e-14 -2.50406e-13 -7.71672e-14 5.55952e-13 -8.31491e-13 2.85731e-13 -2.30378e-13 8.05201e-14 7.93936e-14 -5.98314e-14 -5.0734e-13 3.17895e-13 9.46097e-14 6.64621e-13 -1.01376e-12 -1.89778e-13 -3.49104e-13 -1.27709e-13 5.61158e-13 -6.47314e-13 1.06432e-12 -7.95674e-13 -1.53034e-13 1.14769e-12 -9.47054e-13 1.30187e-12 -9.53562e-13 -3.71071e-13 -9.78511e-14 -1.33637e-14 7.17237e-14 -4.40367e-13 8.2587e-14 9.756e-14 -2.69973e-13 1.41935e-12 -2.0734e-13 -1.0943e-12 1.27138e-12 -9.51486e-13 5.44631e-13 -1.62982e-12 5.18907e-13 -5.11432e-14 -2.35662e-13 8.71288e-13 -7.91263e-13 1.60414e-12 -7.59052e-13 -8.5302e-13 1.77859e-11 3.30702e-10 6.18636e-09 1.00022e-07 1.37542e-06 1.58262e-05 0.00014911 0.00111767 0.00641245 0.0268823 0.0795403 0.169357 0.284177 0.415515 0.552971 0.643805 0.742889 0.816117 0.85878 0.897937 0.932973 0.939765 0.944049 0.936042 0.921801 0.886305 0.824119 0.727571 0.587387 0.421205 0.262027 0.137013 0.0583094 0.0203687 0.00617789 0.00171869 0.000450796 0.000112584 2.68599e-05 6.12925e-06 1.33884e-06 2.80135e-07 5.61842e-08 1.08112e-08 1.99678e-09 3.52776e-10 6.19035e-11 7.88212e-12 2.86764e-12 -2.16361e-14 -1.436e-12 7.59055e-13 -2.13293e-12 1.56496e-12 6.82497e-13 -1.88058e-12 1.78758e-12 -9.19866e-13 -1.01886e-12 2.94124e-12 -2.24431e-12 -1.34244e-12 1.95511e-12 -1.45205e-12 3.1101e-12 -1.52345e-12 -3.0151e-13 1.35612e-12 -1.76869e-12 2.77104e-12 -2.02362e-12 1.27679e-12 -1.68131e-12 1.67223e-12 -2.30195e-13 -2.65342e-13 -2.71697e-13 -1.5248e-12 1.05988e-12 -6.66003e-13 -3.28003e-13 6.82607e-13 -4.86611e-13 7.69571e-13 -3.00683e-13 -1.64394e-12 2.56099e-12 -1.24378e-12 9.28548e-14 1.58013e-12 -2.10295e-12 2.35016e-12 -1.42689e-12 7.09768e-13 8.45819e-13 -2.4052e-12 2.03099e-12 -1.04246e-12 -2.36346e-14 1.15273e-12 -2.59818e-12 1.13636e-12 -2.02533e-12 -8.56085e-14 1.6581e-12 -2.3259e-12 3.3183e-12 -1.93556e-12 -1.82368e-12 4.65621e-12 -3.60451e-12 -1.08753e-12 5.93814e-13 -1.0686e-12 3.73979e-12 -3.16667e-12 1.36002e-12 0 0 -2.17755e-14 -3.91331e-14 2.36269e-14 -7.91026e-14 2.47394e-15 2.9801e-14 -8.08978e-14 -9.62257e-14 -7.41316e-14 -9.18365e-14 -2.56058e-14 2.10708e-14 -2.05452e-13 8.1838e-14 -3.67956e-14 -1.60304e-13 4.04694e-14 -1.64421e-13 2.00399e-13 6.40278e-14 -9.52163e-14 -2.23525e-13 -3.71023e-14 2.82834e-14 -1.46614e-13 -1.02127e-13 6.15105e-14 2.32618e-13 -5.87785e-14 -1.59882e-13 -9.13258e-14 -3.26688e-13 1.46207e-14 2.82729e-13 5.71637e-14 -6.09223e-13 4.87693e-13 -5.45367e-13 1.3445e-13 1.75711e-13 -1.72556e-13 -4.71427e-14 -3.77704e-14 -4.72361e-14 2.5017e-14 -6.7273e-13 5.50937e-13 -3.40509e-13 -3.03171e-13 -4.32335e-13 -9.66832e-14 7.37201e-13 -8.89939e-13 5.17505e-13 2.68556e-13 -5.72107e-13 1.03336e-12 -8.37939e-13 5.31529e-13 -3.53675e-13 -1.48077e-13 1.6592e-14 -2.80689e-14 2.20184e-13 -1.44452e-13 -3.56694e-13 7.57612e-13 -7.55785e-13 3.48233e-13 5.88338e-13 -1.2992e-12 5.67341e-13 -8.62306e-13 6.26389e-13 -7.86021e-13 -6.06752e-13 6.93816e-13 -9.11063e-14 1.07426e-12 -1.19116e-12 8.51849e-13 1.64113e-12 1.39048e-11 3.30716e-10 6.19104e-09 1.00019e-07 1.37542e-06 1.58262e-05 0.00014911 0.00111767 0.00641245 0.0268823 0.0795403 0.169357 0.284177 0.415515 0.552971 0.643805 0.742889 0.816117 0.85878 0.897937 0.932973 0.939765 0.944049 0.936042 0.921801 0.886305 0.824119 0.727571 0.587387 0.421205 0.262027 0.137013 0.0583094 0.0203687 0.00617789 0.00171869 0.000450796 0.000112584 2.68599e-05 6.12925e-06 1.33884e-06 2.80133e-07 5.61867e-08 1.08088e-08 1.99622e-09 3.55279e-10 5.92993e-11 1.10509e-11 1.0662e-13 -2.10392e-13 5.81905e-13 -1.52204e-12 1.03635e-12 -8.70614e-13 -2.50063e-13 1.37695e-12 -9.68556e-13 4.08872e-13 3.1989e-13 -2.15379e-12 1.62513e-12 2.14293e-13 -1.34239e-12 1.62983e-12 -1.59439e-12 1.7178e-12 3.58684e-13 -1.06879e-12 1.59723e-12 -1.86202e-12 1.55554e-12 -6.90541e-13 1.24271e-12 -1.08929e-12 3.87898e-14 7.2909e-14 2.40479e-14 1.19411e-13 -1.49077e-12 -1.16277e-13 9.61782e-13 -1.52404e-13 -1.20048e-13 -8.6577e-13 3.21272e-14 1.63019e-12 -1.68199e-12 8.90357e-13 5.74318e-13 -9.56296e-13 1.37447e-12 -1.40954e-12 1.70094e-12 -2.11997e-13 -1.12878e-12 1.43125e-12 -1.30629e-12 8.38949e-13 2.24067e-13 -1.50408e-12 6.85064e-13 -1.83785e-12 6.00183e-13 -2.35223e-13 -1.65227e-12 1.42331e-12 -1.7347e-12 1.85592e-12 5.41048e-13 -3.85834e-12 2.79236e-12 -5.34619e-13 -1.78994e-13 3.88137e-13 -2.90031e-12 3.21977e-12 -7.06841e-15 0 0 1.82917e-15 4.05802e-15 1.31045e-14 -2.10245e-14 -1.13518e-13 -6.00371e-14 -2.80861e-14 -1.06169e-13 -1.02315e-13 -1.02234e-13 -1.93241e-13 3.06249e-14 2.8524e-14 -8.84734e-14 -9.85499e-14 3.1191e-14 -1.03355e-14 1.08243e-14 -8.24919e-14 1.22661e-14 8.75105e-15 -6.13316e-15 -2.02589e-13 -1.02548e-13 2.58755e-15 -5.62013e-14 2.38972e-13 -4.94975e-14 -4.67668e-14 -1.90545e-13 -1.47006e-13 -9.84604e-14 -6.12471e-14 7.04594e-14 -1.15542e-13 -7.57243e-14 -1.29183e-14 8.72112e-15 -1.41227e-13 4.92352e-14 -1.43028e-13 -2.94255e-13 1.38764e-13 -6.98214e-15 -2.90555e-13 -6.01306e-14 -1.56541e-13 8.37355e-14 -7.31161e-14 -1.76888e-13 -5.21138e-13 -1.2031e-13 8.24271e-13 3.12963e-13 -2.79155e-13 -2.89749e-13 -5.77109e-13 3.16492e-13 3.39362e-13 3.52915e-13 -5.02726e-13 7.63537e-14 2.8451e-13 -1.21993e-13 -2.70572e-13 -6.09808e-14 -5.31776e-14 1.25618e-13 -2.54255e-13 -1.76201e-13 3.45232e-13 -1.74389e-13 1.05634e-13 -7.83018e-13 -7.80758e-14 -1.93218e-13 1.292e-14 -1.2887e-13 -2.12438e-13 3.77199e-13 3.04219e-13 9.06812e-13 1.56603e-11 3.30558e-10 6.18947e-09 1.0002e-07 1.37542e-06 1.58262e-05 0.00014911 0.00111767 0.00641245 0.0268823 0.0795403 0.169357 0.284177 0.415515 0.552971 0.643805 0.742889 0.816117 0.85878 0.897937 0.932973 0.939765 0.944049 0.936042 0.921801 0.886305 0.824119 0.727571 0.587387 0.421205 0.262027 0.137013 0.0583094 0.0203687 0.00617789 0.00171869 0.000450796 0.000112584 2.68599e-05 6.12925e-06 1.33884e-06 2.80134e-07 5.6186e-08 1.08098e-08 1.99636e-09 3.53591e-10 6.04326e-11 9.91762e-12 1.54755e-12 -2.29558e-13 -9.94649e-13 4.58513e-14 2.29215e-14 -2.60361e-13 -2.36405e-13 -7.58371e-14 2.62175e-13 -4.45204e-14 -3.86383e-13 1.18206e-13 1.37626e-13 3.298e-13 -1.43977e-13 1.47637e-13 -1.1016e-13 -8.1714e-15 4.5809e-13 2.03348e-13 8.3921e-14 -1.47995e-13 -4.64822e-13 4.76789e-13 6.70779e-13 -2.12335e-13 -3.36521e-13 -7.42294e-13 -6.0443e-14 1.56512e-13 1.02797e-12 -4.63227e-13 -1.26762e-12 -1.80011e-13 3.62963e-13 -1.20924e-13 1.50875e-13 -2.91303e-13 3.83366e-13 -2.44884e-13 -3.71713e-13 7.88846e-13 5.68475e-13 7.24872e-13 -9.88452e-13 -9.38358e-13 7.8878e-13 5.06452e-13 5.83944e-13 -6.5195e-13 -1.1736e-12 -1.43042e-13 1.59271e-13 -1.55014e-13 -1.34285e-12 -1.10729e-12 3.96825e-13 8.53211e-13 -4.48766e-13 -6.48885e-13 -9.18083e-13 1.02508e-12 4.5327e-13 1.8045e-13 -1.13423e-12 -3.46552e-13 1.35268e-12 -6.43823e-13 -3.34042e-13 0 0 3.05773e-14 3.16827e-14 -5.53613e-14 -4.34792e-14 -5.53035e-14 -1.06242e-13 -5.24498e-14 -2.10371e-13 -2.24611e-13 -4.04623e-14 1.43078e-13 -2.68765e-15 6.31031e-14 -3.04642e-13 -1.24616e-13 5.70826e-14 -1.21962e-13 1.63965e-13 -2.94685e-14 -1.71513e-13 -8.57614e-14 1.42725e-13 -6.00953e-14 -1.47277e-13 -9.22805e-15 1.5434e-13 -2.15469e-13 -8.44201e-14 4.7007e-14 -2.65031e-14 -4.00374e-13 3.19198e-14 1.67851e-13 -2.62828e-13 1.62736e-13 6.00928e-13 -2.67528e-13 4.09042e-14 -4.3149e-13 -3.77505e-13 -1.96688e-13 -8.18544e-14 -1.75598e-13 4.40676e-13 2.97984e-13 4.25039e-14 -6.62281e-13 -5.0439e-14 -1.6885e-13 -1.01631e-13 3.16347e-14 -1.01538e-13 6.38571e-13 1.16297e-13 -1.15752e-13 1.68346e-14 -5.65053e-13 1.04887e-13 -2.02839e-13 1.1552e-13 -3.29665e-13 -2.9549e-13 -2.14171e-13 -1.91268e-14 1.19612e-13 1.14255e-13 -2.77247e-13 9.55757e-13 9.86584e-14 -1.51524e-13 4.44496e-13 -4.85691e-13 1.48822e-13 -6.09095e-13 -4.12313e-14 -2.22572e-13 -1.13987e-12 -1.16476e-13 1.14331e-13 8.08264e-13 1.2533e-13 -4.91643e-14 1.66565e-11 3.2998e-10 6.18836e-09 1.00021e-07 1.37542e-06 1.58262e-05 0.00014911 0.00111767 0.00641245 0.0268823 0.0795403 0.169357 0.284177 0.415515 0.552971 0.643805 0.742889 0.816117 0.85878 0.897937 0.932973 0.939765 0.944049 0.936042 0.921801 0.886305 0.824119 0.727571 0.587387 0.421205 0.262027 0.137013 0.0583094 0.0203687 0.00617789 0.00171869 0.000450796 0.000112584 2.68599e-05 6.12925e-06 1.33884e-06 2.80135e-07 5.61852e-08 1.08102e-08 1.99627e-09 3.5386e-10 6.11791e-11 9.05533e-12 1.4691e-12 -4.6102e-13 -2.62454e-13 3.39661e-13 -1.05129e-12 -1.11717e-13 -3.99517e-13 -3.04691e-13 1.1029e-12 -4.78027e-13 -7.85528e-13 1.20596e-12 -1.68773e-13 3.75275e-13 8.16105e-13 -1.73852e-12 4.97241e-13 3.42649e-13 1.08642e-12 1.04393e-12 -1.98309e-12 2.93451e-13 -2.48394e-13 7.6192e-13 -8.21235e-13 -9.04312e-14 -2.8753e-13 1.98676e-13 1.31938e-13 -1.06474e-12 -2.13714e-13 -4.73341e-13 -1.34894e-13 4.25172e-13 -3.76915e-13 -4.23945e-13 -7.01191e-13 -1.04049e-12 2.10614e-12 2.53362e-13 -4.59172e-13 7.48129e-13 -5.5704e-13 1.13388e-12 -7.46402e-13 8.40486e-13 -2.69086e-13 -1.08916e-12 7.35068e-13 1.373e-13 -3.00493e-13 4.92856e-13 -1.65134e-12 3.48363e-14 -1.28953e-12 -3.96573e-13 9.14679e-13 -5.74699e-14 1.11159e-12 -1.44027e-12 -8.98412e-13 1.93342e-12 -8.91717e-13 7.14081e-13 -4.01456e-13 -1.82115e-12 8.43164e-13 2.26485e-14 1.66223e-12 0 0 2.75456e-16 -1.13889e-14 -2.68602e-14 -1.25473e-13 -4.83404e-14 -7.272e-14 -1.56262e-13 -2.1195e-13 -7.59469e-14 -4.8948e-14 1.0423e-13 8.98243e-15 -2.21169e-13 -2.83084e-14 2.90467e-14 -1.16533e-13 9.90923e-14 -1.63862e-13 9.82146e-14 -1.32507e-13 -1.61582e-13 -2.80823e-13 -8.15036e-14 2.88814e-14 -1.36866e-13 -2.03467e-13 -1.60057e-13 5.14809e-14 7.5827e-14 5.45026e-14 5.16287e-14 -1.42382e-14 2.94859e-13 1.58615e-13 2.87771e-13 -1.25063e-13 3.92438e-13 -5.50916e-13 -1.77624e-13 -4.01102e-13 -3.65268e-13 -1.00263e-13 -7.65566e-14 1.02813e-13 2.67804e-13 -6.55058e-13 1.98476e-13 -1.83186e-13 -1.80948e-13 -4.27018e-13 -3.57783e-13 7.55695e-13 -9.62541e-13 7.17085e-13 5.69215e-13 -6.93336e-13 8.9272e-13 -9.80513e-13 5.10213e-14 -3.7604e-13 1.16406e-13 -2.00421e-13 -3.84659e-13 1.73669e-13 1.00486e-13 1.27022e-13 7.29629e-13 -1.436e-13 5.3307e-13 8.79031e-13 -1.0512e-12 1.76641e-13 -1.08943e-12 7.22922e-13 -1.05e-12 -4.10668e-13 -3.89785e-13 -6.5449e-14 1.06221e-12 -1.03848e-12 6.06669e-13 1.2616e-12 1.39626e-11 3.30204e-10 6.19097e-09 1.0002e-07 1.37542e-06 1.58262e-05 0.00014911 0.00111767 0.00641245 0.0268823 0.0795403 0.169357 0.284177 0.415515 0.552971 0.643805 0.742889 0.816117 0.85878 0.897937 0.932973 0.939765 0.944049 0.936042 0.921801 0.886305 0.824119 0.727571 0.587387 0.421205 0.262027 0.137013 0.0583094 0.0203687 0.00617789 0.00171869 0.000450796 0.000112584 2.68599e-05 6.12925e-06 1.33884e-06 2.80133e-07 5.61862e-08 1.0809e-08 1.99637e-09 3.55298e-10 5.95394e-11 1.05762e-11 -3.36327e-14 -2.7344e-13 8.18533e-13 -1.53495e-12 3.39645e-13 -8.55891e-13 -3.72001e-13 1.57022e-12 -8.22014e-13 1.84599e-13 1.74679e-13 -1.33881e-12 1.75772e-12 9.641e-13 -7.79515e-13 7.2726e-13 -1.61767e-12 2.20566e-12 1.13173e-12 -2.76789e-13 1.14411e-12 -2.13224e-12 1.20172e-12 -1.70879e-12 -2.79651e-13 -1.77021e-12 -1.938e-14 3.76166e-13 -4.15758e-13 -2.9811e-14 -2.17911e-12 -1.55087e-13 1.58627e-12 -2.06416e-13 -1.17859e-12 -2.55571e-13 1.205e-13 1.09655e-12 -1.53227e-12 7.21429e-13 7.66486e-13 -1.22238e-12 6.55178e-13 -1.41888e-12 2.12937e-12 9.28156e-13 -9.17512e-13 3.73243e-14 -1.65295e-12 1.56513e-12 9.46131e-13 -8.84269e-13 -4.25756e-13 -2.57891e-12 4.62029e-13 4.80508e-13 -8.19953e-13 1.17664e-12 -1.29231e-12 1.87627e-12 9.82815e-13 -3.85166e-12 2.15091e-12 -3.12313e-13 9.50491e-14 -8.89735e-13 -2.86875e-12 4.17541e-12 1.37502e-12 0 0 -1.91961e-15 2.4778e-14 -3.79232e-14 2.79198e-16 -2.50714e-13 -2.04927e-13 -1.38996e-13 -2.80327e-14 2.60096e-13 -5.03161e-14 -4.52456e-13 -1.57976e-13 4.22584e-14 -5.34381e-14 2.09476e-13 1.45848e-13 9.23197e-14 -3.50902e-14 -5.17314e-13 -1.14439e-13 1.15125e-13 -2.99196e-13 -6.37745e-13 -2.79484e-13 -9.26195e-14 -1.62197e-13 5.45382e-13 -4.42333e-13 2.90179e-14 -2.42552e-14 3.95219e-13 6.8756e-13 1.93408e-13 1.67942e-13 -1.72508e-13 1.70969e-13 -5.12783e-13 2.10267e-13 -2.74e-13 -2.19628e-13 -1.9871e-13 -5.90874e-13 4.38122e-14 -2.77323e-13 -5.96894e-13 4.94696e-13 -7.07203e-13 3.93218e-13 8.68086e-14 -2.67587e-13 -1.06659e-12 -6.47872e-13 1.29052e-12 -3.18296e-15 1.21477e-13 2.92064e-13 -1.25245e-12 1.43994e-12 -8.30174e-13 5.89916e-14 8.49909e-14 2.96297e-13 3.55906e-13 -7.39129e-13 -2.07905e-13 7.1452e-13 1.222e-13 9.83442e-13 -5.43493e-13 -5.62266e-13 1.56885e-12 -1.11028e-12 4.00228e-15 -1.7846e-12 -8.27492e-14 3.99733e-13 -9.72759e-14 8.97813e-13 -1.46889e-12 1.04737e-12 -8.91636e-13 2.99891e-13 1.59091e-11 3.30833e-10 6.18846e-09 1.00021e-07 1.37542e-06 1.58262e-05 0.00014911 0.00111767 0.00641245 0.0268823 0.0795403 0.169357 0.284177 0.415515 0.552971 0.643805 0.742889 0.816117 0.85878 0.897937 0.932973 0.939765 0.944049 0.936042 0.921801 0.886305 0.824119 0.727571 0.587387 0.421205 0.262027 0.137013 0.0583094 0.0203687 0.00617789 0.00171869 0.000450796 0.000112584 2.68599e-05 6.12925e-06 1.33884e-06 2.80134e-07 5.6185e-08 1.08109e-08 1.99725e-09 3.52276e-10 6.08905e-11 8.65723e-12 2.74403e-12 3.1519e-13 -2.42713e-12 1.45626e-13 -1.37792e-12 1.29711e-12 7.64848e-13 -1.03632e-12 3.99204e-13 -5.01399e-13 -5.10997e-13 2.3957e-12 -1.36634e-12 6.62285e-14 1.1607e-12 5.15124e-13 1.84873e-12 -1.24938e-12 -1.20624e-14 1.25895e-12 1.45908e-12 1.34771e-12 -3.16411e-12 -1.32996e-12 -1.742e-12 6.6591e-14 -4.44516e-13 -1.54077e-12 -1.53607e-12 6.19265e-13 2.16656e-12 -7.23395e-13 -1.34448e-12 -6.35782e-13 -1.12393e-12 2.59601e-12 1.58019e-12 -1.21284e-12 -5.85106e-13 -2.57813e-12 6.52108e-13 1.12939e-12 -1.29051e-12 1.51345e-12 -1.05412e-12 -5.67615e-13 3.38408e-12 -2.00182e-12 1.03542e-12 -1.16859e-12 -3.25715e-13 1.12054e-12 -1.19859e-12 -7.25476e-13 -2.40829e-12 -7.55807e-14 2.28701e-12 -9.97871e-13 1.08237e-12 -3.121e-13 -9.79491e-13 2.85288e-12 -2.19743e-12 -1.71018e-12 -3.2365e-13 -6.75156e-13 4.82194e-12 -2.58834e-12 1.31641e-13 0
				</DataArray>
				<DataArray Name="VitesseY" type="Float32" format="ascii">