<?xml version="1.0"?>
<VTKFile type="PolyData">
	<PolyData>
		<Piece NumberOfPoints="1206" NumberOfPolys="1000">
			<Points>
				<DataArray type="Float32" NumberOfComponents="3" format="ascii">
 0 0 0 0.005 0 0 0.01 0 0 0.015 0 0 0.02 0 0 0.025 0 0 0.03 0 0 0.035 0 0 0.04 0 0 0.045 0 0 0.05 0 0 0.055 0 0 0.06 0 0 0.065 0 0 0.07 0 0 0.075 0 0 0.08 0 0 0.085 0 0 0.09 0 0 0.095 0 0 0.1 0 0 0.105 0 0 0.11 0 0 0.115 0 0 0.12 0 0 0.125 0 0 0.13 0 0 0.135 0 0 0.14 0 0 0.145 0 0 0.15 0 0 0.155 0 0 0.16 0 0 0.165 0 0 0.17 0 0 0.175 0 0 0.18 0 0 0.185 0 0 0.19 0 0 0.195 0 0 0.2 0 0 0.205 0 0 0.21 0 0 0.215 0 0 0.22 0 0 0.225 0 0 0.23 0 0 0.235 0 0 0.24 0 0 0.245 0 0 0.25 0 0 0.255 0 0 0.26 0 0 0.265 0 0 0.27 0 0 0.275 0 0 0.28 0 0 0.285 0 0 0.29 0 0 0.295 0 0 0.3 0 0 0.305 0 0 0.31 0 0 0.315 0 0 0.32 0 0 0.325 0 0 0.33 0 0 0.335 0 0 0.34 0 0 0.345 0 0 0.35 0 0 0.355 0 0 0.36 0 0 0.365 0 0 0.37 0 0 0.375 0 0 0.38 0 0 0.385 0 0 0.39 0 0 0.395 0 0 0.4 0 0 0.405 0 0 0.41 0 0 0.415 0 0 0.42 0 0 0.425 0 0 0.43 0 0 0.435 0 0 0.44 0 0 0.445 0 0 0.45 0 0 0.455 0 0 0.46 0 0 0.465 0 0 0.47 0 0 0.475 0 0 0.48 0 0 0.485 0 0 0.49 0 0 0.495 0 0 0.5 0 0 0.505 0 0 0.51 0 0 0.515 0 0 0.52 0 0 0.525 0 0 0.53 0 0 0.535 0 0 0.54 0 0 0.545 0 0 0.55 0 0 0.555 0 0 0.56 0 0 0.565 0 0 0.57 0 0 0.575 0 0 0.58 0 0 0.585 0 0 0.59 0 0 0.595 0 0 0.6 0 0 0.605 0 0 0.61 0 0 0.615 0 0 0.62 0 0 0.625 0 0 0.63 0 0 0.635 0 0 0.64 0 0 0.645 0 0 0.65 0 0 0.655 0 0 0.66 0 0 0.665 0 0 0.67 0 0 0.675 0 0 0.68 0 0 0.685 0 0 0.69 0 0 0.695 0 0 0.7 0 0 0.705 0 0 0.71 0 0 0.715 0 0 0.72 0 0 0.725 0 0 0.73 0 0 0.735 0 0 0.74 0 0 0.745 0 0 0.75 0 0 0.755 0 0 0.76 0 0 0.765 0 0 0.77 0 0 0.775 0 0 0.78 0 0 0.785 0 0 0.79 0 0 0.795 0 0 0.8 0 0 0.805 0 0 0.81 0 0 0.815 0 0 0.82 0 0 0.825 0 0 0.83 0 0 0.835 0 0 0.84 0 0 0.845 0 0 0.85 0 0 0.855 0 0 0.86 0 0 0.865 0 0 0.87 0 0 0.875 0 0 0.88 0 0 0.885 0 0 0.89 0 0 0.895 0 0 0.9 0 0 0.905 0 0 0.91 0 0 0.915 0 0 0.92 0 0 0.925 0 0 0.93 0 0 0.935 0 0 0.94 0 0 0.945 0 0 0.95 0 0 0.955 0 0 0.96 0 0 0.965 0 0 0.97 0 0 0.975 0 0 0.98 0 0 0.985 0 0 0.99 0 0 0.995 0 0 1 0 0 0 0.02 0 0.005 0.02 0 0.01 0.02 0 0.015 0.02 0 0.02 0.02 0 0.025 0.02 0 0.03 0.02 0 0.035 0.02 0 0.04 0.02 0 0.045 0.02 0 0.05 0.02 0 0.055 0.02 0 0.06 0.02 0 0.065 0.02 0 0.07 0.02 0 0.075 0.02 0 0.08 0.02 0 0.085 0.02 0 0.09 0.02 0 0.095 0.02 0 0.1 0.02 0 0.105 0.02 0 0.11 0.02 0 0.115 0.02 0 0.12 0.02 0 0.125 0.02 0 0.13 0.02 0 0.135 0.02 0 0.14 0.02 0 0.145 0.02 0 0.15 0.02 0 0.155 0.02 0 0.16 0.02 0 0.165 0.02 0 0.17 0.02 0 0.175 0.02 0 0.18 0.02 0 0.185 0.02 0 0.19 0.02 0 0.195 0.02 0 0.2 0.02 0 0.205 0.02 0 0.21 0.02 0 0.215 0.02 0 0.22 0.02 0 0.225 0.02 0 0.23 0.02 0 0.235 0.02 0 0.24 0.02 0 0.245 0.02 0 0.25 0.02 0 0.255 0.02 0 0.26 0.02 0 0.265 0.02 0 0.27 0.02 0 0.275 0.02 0 0.28 0.02 0 0.285 0.02 0 0.29 0.02 0 0.295 0.02 0 0.3 0.02 0 0.305 0.02 0 0.31 0.02 0 0.315 0.02 0 0.32 0.02 0 0.325 0.02 0 0.33 0.02 0 0.335 0.02 0 0.34 0.02 0 0.345 0.02 0 0.35 0.02 0 0.355 0.02 0 0.36 0.02 0 0.365 0.02 0 0.37 0.02 0 0.375 0.02 0 0.38 0.02 0 0.385 0.02 0 0.39 0.02 0 0.395 0.02 0 0.4 0.02 0 0.405 0.02 0 0.41 0.02 0 0.415 0.02 0 0.42 0.02 0 0.425 0.02 0 0.43 0.02 0 0.435 0.02 0 0.44 0.02 0 0.445 0.02 0 0.45 0.02 0 0.455 0.02 0 0.46 0.02 0 0.465 0.02 0 0.47 0.02 0 0.475 0.02 0 0.48 0.02 0 0.485 0.02 0 0.49 0.02 0 0.495 0.02 0 0.5 0.02 0 0.505 0.02 0 0.51 0.02 0 0.515 0.02 0 0.52 0.02 0 0.525 0.02 0 0.53 0.02 0 0.535 0.02 0 0.54 0.02 0 0.545 0.02 0 0.55 0.02 0 0.555 0.02 0 0.56 0.02 0 0.565 0.02 0 0.57 0.02 0 0.575 0.02 0 0.58 0.02 0 0.585 0.02 0 0.59 0.02 0 0.595 0.02 0 0.6 0.02 0 0.605 0.02 0 0.61 0.02 0 0.615 0.02 0 0.62 0.02 0 0.625 0.02 0 0.63 0.02 0 0.635 0.02 0 0.64 0.02 0 0.645 0.02 0 0.65 0.02 0 0.655 0.02 0 0.66 0.02 0 0.665 0.02 0 0.67 0.02 0 0.675 0.02 0 0.68 0.02 0 0.685 0.02 0 0.69 0.02 0 0.695 0.02 0 0.7 0.02 0 0.705 0.02 0 0.71 0.02 0 0.715 0.02 0 0.72 0.02 0 0.725 0.02 0 0.73 0.02 0 0.735 0.02 0 0.74 0.02 0 0.745 0.02 0 0.75 0.02 0 0.755 0.02 0 0.76 0.02 0 0.765 0.02 0 0.77 0.02 0 0.775 0.02 0 0.78 0.02 0 0.785 0.02 0 0.79 0.02 0 0.795 0.02 0 0.8 0.02 0 0.805 0.02 0 0.81 0.02 0 0.815 0.02 0 0.82 0.02 0 0.825 0.02 0 0.83 0.02 0 0.835 0.02 0 0.84 0.02 0 0.845 0.02 0 0.85 0.02 0 0.855 0.02 0 0.86 0.02 0 0.865 0.02 0 0.87 0.02 0 0.875 0.02 0 0.88 0.02 0 0.885 0.02 0 0.89 0.02 0 0.895 0.02 0 0.9 0.02 0 0.905 0.02 0 0.91 0.02 0 0.915 0.02 0 0.92 0.02 0 0.925 0.02 0 0.93 0.02 0 0.935 0.02 0 0.94 0.02 0 0.945 0.02 0 0.95 0.02 0 0.955 0.02 0 0.96 0.02 0 0.965 0.02 0 0.97 0.02 0 0.975 0.02 0 0.98 0.02 0 0.985 0.02 0 0.99 0.02 0 0.995 0.02 0 1 0.02 0 0 0.04 0 0.005 0.04 0 0.01 0.04 0 0.015 0.04 0 0.02 0.04 0 0.025 0.04 0 0.03 0.04 0 0.035 0.04 0 0.04 0.04 0 0.045 0.04 0 0.05 0.04 0 0.055 0.04 0 0.06 0.04 0 0.065 0.04 0 0.07 0.04 0 0.075 0.04 0 0.08 0.04 0 0.085 0.04 0 0.09 0.04 0 0.095 0.04 0 0.1 0.04 0 0.105 0.04 0 0.11 0.04 0 0.115 0.04 0 0.12 0.04 0 0.125 0.04 0 0.13 0.04 0 0.135 0.04 0 0.14 0.04 0 0.145 0.04 0 0.15 0.04 0 0.155 0.04 0 0.16 0.04 0 0.165 0.04 0 0.17 0.04 0 0.175 0.04 0 0.18 0.04 0 0.185 0.04 0 0.19 0.04 0 0.195 0.04 0 0.2 0.04 0 0.205 0.04 0 0.21 0.04 0 0.215 0.04 0 0.22 0.04 0 0.225 0.04 0 0.23 0.04 0 0.235 0.04 0 0.24 0.04 0 0.245 0.04 0 0.25 0.04 0 0.255 0.04 0 0.26 0.04 0 0.265 0.04 0 0.27 0.04 0 0.275 0.04 0 0.28 0.04 0 0.285 0.04 0 0.29 0.04 0 0.295 0.04 0 0.3 0.04 0 0.305 0.04 0 0.31 0.04 0 0.315 0.04 0 0.32 0.04 0 0.325 0.04 0 0.33 0.04 0 0.335 0.04 0 0.34 0.04 0 0.345 0.04 0 0.35 0.04 0 0.355 0.04 0 0.36 0.04 0 0.365 0.04 0 0.37 0.04 0 0.375 0.04 0 0.38 0.04 0 0.385 0.04 0 0.39 0.04 0 0.395 0.04 0 0.4 0.04 0 0.405 0.04 0 0.41 0.04 0 0.415 0.04 0 0.42 0.04 0 0.425 0.04 0 0.43 0.04 0 0.435 0.04 0 0.44 0.04 0 0.445 0.04 0 0.45 0.04 0 0.455 0.04 0 0.46 0.04 0 0.465 0.04 0 0.47 0.04 0 0.475 0.04 0 0.48 0.04 0 0.485 0.04 0 0.49 0.04 0 0.495 0.04 0 0.5 0.04 0 0.505 0.04 0 0.51 0.04 0 0.515 0.04 0 0.52 0.04 0 0.525 0.04 0 0.53 0.04 0 0.535 0.04 0 0.54 0.04 0 0.545 0.04 0 0.55 0.04 0 0.555 0.04 0 0.56 0.04 0 0.565 0.04 0 0.57 0.04 0 0.575 0.04 0 0.58 0.04 0 0.585 0.04 0 0.59 0.04 0 0.595 0.04 0 0.6 0.04 0 0.605 0.04 0 0.61 0.04 0 0.615 0.04 0 0.62 0.04 0 0.625 0.04 0 0.63 0.04 0 0.635 0.04 0 0.64 0.04 0 0.645 0.04 0 0.65 0.04 0 0.655 0.04 0 0.66 0.04 0 0.665 0.04 0 0.67 0.04 0 0.675 0.04 0 0.68 0.04 0 0.685 0.04 0 0.69 0.04 0 0.695 0.04 0 0.7 0.04 0 0.705 0.04 0 0.71 0.04 0 0.715 0.04 0 0.72 0.04 0 0.725 0.04 0 0.73 0.04 0 0.735 0.04 0 0.74 0.04 0 0.745 0.04 0 0.75 0.04 0 0.755 0.04 0 0.76 0.04 0 0.765 0.04 0 0.77 0.04 0 0.775 0.04 0 0.78 0.04 0 0.785 0.04 0 0.79 0.04 0 0.795 0.04 0 0.8 0.04 0 0.805 0.04 0 0.81 0.04 0 0.815 0.04 0 0.82 0.04 0 0.825 0.04 0 0.83 0.04 0 0.835 0.04 0 0.84 0.04 0 0.845 0.04 0 0.85 0.04 0 0.855 0.04 0 0.86 0.04 0 0.865 0.04 0 0.87 0.04 0 0.875 0.04 0 0.88 0.04 0 0.885 0.04 0 0.89 0.04 0 0.895 0.04 0 0.9 0.04 0 0.905 0.04 0 0.91 0.04 0 0.915 0.04 0 0.92 0.04 0 0.925 0.04 0 0.93 0.04 0 0.935 0.04 0 0.94 0.04 0 0.945 0.04 0 0.95 0.04 0 0.955 0.04 0 0.96 0.04 0 0.965 0.04 0 0.97 0.04 0 0.975 0.04 0 0.98 0.04 0 0.985 0.04 0 0.99 0.04 0 0.995 0.04 0 1 0.04 0 0 0.06 0 0.005 0.06 0 0.01 0.06 0 0.015 0.06 0 0.02 0.06 0 0.025 0.06 0 0.03 0.06 0 0.035 0.06 0 0.04 0.06 0 0.045 0.06 0 0.05 0.06 0 0.055 0.06 0 0.06 0.06 0 0.065 0.06 0 0.07 0.06 0 0.075 0.06 0 0.08 0.06 0 0.085 0.06 0 0.09 0.06 0 0.095 0.06 0 0.1 0.06 0 0.105 0.06 0 0.11 0.06 0 0.115 0.06 0 0.12 0.06 0 0.125 0.06 0 0.13 0.06 0 0.135 0.06 0 0.14 0.06 0 0.145 0.06 0 0.15 0.06 0 0.155 0.06 0 0.16 0.06 0 0.165 0.06 0 0.17 0.06 0 0.175 0.06 0 0.18 0.06 0 0.185 0.06 0 0.19 0.06 0 0.195 0.06 0 0.2 0.06 0 0.205 0.06 0 0.21 0.06 0 0.215 0.06 0 0.22 0.06 0 0.225 0.06 0 0.23 0.06 0 0.235 0.06 0 0.24 0.06 0 0.245 0.06 0 0.25 0.06 0 0.255 0.06 0 0.26 0.06 0 0.265 0.06 0 0.27 0.06 0 0.275 0.06 0 0.28 0.06 0 0.285 0.06 0 0.29 0.06 0 0.295 0.06 0 0.3 0.06 0 0.305 0.06 0 0.31 0.06 0 0.315 0.06 0 0.32 0.06 0 0.325 0.06 0 0.33 0.06 0 0.335 0.06 0 0.34 0.06 0 0.345 0.06 0 0.35 0.06 0 0.355 0.06 0 0.36 0.06 0 0.365 0.06 0 0.37 0.06 0 0.375 0.06 0 0.38 0.06 0 0.385 0.06 0 0.39 0.06 0 0.395 0.06 0 0.4 0.06 0 0.405 0.06 0 0.41 0.06 0 0.415 0.06 0 0.42 0.06 0 0.425 0.06 0 0.43 0.06 0 0.435 0.06 0 0.44 0.06 0 0.445 0.06 0 0.45 0.06 0 0.455 0.06 0 0.46 0.06 0 0.465 0.06 0 0.47 0.06 0 0.475 0.06 0 0.48 0.06 0 0.485 0.06 0 0.49 0.06 0 0.495 0.06 0 0.5 0.06 0 0.505 0.06 0 0.51 0.06 0 0.515 0.06 0 0.52 0.06 0 0.525 0.06 0 0.53 0.06 0 0.535 0.06 0 0.54 0.06 0 0.545 0.06 0 0.55 0.06 0 0.555 0.06 0 0.56 0.06 0 0.565 0.06 0 0.57 0.06 0 0.575 0.06 0 0.58 0.06 0 0.585 0.06 0 0.59 0.06 0 0.595 0.06 0 0.6 0.06 0 0.605 0.06 0 0.61 0.06 0 0.615 0.06 0 0.62 0.06 0 0.625 0.06 0 0.63 0.06 0 0.635 0.06 0 0.64 0.06 0 0.645 0.06 0 0.65 0.06 0 0.655 0.06 0 0.66 0.06 0 0.665 0.06 0 0.67 0.06 0 0.675 0.06 0 0.68 0.06 0 0.685 0.06 0 0.69 0.06 0 0.695 0.06 0 0.7 0.06 0 0.705 0.06 0 0.71 0.06 0 0.715 0.06 0 0.72 0.06 0 0.725 0.06 0 0.73 0.06 0 0.735 0.06 0 0.74 0.06 0 0.745 0.06 0 0.75 0.06 0 0.755 0.06 0 0.76 0.06 0 0.765 0.06 0 0.77 0.06 0 0.775 0.06 0 0.78 0.06 0 0.785 0.06 0 0.79 0.06 0 0.795 0.06 0 0.8 0.06 0 0.805 0.06 0 0.81 0.06 0 0.815 0.06 0 0.82 0.06 0 0.825 0.06 0 0.83 0.06 0 0.835 0.06 0 0.84 0.06 0 0.845 0.06 0 0.85 0.06 0 0.855 0.06 0 0.86 0.06 0 0.865 0.06 0 0.87 0.06 0 0.875 0.06 0 0.88 0.06 0 0.885 0.06 0 0.89 0.06 0 0.895 0.06 0 0.9 0.06 0 0.905 0.06 0 0.91 0.06 0 0.915 0.06 0 0.92 0.06 0 0.925 0.06 0 0.93 0.06 0 0.935 0.06 0 0.94 0.06 0 0.945 0.06 0 0.95 0.06 0 0.955 0.06 0 0.96 0.06 0 0.965 0.06 0 0.97 0.06 0 0.975 0.06 0 0.98 0.06 0 0.985 0.06 0 0.99 0.06 0 0.995 0.06 0 1 0.06 0 0 0.08 0 0.005 0.08 0 0.01 0.08 0 0.015 0.08 0 0.02 0.08 0 0.025 0.08 0 0.03 0.08 0 0.035 0.08 0 0.04 0.08 0 0.045 0.08 0 0.05 0.08 0 0.055 0.08 0 0.06 0.08 0 0.065 0.08 0 0.07 0.08 0 0.075 0.08 0 0.08 0.08 0 0.085 0.08 0 0.09 0.08 0 0.095 0.08 0 0.1 0.08 0 0.105 0.08 0 0.11 0.08 0 0.115 0.08 0 0.12 0.08 0 0.125 0.08 0 0.13 0.08 0 0.135 0.08 0 0.14 0.08 0 0.145 0.08 0 0.15 0.08 0 0.155 0.08 0 0.16 0.08 0 0.165 0.08 0
[...]
			<PointData Scalars="VitesseX">
				<DataArray Name="VitesseX" type="Float32" format="ascii">
 0 1.05612e-14 1.59688e-14 -1.55405e-14 1.62999e-14 -3.15825e-14 5.12695e-14 -1.93526e-14 3.34308e-14 6.7306e-14 3.17622e-14 -7.898e-14 4.84336e-14 2.97044e-14 -1.8603e-13 2.89165e-14 -9.47439e-14 -9.57518e-14 -2.28009e-14 -1.27733e-13 -2.11135e-14 -5.93934e-14 -1.34964e-13 -6.13377e-15 -9.08436e-14 4.16252e-14 -2.62369e-13 -6.82374e-14 -2.98568e-13 2.92558e-14 -1.87096e-13 -1.78901e-13 -1.40536e-13 -1.12795e-13 -1.38682e-13 3.18336e-14 1.98151e-12 1.15736e-11 6.47583e-11 3.48365e-10 1.78197e-09 8.65588e-09 3.98834e-08 1.73939e-07 7.16122e-07 2.77516e-06 1.00887e-05 3.42721e-05 0.000108297 0.000316619 0.00085119 0.00208998 0.00465573 0.00936176 0.0169684 0.0278391 0.0417669 0.0581322 0.0762237 0.0954576 0.115431 0.135891 0.156686 0.177719 0.198923 0.220257 0.241695 0.263222 0.284825 0.306498 0.328239 0.350048 0.37193 0.393895 0.415955 0.438109 0.460018 0.481716 0.503242 0.524539 0.545685 0.566764 0.587631 0.608505 0.629103 0.649709 0.670086 0.690346 0.710533 0.730423 0.750264 0.769885 0.789049 0.808236 0.826866 0.84488 0.862853 0.878872 0.893809 0.906707 0.915926 0.923378 0.927924 0.929849 0.931199 0.931503 0.931442 0.931322 0.931165 0.930962 0.930703 0.930392 0.930056 0.929732 0.929453 0.929211 0.928998 0.928819 0.928669 0.928546 0.928443 0.928354 0.928279 0.928216 0.928162 0.928113 0.928064 0.928009 0.927935 0.92782 0.927626 0.927293 0.926755 0.926453 0.927304 0.93091 0.929514 0.927213 0.927114 0.927263 0.927436 0.92753 0.927584 0.92764 0.927616 0.927545 0.927518 0.9276 0.927612 0.927604 0.927592 0.927579 0.927566 0.927547 0.92751 0.927433 0.927288 0.927014 0.92647 0.92538 0.923204 0.918908 0.910566 0.894796 0.866239 0.817702 0.741969 0.635748 0.504614 0.364561 0.23602 0.134696 0.0672265 0.0298116 0.0121968 0.00478051 0.0018376 0.000700486 0.000266009 0.000100805 3.81412e-05 1.44104e-05 5.43613e-06 2.04717e-06 7.69445e-07 2.8857e-07 1.0796e-07 4.028e-08 1.49827e-08 5.55491e-09 2.05212e-09 7.54506e-10 2.76633e-10 1.01059e-10 3.60594e-11 1.31581e-11 4.70226e-12 1.10347e-12 8.53572e-13 5.14412e-13 0 0 4.40338e-15 -1.36147e-14 1.18665e-14 -2.80982e-14 2.34896e-14 -1.94784e-14 4.44771e-14 -1.40844e-14 6.09178e-15 -1.11595e-14 8.9644e-14 -1.69226e-14 -9.35398e-14 3.11634e-14 -5.70547e-14 7.74719e-15 -1.22534e-13 -1.30094e-13 3.64672e-14 -1.38588e-13 2.85859e-14 -4.40215e-14 -1.2384e-13 -3.05658e-14 -2.34391e-13 -1.03728e-14 -1.83518e-13 -8.3263e-14 -1.83339e-13 -7.94769e-14 -1.68226e-13 -1.82872e-13 -1.48684e-13 -1.72046e-13 2.39836e-13 1.95261e-12 1.15029e-11 6.47845e-11 3.48533e-10 1.78184e-09 8.65568e-09 3.98835e-08 1.73939e-07 7.16122e-07 2.77516e-06 1.00888e-05 3.42721e-05 0.000108297 0.000316619 0.00085119 0.00208998 0.00465573 0.00936176 0.0169684 0.0278391 0.0417669 0.0581322 0.0762237 0.0954576 0.115431 0.135891 0.156686 0.177719 0.198923 0.220257 0.241695 0.263222 0.284825 0.306498 0.328239 0.350048 0.37193 0.393895 0.415955 0.438109 0.460018 0.481716 0.503242 0.524539 0.545685 0.566764 0.587631 0.608505 0.629103 0.649709 0.670086 0.690346 0.710533 0.730423 0.750264 0.769885 0.789049 0.808236 0.826866 0.84488 0.862853 0.878872 0.893809 0.906707 0.915926 0.923378 0.927924 0.929849 0.931199 0.931503 0.931442 0.931322 0.931165 0.930962 0.930703 0.930392 0.930056 0.929732 0.929453 0.929211 0.928998 0.928819 0.928669 0.928546 0.928443 0.928354 0.928279 0.928216 0.928162 0.928113 0.928064 0.928009 0.927935 0.92782 0.927626 0.927293 0.926755 0.926453 0.927304 0.93091 0.929514 0.927213 0.927114 0.927263 0.927436 0.92753 0.927584 0.92764 0.927616 0.927545 0.927518 0.9276 0.927612 0.927604 0.927592 0.927579 0.927566 0.927547 0.92751 0.927433 0.927288 0.927014 0.92647 0.92538 0.923204 0.918908 0.910566 0.894796 0.866239 0.817702 0.741969 0.635748 0.504614 0.364561 0.23602 0.134696 0.0672265 0.0298116 0.0121968 0.00478051 0.0018376 0.000700486 0.000266009 0.000100805 3.81412e-05 1.44104e-05 5.43613e-06 2.04717e-06 7.69445e-07 2.8857e-07 1.0796e-07 4.02799e-08 1.49834e-08 5.55475e-09 2.05169e-09 7.55227e-10 2.7639e-10 1.00392e-10 3.66143e-11 1.31071e-11 4.47764e-12 2.21066e-12 -4.69916e-14 1.61897e-13 0 0 -5.54787e-15 -7.69609e-15 -2.65389e-14 -2.2368e-14 -6.90576e-14 5.37208e-14 -3.59799e-14 1.44701e-14 4.67175e-14 -1.26103e-14 -4.69955e-14 5.70736e-14 2.86456e-14 -1.00965e-13 3.03037e-14 -2.98399e-14 -2.7739e-14 5.69408e-14 -1.00986e-13 -1.30679e-13 -6.44419e-14 -2.13373e-14 -9.14171e-14 -6.30268e-14 -8.96784e-14 -1.79425e-13 -1.45137e-13 -2.78173e-13 6.15213e-14 -8.81887e-14 -1.49298e-13 4.06842e-15 -2.62158e-13 -7.33183e-14 2.27621e-13 2.01243e-12 1.14303e-11 6.48834e-11 3.48663e-10 1.78183e-09 8.65567e-09 3.98836e-08 1.73939e-07 7.16122e-07 2.77516e-06 1.00887e-05 3.42721e-05 0.000108297 0.000316619 0.00085119 0.00208998 0.00465573 0.00936176 0.0169684 0.0278391 0.0417669 0.0581322 0.0762237 0.0954576 0.115431 0.135891 0.156686 0.177719 0.198923 0.220257 0.241695 0.263222 0.284825 0.306498 0.328239 0.350048 0.37193 0.393895 0.415955 0.438109 0.460018 0.481716 0.503242 0.524539 0.545685 0.566764 0.587631 0.608505 0.629103 0.649709 0.670086 0.690346 0.710533 0.730423 0.750264 0.769885 0.789049 0.808236 0.826866 0.84488 0.862853 0.878872 0.893809 0.906707 0.915926 0.923378 0.927924 0.929849 0.931199 0.931503 0.931442 0.931322 0.931165 0.930962 0.930703 0.930392 0.930056 0.929732 0.929453 0.929211 0.928998 0.928819 0.928669 0.928546 0.928443 0.928354 0.928279 0.928216 0.928162 0.928113 0.928064 0.928009 0.927935 0.92782 0.927626 0.927293 0.926755 0.926453 0.927304 0.93091 0.929514 0.927213 0.927114 0.927263 0.927436 0.92753 0.927584 0.92764 0.927616 0.927545 0.927518 0.9276 0.927612 0.927604 0.927592 0.927579 0.927566 0.927547 0.92751 0.927433 0.927288 0.927014 0.92647 0.92538 0.923204 0.918908 0.910566 0.894796 0.866239 0.817702 0.741969 0.635748 0.504614 0.364561 0.23602 0.134696 0.0672265 0.0298116 0.0121968 0.00478051 0.0018376 0.000700486 0.000266009 0.000100805 3.81412e-05 1.44104e-05 5.43613e-06 2.04717e-06 7.69445e-07 2.8857e-07 1.0796e-07 4.028e-08 1.49831e-08 5.55478e-09 2.05185e-09 7.54729e-10 2.76382e-10 1.00549e-10 3.66865e-11 1.30036e-11 4.51064e-12 1.03589e-12 1.144e-12 9.48946e-14 0 0 -7.00482e-15 -4.74407e-15 -1.95562e-14 -2.3012e-14 -6.73677e-14 1.48017e-14 -7.63679e-14 -1.24918e-14 9.01818e-15 4.30518e-14 -1.53827e-15 5.22386e-14 2.20687e-14 -3.37999e-14 4.40207e-14 -1.0214e-13 -8.00903e-15 3.83385e-14 -1.0174e-13 3.30587e-15 -5.53507e-14 -1.04159e-13 -8.32325e-15 5.2864e-15 -5.30608e-14 -1.00513e-13 -2.2072e-13 -2.80668e-13 -7.10427e-14 -2.3012e-14 -2.91472e-14 -7.1978e-14 -1.91206e-13 -5.20591e-14 7.86126e-14 1.83056e-12 1.14949e-11 6.50182e-11 3.48902e-10 1.78211e-09 8.65587e-09 3.98834e-08 1.73939e-07 7.16122e-07 2.77516e-06 1.00888e-05 3.42721e-05 0.000108297 0.000316619 0.00085119 0.00208998 0.00465573 0.00936176 0.0169684 0.0278391 0.0417669 0.0581322 0.0762237 0.0954576 0.115431 0.135891 0.156686 0.177719 0.198923 0.220257 0.241695 0.263222 0.284825 0.306498 0.328239 0.350048 0.37193 0.393895 0.415955 0.438109 0.460018 0.481716 0.503242 0.524539 0.545685 0.566764 0.587631 0.608505 0.629103 0.649709 0.670086 0.690346 0.710533 0.730423 0.750264 0.769885 0.789049 0.808236 0.826866 0.84488 0.862853 0.878872 0.893809 0.906707 0.915926 0.923378 0.927924 0.929849 0.931199 0.931503 0.931442 0.931322 0.931165 0.930962 0.930703 0.930392 0.930056 0.929732 0.929453 0.929211 0.928998 0.928819 0.928669 0.928546 0.928443 0.928354 0.928279 0.928216 0.928162 0.928113 0.928064 0.928009 0.927935 0.92782 0.927626 0.927293 0.926755 0.926453 0.927304 0.93091 0.929514 0.927213 0.927114 0.927263 0.927436 0.92753 0.927584 0.92764 0.927616 0.927545 0.927518 0.9276 0.927612 0.927604 0.927592 0.927579 0.927566 0.927547 0.92751 0.927433 0.927288 0.927014 0.92647 0.92538 0.923204 0.918908 0.910566 0.894796 0.866239 0.817702 0.741969 0.635748 0.504614 0.364561 0.23602 0.134696 0.0672265 0.0298116 0.0121968 0.00478051 0.0018376 0.000700486 0.000266009 0.000100805 3.81412e-05 1.44104e-05 5.43613e-06 2.04717e-06 7.69445e-07 2.8857e-07 1.0796e-07 4.02799e-08 1.4983e-08 5.55474e-09 2.05191e-09 7.54521e-10 2.76438e-10 1.00928e-10 3.62071e-11 1.26904e-11 4.67342e-12 9.33587e-13 4.14002e-13 1.13578e-12 0 0 -6.48172e-15 -2.87736e-14 1.30697e-14 -2.45023e-14 1.48623e-15 -6.52598e-14 -6.11313e-16 -3.83852e-14 -3.78762e-14 5.87275e-15 1.09609e-13 -9.28485e-15 -3.92286e-14 4.69753e-14 -2.86344e-14 -9.42527e-16 -3.4012e-14 -8.62152e-14 1.75692e-14 -3.87708e-14 2.74644e-14 -9.64715e-14 -1.20997e-13 -2.57922e-14 -1.94558e-13 1.63292e-13 -1.95502e-13 2.2877e-14 -3.04954e-13 -4.12165e-14 1.90603e-14 -1.18252e-13 -1.86052e-13 -6.63794e-14 1.93188e-14 1.78212e-12 1.13718e-11 6.50412e-11 3.48809e-10 1.7822e-09 8.6558e-09 3.98834e-08 1.73939e-07 7.16122e-07 2.77516e-06 1.00888e-05 3.42721e-05 0.000108297 0.000316619 0.00085119 0.00208998 0.00465573 0.00936176 0.0169684 0.0278391 0.0417669 0.0581322 0.0762237 0.0954576 0.115431 0.135891 0.156686 0.177719 0.198923 0.220257 0.241695 0.263222 0.284825 0.306498 0.328239 0.350048 0.37193 0.393895 0.415955 0.438109 0.460018 0.481716 0.503242 0.524539 0.545685 0.566764 0.587631 0.608505 0.629103 0.649709 0.670086 0.690346 0.710533 0.730423 0.750264 0.769885 0.789049 0.808236 0.826866 0.84488 0.862853 0.878872 0.893809 0.906707 0.915926 0.923378 0.927924 0.929849 0.931199 0.931503 0.931442 0.931322 0.931165 0.930962 0.930703 0.930392 0.930056 0.929732 0.929453 0.929211 0.928998 0.928819 0.928669 0.928546 0.928443 0.928354 0.928279 0.928216 0.928162 0.928113 0.928064 0.928009 0.927935 0.92782 0.927626 0.927293 0.926755 0.926453 0.927304 0.93091 0.929514 0.927213 0.927114 0.927263 0.927436 0.92753 0.927584 0.92764 0.927616 0.927545 0.927518 0.9276 0.927612 0.927604 0.927592 0.927579 0.927566 0.927547 0.92751 0.927433 0.927288 0.927014 0.92647 0.92538 0.923204 0.918908 0.910566 0.894796 0.866239 0.817702 0.741969 0.635748 0.504614 0.364561 0.23602 0.134696 0.0672265 0.0298116 0.0121968 0.00478051 0.0018376 0.000700486 0.000266009 0.000100805 3.81412e-05 1.44104e-05 5.43613e-06 2.04717e-06 7.69445e-07 2.8857e-07 1.0796e-07 4.02797e-08 1.49835e-08 5.55481e-09 2.05155e-09 7.55207e-10 2.76576e-10 1.00539e-10 3.66202e-11 1.26235e-11 4.13849e-12 1.58117e-12 -4.04208e-13 7.92183e-13 0 0 -8.29507e-15 -2.0253e-14 -2.70997e-14 2.47795e-14 -7.8969e-14 3.7545e-14 -2.87535e-14 3.87532e-14 5.47688e-14 -4.54974e-14 -1.29963e-13 7.33793e-14 1.51481e-13 -2.88736e-13 5.83231e-14 3.24763e-14 4.18319e-14 1.02161e-13 -1.64019e-13 -8.94502e-14 -7.98187e-14 -7.42197e-14 -1.66635e-13 -2.17923e-13 4.80565e-14 -7.28648e-14 5.89596e-14 -8.12995e-14 5.11538e-14 -2.40928e-13 -4.46287e-14 1.40796e-13 -3.29435e-13 3.01335e-14 -1.11184e-13 2.0043e-12 1.11822e-11 6.50021e-11 3.4844e-10 1.78217e-09 8.65572e-09 3.98838e-08 1.73938e-07 7.16122e-07 2.77516e-06 1.00888e-05 3.42721e-05 0.000108297 0.000316619 0.00085119 0.00208998 0.00465573 0.00936176 0.0169684 0.0278391 0.0417669 0.0581322 0.0762237 0.0954576 0.115431 0.135891 0.156686 0.177719 0.198923 0.220257 0.241695 0.263222 0.284825 0.306498 0.328239 0.350048 0.37193 0.393895 0.415955 0.438109 0.460018 0.481716 0.503242 0.524539 0.545685 0.566764 0.587631 0.608505 0.629103 0.649709 0.670086 0.690346 0.710533 0.730423 0.750264 0.769885 0.789049 0.808236 0.826866 0.84488 0.862853 0.878872 0.893809 0.906707 0.915926 0.923378 0.927924 0.929849 0.931199 0.931503 0.931442 0.931322 0.931165 0.930962 0.930703 0.930392 0.930056 0.929732 0.929453 0.929211 0.928998 0.928819 0.928669 0.928546 0.928443 0.928354 0.928279 0.928216 0.928162 0.928113 0.928064 0.928009 0.927935 0.92782 0.927626 0.927293 0.926755 0.926453 0.927304 0.93091 0.929514 0.927213 0.927114 0.927263 0.927436 0.92753 0.927584 0.92764 0.927616 0.927545 0.927518 0.9276 0.927612 0.927604 0.927592 0.927579 0.927566 0.927547 0.92751 0.927433 0.927288 0.927014 0.92647 0.92538 0.923204 0.918908 0.910566 0.894796 0.866239 0.817702 0.741969 0.635748 0.504614 0.364561 0.23602 0.134696 0.0672265 0.0298116 0.0121968 0.00478051 0.0018376 0.000700486 0.000266009 0.000100805 3.81412e-05 1.44104e-05 5.43613e-06 2.04717e-06 7.69445e-07 2.8857e-07 1.0796e-07 4.02799e-08 1.49832e-08 5.55511e-09 2.05173e-09 7.54882e-10 2.76892e-10 1.00596e-10 3.70301e-11 1.28172e-11 3.6984e-12 4.90986e-14 1.59913e-12 -3.06792e-13 0
				</DataArray>
				<DataArray Name="VitesseY" type="Float32" format="ascii">