<?xml version="1.0"?>
<VTKFile type="PolyData">
	<PolyData>
		<Piece NumberOfPoints="1206" NumberOfPolys="1000">
			<Points>
				<DataArray type="Float32" NumberOfComponents="3" format="ascii">
 0 0 0 0.005 0 0 0.01 0 0 0.015 0 0 0.02 0 0 0.025 0 0 0.03 0 0 0.035 0 0 0.04 0 0 0.045 0 0 0.05 0 0 0.055 0 0 0.06 0 0 0.065 0 0 0.07 0 0 0.075 0 0 0.08 0 0 0.085 0 0 0.09 0 0 0.095 0 0 0.1 0 0 0.105 0 0 0.11 0 0 0.115 0 0 0.12 0 0 0.125 0 0 0.13 0 0 0.135 0 0 0.14 0 0 0.145 0 0 0.15 0 0 0.155 0 0 0.16 0 0 0.165 0 0 0.17 0 0 0.175 0 0 0.18 0 0 0.185 0 0 0.19 0 0 0.195 0 0 0.2 0 0 0.205 0 0 0.21 0 0 0.215 0 0 0.22 0 0 0.225 0 0 0.23 0 0 0.235 0 0 0.24 0 0 0.245 0 0 0.25 0 0 0.255 0 0 0.26 0 0 0.265 0 0 0.27 0 0 0.275 0 0 0.28 0 0 0.285 0 0 0.29 0 0 0.295 0 0 0.3 0 0 0.305 0 0 0.31 0 0 0.315 0 0 0.32 0 0 0.325 0 0 0.33 0 0 0.335 0 0 0.34 0 0 0.345 0 0 0.35 0 0 0.355 0 0 0.36 0 0 0.365 0 0 0.37 0 0 0.375 0 0 0.38 0 0 0.385 0 0 0.39 0 0 0.395 0 0 0.4 0 0 0.405 0 0 0.41 0 0 0.415 0 0 0.42 0 0 0.425 0 0 0.43 0 0 0.435 0 0 0.44 0 0 0.445 0 0 0.45 0 0 0.455 0 0 0.46 0 0 0.465 0 0 0.47 0 0 0.475 0 0 0.48 0 0 0.485 0 0 0.49 0 0 0.495 0 0 0.5 0 0 0.505 0 0 0.51 0 0 0.515 0 0 0.52 0 0 0.525 0 0 0.53 0 0 0.535 0 0 0.54 0 0 0.545 0 0 0.55 0 0 0.555 0 0 0.56 0 0 0.565 0 0 0.57 0 0 0.575 0 0 0.58 0 0 0.585 0 0 0.59 0 0 0.595 0 0 0.6 0 0 0.605 0 0 0.61 0 0 0.615 0 0 0.62 0 0 0.625 0 0 0.63 0 0 0.635 0 0 0.64 0 0 0.645 0 0 0.65 0 0 0.655 0 0 0.66 0 0 0.665 0 0 0.67 0 0 0.675 0 0 0.68 0 0 0.685 0 0 0.69 0 0 0.695 0 0 0.7 0 0 0.705 0 0 0.71 0 0 0.715 0 0 0.72 0 0 0.725 0 0 0.73 0 0 0.735 0 0 0.74 0 0 0.745 0 0 0.75 0 0 0.755 0 0 0.76 0 0 0.765 0 0 0.77 0 0 0.775 0 0 0.78 0 0 0.785 0 0 0.79 0 0 0.795 0 0 0.8 0 0 0.805 0 0 0.81 0 0 0.815 0 0 0.82 0 0 0.825 0 0 0.83 0 0 0.835 0 0 0.84 0 0 0.845 0 0 0.85 0 0 0.855 0 0 0.86 0 0 0.865 0 0 0.87 0 0 0.875 0 0 0.88 0 0 0.885 0 0 0.89 0 0 0.895 0 0 0.9 0 0 0.905 0 0 0.91 0 0 0.915 0 0 0.92 0 0 0.925 0 0 0.93 0 0 0.935 0 0 0.94 0 0 0.945 0 0 0.95 0 0 0.955 0 0 0.96 0 0 0.965 0 0 0.97 0 0 0.975 0 0 0.98 0 0 0.985 0 0 0.99 0 0 0.995 0 0 1 0 0 0 0.02 0 0.005 0.02 0 0.01 0.02 0 0.015 0.02 0 0.02 0.02 0 0.025 0.02 0 0.03 0.02 0 0.035 0.02 0 0.04 0.02 0 0.045 0.02 0 0.05 0.02 0 0.055 0.02 0 0.06 0.02 0 0.065 0.02 0 0.07 0.02 0 0.075 0.02 0 0.08 0.02 0 0.085 0.02 0 0.09 0.02 0 0.095 0.02 0 0.1 0.02 0 0.105 0.02 0 0.11 0.02 0 0.115 0.02 0 0.12 0.02 0 0.125 0.02 0 0.13 0.02 0 0.135 0.02 0 0.14 0.02 0 0.145 0.02 0 0.15 0.02 0 0.155 0.02 0 0.16 0.02 0 0.165 0.02 0 0.17 0.02 0 0.175 0.02 0 0.18 0.02 0 0.185 0.02 0 0.19 0.02 0 0.195 0.02 0 0.2 0.02 0 0.205 0.02 0 0.21 0.02 0 0.215 0.02 0 0.22 0.02 0 0.225 0.02 0 0.23 0.02 0 0.235 0.02 0 0.24 0.02 0 0.245 0.02 0 0.25 0.02 0 0.255 0.02 0 0.26 0.02 0 0.265 0.02 0 0.27 0.02 0 0.275 0.02 0 0.28 0.02 0 0.285 0.02 0 0.29 0.02 0 0.295 0.02 0 0.3 0.02 0 0.305 0.02 0 0.31 0.02 0 0.315 0.02 0 0.32 0.02 0 0.325 0.02 0 0.33 0.02 0 0.335 0.02 0 0.34 0.02 0 0.345 0.02 0 0.35 0.02 0 0.355 0.02 0 0.36 0.02 0 0.365 0.02 0 0.37 0.02 0 0.375 0.02 0 0.38 0.02 0 0.385 0.02 0 0.39 0.02 0 0.395 0.02 0 0.4 0.02 0 0.405 0.02 0 0.41 0.02 0 0.415 0.02 0 0.42 0.02 0 0.425 0.02 0 0.43 0.02 0 0.435 0.02 0 0.44 0.02 0 0.445 0.02 0 0.45 0.02 0 0.455 0.02 0 0.46 0.02 0 0.465 0.02 0 0.47 0.02 0 0.475 0.02 0 0.48 0.02 0 0.485 0.02 0 0.49 0.02 0 0.495 0.02 0 0.5 0.02 0 0.505 0.02 0 0.51 0.02 0 0.515 0.02 0 0.52 0.02 0 0.525 0.02 0 0.53 0.02 0 0.535 0.02 0 0.54 0.02 0 0.545 0.02 0 0.55 0.02 0 0.555 0.02 0 0.56 0.02 0 0.565 0.02 0 0.57 0.02 0 0.575 0.02 0 0.58 0.02 0 0.585 0.02 0 0.59 0.02 0 0.595 0.02 0 0.6 0.02 0 0.605 0.02 0 0.61 0.02 0 0.615 0.02 0 0.62 0.02 0 0.625 0.02 0 0.63 0.02 0 0.635 0.02 0 0.64 0.02 0 0.645 0.02 0 0.65 0.02 0 0.655 0.02 0 0.66 0.02 0 0.665 0.02 0 0.67 0.02 0 0.675 0.02 0 0.68 0.02 0 0.685 0.02 0 0.69 0.02 0 0.695 0.02 0 0.7 0.02 0 0.705 0.02 0 0.71 0.02 0 0.715 0.02 0 0.72 0.02 0 0.725 0.02 0 0.73 0.02 0 0.735 0.02 0 0.74 0.02 0 0.745 0.02 0 0.75 0.02 0 0.755 0.02 0 0.76 0.02 0 0.765 0.02 0 0.77 0.02 0 0.775 0.02 0 0.78 0.02 0 0.785 0.02 0 0.79 0.02 0 0.795 0.02 0 0.8 0.02 0 0.805 0.02 0 0.81 0.02 0 0.815 0.02 0 0.82 0.02 0 0.825 0.02 0 0.83 0.02 0 0.835 0.02 0 0.84 0.02 0 0.845 0.02 0 0.85 0.02 0 0.855 0.02 0 0.86 0.02 0 0.865 0.02 0 0.87 0.02 0 0.875 0.02 0 0.88 0.02 0 0.885 0.02 0 0.89 0.02 0 0.895 0.02 0 0.9 0.02 0 0.905 0.02 0 0.91 0.02 0 0.915 0.02 0 0.92 0.02 0 0.925 0.02 0 0.93 0.02 0 0.935 0.02 0 0.94 0.02 0 0.945 0.02 0 0.95 0.02 0 0.955 0.02 0 0.96 0.02 0 0.965 0.02 0 0.97 0.02 0 0.975 0.02 0 0.98 0.02 0 0.985 0.02 0 0.99 0.02 0 0.995 0.02 0 1 0.02 0 0 0.04 0 0.005 0.04 0 0.01 0.04 0 0.015 0.04 0 0.02 0.04 0 0.025 0.04 0 0.03 0.04 0 0.035 0.04 0 0.04 0.04 0 0.045 0.04 0 0.05 0.04 0 0.055 0.04 0 0.06 0.04 0 0.065 0.04 0 0.07 0.04 0 0.075 0.04 0 0.08 0.04 0 0.085 0.04 0 0.09 0.04 0 0.095 0.04 0 0.1 0.04 0 0.105 0.04 0 0.11 0.04 0 0.115 0.04 0 0.12 0.04 0 0.125 0.04 0 0.13 0.04 0 0.135 0.04 0 0.14 0.04 0 0.145 0.04 0 0.15 0.04 0 0.155 0.04 0 0.16 0.04 0 0.165 0.04 0 0.17 0.04 0 0.175 0.04 0 0.18 0.04 0 0.185 0.04 0 0.19 0.04 0 0.195 0.04 0 0.2 0.04 0 0.205 0.04 0 0.21 0.04 0 0.215 0.04 0 0.22 0.04 0 0.225 0.04 0 0.23 0.04 0 0.235 0.04 0 0.24 0.04 0 0.245 0.04 0 0.25 0.04 0 0.255 0.04 0 0.26 0.04 0 0.265 0.04 0 0.27 0.04 0 0.275 0.04 0 0.28 0.04 0 0.285 0.04 0 0.29 0.04 0 0.295 0.04 0 0.3 0.04 0 0.305 0.04 0 0.31 0.04 0 0.315 0.04 0 0.32 0.04 0 0.325 0.04 0 0.33 0.04 0 0.335 0.04 0 0.34 0.04 0 0.345 0.04 0 0.35 0.04 0 0.355 0.04 0 0.36 0.04 0 0.365 0.04 0 0.37 0.04 0 0.375 0.04 0 0.38 0.04 0 0.385 0.04 0 0.39 0.04 0 0.395 0.04 0 0.4 0.04 0 0.405 0.04 0 0.41 0.04 0 0.415 0.04 0 0.42 0.04 0 0.425 0.04 0 0.43 0.04 0 0.435 0.04 0 0.44 0.04 0 0.445 0.04 0 0.45 0.04 0 0.455 0.04 0 0.46 0.04 0 0.465 0.04 0 0.47 0.04 0 0.475 0.04 0 0.48 0.04 0 0.485 0.04 0 0.49 0.04 0 0.495 0.04 0 0.5 0.04 0 0.505 0.04 0 0.51 0.04 0 0.515 0.04 0 0.52 0.04 0 0.525 0.04 0 0.53 0.04 0 0.535 0.04 0 0.54 0.04 0 0.545 0.04 0 0.55 0.04 0 0.555 0.04 0 0.56 0.04 0 0.565 0.04 0 0.57 0.04 0 0.575 0.04 0 0.58 0.04 0 0.585 0.04 0 0.59 0.04 0 0.595 0.04 0 0.6 0.04 0 0.605 0.04 0 0.61 0.04 0 0.615 0.04 0 0.62 0.04 0 0.625 0.04 0 0.63 0.04 0 0.635 0.04 0 0.64 0.04 0 0.645 0.04 0 0.65 0.04 0 0.655 0.04 0 0.66 0.04 0 0.665 0.04 0 0.67 0.04 0 0.675 0.04 0 0.68 0.04 0 0.685 0.04 0 0.69 0.04 0 0.695 0.04 0 0.7 0.04 0 0.705 0.04 0 0.71 0.04 0 0.715 0.04 0 0.72 0.04 0 0.725 0.04 0 0.73 0.04 0 0.735 0.04 0 0.74 0.04 0 0.745 0.04 0 0.75 0.04 0 0.755 0.04 0 0.76 0.04 0 0.765 0.04 0 0.77 0.04 0 0.775 0.04 0 0.78 0.04 0 0.785 0.04 0 0.79 0.04 0 0.795 0.04 0 0.8 0.04 0 0.805 0.04 0 0.81 0.04 0 0.815 0.04 0 0.82 0.04 0 0.825 0.04 0 0.83 0.04 0 0.835 0.04 0 0.84 0.04 0 0.845 0.04 0 0.85 0.04 0 0.855 0.04 0 0.86 0.04 0 0.865 0.04 0 0.87 0.04 0 0.875 0.04 0 0.88 0.04 0 0.885 0.04 0 0.89 0.04 0 0.895 0.04 0 0.9 0.04 0 0.905 0.04 0 0.91 0.04 0 0.915 0.04 0 0.92 0.04 0 0.925 0.04 0 0.93 0.04 0 0.935 0.04 0 0.94 0.04 0 0.945 0.04 0 0.95 0.04 0 0.955 0.04 0 0.96 0.04 0 0.965 0.04 0 0.97 0.04 0 0.975 0.04 0 0.98 0.04 0 0.985 0.04 0 0.99 0.04 0 0.995 0.04 0 1 0.04 0 0 0.06 0 0.005 0.06 0 0.01 0.06 0 0.015 0.06 0 0.02 0.06 0 0.025 0.06 0 0.03 0.06 0 0.035 0.06 0 0.04 0.06 0 0.045 0.06 0 0.05 0.06 0 0.055 0.06 0 0.06 0.06 0 0.065 0.06 0 0.07 0.06 0 0.075 0.06 0 0.08 0.06 0 0.085 0.06 0 0.09 0.06 0 0.095 0.06 0 0.1 0.06 0 0.105 0.06 0 0.11 0.06 0 0.115 0.06 0 0.12 0.06 0 0.125 0.06 0 0.13 0.06 0 0.135 0.06 0 0.14 0.06 0 0.145 0.06 0 0.15 0.06 0 0.155 0.06 0 0.16 0.06 0 0.165 0.06 0 0.17 0.06 0 0.175 0.06 0 0.18 0.06 0 0.185 0.06 0 0.19 0.06 0 0.195 0.06 0 0.2 0.06 0 0.205 0.06 0 0.21 0.06 0 0.215 0.06 0 0.22 0.06 0 0.225 0.06 0 0.23 0.06 0 0.235 0.06 0 0.24 0.06 0 0.245 0.06 0 0.25 0.06 0 0.255 0.06 0 0.26 0.06 0 0.265 0.06 0 0.27 0.06 0 0.275 0.06 0 0.28 0.06 0 0.285 0.06 0 0.29 0.06 0 0.295 0.06 0 0.3 0.06 0 0.305 0.06 0 0.31 0.06 0 0.315 0.06 0 0.32 0.06 0 0.325 0.06 0 0.33 0.06 0 0.335 0.06 0 0.34 0.06 0 0.345 0.06 0 0.35 0.06 0 0.355 0.06 0 0.36 0.06 0 0.365 0.06 0 0.37 0.06 0 0.375 0.06 0 0.38 0.06 0 0.385 0.06 0 0.39 0.06 0 0.395 0.06 0 0.4 0.06 0 0.405 0.06 0 0.41 0.06 0 0.415 0.06 0 0.42 0.06 0 0.425 0.06 0 0.43 0.06 0 0.435 0.06 0 0.44 0.06 0 0.445 0.06 0 0.45 0.06 0 0.455 0.06 0 0.46 0.06 0 0.465 0.06 0 0.47 0.06 0 0.475 0.06 0 0.48 0.06 0 0.485 0.06 0 0.49 0.06 0 0.495 0.06 0 0.5 0.06 0 0.505 0.06 0 0.51 0.06 0 0.515 0.06 0 0.52 0.06 0 0.525 0.06 0 0.53 0.06 0 0.535 0.06 0 0.54 0.06 0 0.545 0.06 0 0.55 0.06 0 0.555 0.06 0 0.56 0.06 0 0.565 0.06 0 0.57 0.06 0 0.575 0.06 0 0.58 0.06 0 0.585 0.06 0 0.59 0.06 0 0.595 0.06 0 0.6 0.06 0 0.605 0.06 0 0.61 0.06 0 0.615 0.06 0 0.62 0.06 0 0.625 0.06 0 0.63 0.06 0 0.635 0.06 0 0.64 0.06 0 0.645 0.06 0 0.65 0.06 0 0.655 0.06 0 0.66 0.06 0 0.665 0.06 0 0.67 0.06 0 0.675 0.06 0 0.68 0.06 0 0.685 0.06 0 0.69 0.06 0 0.695 0.06 0 0.7 0.06 0 0.705 0.06 0 0.71 0.06 0 0.715 0.06 0 0.72 0.06 0 0.725 0.06 0 0.73 0.06 0 0.735 0.06 0 0.74 0.06 0 0.745 0.06 0 0.75 0.06 0 0.755 0.06 0 0.76 0.06 0 0.765 0.06 0 0.77 0.06 0 0.775 0.06 0 0.78 0.06 0 0.785 0.06 0 0.79 0.06 0 0.795 0.06 0 0.8 0.06 0 0.805 0.06 0 0.81 0.06 0 0.815 0.06 0 0.82 0.06 0 0.825 0.06 0 0.83 0.06 0 0.835 0.06 0 0.84 0.06 0 0.845 0.06 0 0.85 0.06 0 0.855 0.06 0 0.86 0.06 0 0.865 0.06 0 0.87 0.06 0 0.875 0.06 0 0.88 0.06 0 0.885 0.06 0 0.89 0.06 0 0.895 0.06 0 0.9 0.06 0 0.905 0.06 0 0.91 0.06 0 0.915 0.06 0 0.92 0.06 0 0.925 0.06 0 0.93 0.06 0 0.935 0.06 0 0.94 0.06 0 0.945 0.06 0 0.95 0.06 0 0.955 0.06 0 0.96 0.06 0 0.965 0.06 0 0.97 0.06 0 0.975 0.06 0 0.98 0.06 0 0.985 0.06 0 0.99 0.06 0 0.995 0.06 0 1 0.06 0 0 0.08 0 0.005 0.08 0 0.01 0.08 0 0.015 0.08 0 0.02 0.08 0 0.025 0.08 0 0.03 0.08 0 0.035 0.08 0 0.04 0.08 0 0.045 0.08 0 0.05 0.08 0 0.055 0.08 0 0.06 0.08 0 0.065 0.08 0 0.07 0.08 0 0.075 0.08 0 0.08 0.08 0 0.085 0.08 0 0.09 0.08 0 0.095 0.08 0 0.1 0.08 0 0.105 0.08 0 0.11 0.08 0 0.115 0.08 0 0.12 0.08 0 0.125 0.08 0 0.13 0.08 0 0.135 0.08 0 0.14 0.08 0 0.145 0.08 0 0.15 0.08 0 0.155 0.08 0 0.16 0.08 0 0.165 0.08 0
[...]
			<PointData Scalars="VitesseX">
				<DataArray Name="VitesseX" type="Float32" format="ascii">
 0 -1.50214e-14 -1.3734e-14 -3.68208e-14 3.87306e-14 -7.73244e-15 -3.70888e-14 -5.94541e-14 -1.6028e-14 -2.17946e-14 -8.90085e-15 -4.64449e-14 -1.64443e-13 5.98632e-15 -1.33341e-13 5.98615e-15 -5.2125e-14 -8.56658e-14 9.17193e-14 -8.69743e-14 -1.38031e-14 -3.69766e-14 -7.18898e-14 -4.95543e-14 -2.79214e-13 -6.92531e-14 2.17856e-14 -1.70629e-13 -1.86844e-13 -3.65712e-14 5.55519e-14 5.71488e-14 -1.69657e-13 5.54934e-14 -3.50895e-13 -1.8169e-13 -8.61148e-14 -9.09382e-14 -3.0138e-13 -5.01129e-15 -4.22717e-13 -1.61061e-13 -1.77988e-13 1.35943e-14 -5.63143e-14 5.93299e-14 5.60733e-14 5.89213e-14 -9.2969e-14 1.78792e-13 5.38217e-14 -1.48803e-13 7.32953e-14 -5.14744e-13 -3.7621e-13 -3.89392e-13 -3.62481e-13 6.32499e-15 2.01998e-12 1.70583e-11 1.29953e-10 9.44655e-10 6.40037e-09 4.0343e-08 2.35652e-07 1.26998e-06 6.28213e-06 2.83506e-05 0.000115876 0.000425174 0.00138579 0.00396469 0.00984281 0.0210555 0.0389168 0.0631224 0.0921329 0.124277 0.158353 0.193637 0.229728 0.266362 0.303406 0.340804 0.378563 0.416748 0.455331 0.49228 0.528741 0.564013 0.599244 0.633269 0.667408 0.700438 0.732568 0.764888 0.794892 0.824035 0.852324 0.875155 0.896873 0.913245 0.922026 0.92947 0.932291 0.932345 0.932507 0.932467 0.932241 0.931785 0.931178 0.930557 0.930047 0.929644 0.929298 0.928947 0.928525 0.927906 0.926979 0.92688 0.931826 0.929997 0.927361 0.927305 0.927541 0.927701 0.927827 0.927794 0.927649 0.92752 0.927235 0.926304 0.924236 0.920059 0.911665 0.895334 0.865258 0.813825 0.73378 0.622564 0.487496 0.346017 0.219122 0.12166 0.0588593 0.0253094 0.0100665 0.00384004 0.00143454 0.000529628 0.00019388 7.04298e-05 2.53858e-05 9.07478e-06 3.21544e-06 1.12862e-06 3.92205e-07 1.34867e-07 4.58679e-08 1.54219e-08 5.1244e-09 1.68177e-09 5.45071e-10 1.73988e-10 5.44587e-11 1.70472e-11 4.75045e-12 1.72645e-12 -1.18775e-14 -3.90245e-13 -3.22572e-13 -8.10312e-13 6.01013e-13 -6.35082e-13 -6.80611e-14 2.28053e-14 -6.2466e-13 8.6444e-13 -3.02534e-14 -4.75911e-13 2.10435e-14 5.94435e-14 2.25935e-13 -2.67762e-13 -1.99395e-13 -1.09779e-14 -5.81146e-13 -2.37845e-13 6.21967e-13 -4.28408e-13 2.10558e-13 -1.43462e-13 2.52895e-13 8.82424e-13 2.47631e-13 5.52413e-13 5.55232e-13 2.63993e-13 -9.11663e-13 -2.18563e-13 0 0 5.56991e-15 -1.09882e-14 1.16796e-14 -3.10949e-14 7.97887e-15 3.19535e-14 -1.46093e-14 -4.66316e-14 -4.18507e-14 -5.79848e-14 -6.42703e-14 9.33505e-14 -1.49558e-13 -5.09309e-14 -7.69907e-14 -1.36761e-13 8.13914e-14 -1.35333e-13 5.8749e-15 -8.58087e-14 3.68362e-14 -1.50477e-13 -1.497e-13 2.87478e-14 -2.47419e-13 -1.83967e-13 -7.43398e-14 3.07423e-14 3.94252e-14 -5.75407e-14 -9.17157e-14 -6.03063e-14 -1.65149e-13 5.71285e-14 -2.36142e-13 -1.63617e-13 -1.95791e-13 -6.28279e-14 -2.44588e-13 -1.34757e-13 -3.39184e-13 -1.04575e-13 7.2545e-14 8.00344e-14 -5.28131e-15 -6.15265e-14 -5.58187e-14 3.35907e-13 1.68391e-13 -7.49386e-14 -3.34678e-13 -3.55105e-13 -1.19147e-13 -2.25737e-13 -3.47848e-13 -3.58554e-13 1.73357e-14 2.33038e-12 1.65554e-11 1.30309e-10 9.44872e-10 6.40043e-09 4.03429e-08 2.35652e-07 1.26998e-06 6.28213e-06 2.83506e-05 0.000115876 0.000425174 0.00138579 0.00396469 0.00984281 0.0210555 0.0389168 0.0631224 0.0921329 0.124277 0.158353 0.193637 0.229728 0.266362 0.303406 0.340804 0.378563 0.416748 0.455331 0.49228 0.528741 0.564013 0.599244 0.633269 0.667408 0.700438 0.732568 0.764888 0.794892 0.824035 0.852324 0.875155 0.896873 0.913245 0.922026 0.92947 0.932291 0.932345 0.932507 0.932467 0.932241 0.931785 0.931178 0.930557 0.930047 0.929644 0.929298 0.928947 0.928525 0.927906 0.926979 0.92688 0.931826 0.929997 0.927361 0.927305 0.927541 0.927701 0.927827 0.927794 0.927649 0.92752 0.927235 0.926304 0.924236 0.920059 0.911665 0.895334 0.865258 0.813825 0.73378 0.622564 0.487496 0.346017 0.219122 0.12166 0.0588593 0.0253094 0.0100665 0.00384004 0.00143454 0.000529628 0.00019388 7.04298e-05 2.53858e-05 9.07478e-06 3.21544e-06 1.12862e-06 3.92205e-07 1.34867e-07 4.58684e-08 1.5422e-08 5.12397e-09 1.68172e-09 5.4508e-10 1.74337e-10 5.49967e-11 1.66164e-11 4.69334e-12 1.09149e-12 2.52511e-13 -3.37889e-13 -3.00861e-13 -2.47771e-13 -3.23241e-13 -2.57465e-14 -2.21175e-13 -1.04748e-13 7.42231e-13 -6.61016e-13 -5.29293e-14 -1.46145e-13 2.40352e-13 -2.90405e-13 -2.70362e-13 1.92423e-13 -1.37402e-13 -5.04078e-13 2.28476e-13 -1.81049e-13 -6.67406e-13 3.32666e-13 -2.79998e-13 2.58883e-13 3.29053e-13 -3.08647e-13 6.24309e-13 2.96285e-13 2.69012e-13 -5.36178e-13 6.15259e-13 5.91517e-13 0 0 8.90905e-15 3.43681e-14 3.91214e-14 7.59441e-15 8.69463e-15 7.01087e-14 -3.26254e-14 4.79719e-14 7.1448e-15 -8.12791e-14 -7.31894e-14 -4.30951e-14 4.6758e-14 -9.44113e-14 -1.49348e-13 -3.83183e-15 -1.65157e-13 2.63621e-14 -1.4504e-13 -5.75596e-14 -7.14088e-14 -1.52759e-13 -9.6792e-14 -2.11381e-13 -6.74025e-14 -8.03398e-14 -1.08664e-13 -5.75652e-14 1.20081e-13 3.05229e-14 -7.4843e-14 -1.08904e-13 -5.93689e-14 -1.67605e-13 -6.37839e-16 -1.34203e-13 -3.31135e-14 -2.93969e-13 -1.44737e-13 -2.67444e-13 3.30194e-14 2.04483e-14 9.44906e-16 -6.23659e-14 2.63996e-14 3.6797e-14 9.33109e-14 -1.75061e-13 -5.47007e-14 9.64132e-14 4.10739e-14 -1.14703e-13 -6.118e-13 -1.99802e-13 -2.62543e-13 -7.61499e-14 9.06102e-15 2.14495e-12 1.69515e-11 1.30291e-10 9.44947e-10 6.40087e-09 4.03429e-08 2.35651e-07 1.26998e-06 6.28213e-06 2.83506e-05 0.000115876 0.000425174 0.00138579 0.00396469 0.00984281 0.0210555 0.0389168 0.0631224 0.0921329 0.124277 0.158353 0.193637 0.229728 0.266362 0.303406 0.340804 0.378563 0.416748 0.455331 0.49228 0.528741 0.564013 0.599244 0.633269 0.667408 0.700438 0.732568 0.764888 0.794892 0.824035 0.852324 0.875155 0.896873 0.913245 0.922026 0.92947 0.932291 0.932345 0.932507 0.932467 0.932241 0.931785 0.931178 0.930557 0.930047 0.929644 0.929298 0.928947 0.928525 0.927906 0.926979 0.92688 0.931826 0.929997 0.927361 0.927305 0.927541 0.927701 0.927827 0.927794 0.927649 0.92752 0.927235 0.926304 0.924236 0.920059 0.911665 0.895334 0.865258 0.813825 0.73378 0.622564 0.487496 0.346017 0.219122 0.12166 0.0588593 0.0253094 0.0100665 0.00384004 0.00143454 0.000529628 0.00019388 7.04298e-05 2.53858e-05 9.07478e-06 3.21544e-06 1.12862e-06 3.92206e-07 1.34867e-07 4.58682e-08 1.5422e-08 5.12443e-09 1.68183e-09 5.44993e-10 1.74197e-10 5.47961e-11 1.68802e-11 4.68652e-12 1.35452e-12 6.43402e-14 -2.92565e-13 -1.84379e-13 -4.1891e-13 -2.31473e-13 -4.31893e-14 2.60492e-13 -8.46042e-14 4.70015e-14 1.75379e-13 -6.36012e-13 -2.29919e-13 -3.08919e-13 1.24781e-13 -2.55092e-13 -3.55552e-13 -3.55422e-13 -3.25673e-13 1.66199e-13 -3.25619e-13 -3.61895e-13 -2.77638e-13 1.9218e-13 -1.51977e-13 5.19348e-13 4.35863e-14 1.01401e-13 -7.96901e-14 -6.93479e-13 5.67832e-13 2.70901e-13 -3.89046e-13 0 0 2.42141e-14 3.47199e-14 5.1083e-14 6.69067e-14 2.34477e-14 7.70691e-15 4.2721e-14 3.61857e-14 4.46988e-14 -2.67225e-14 -1.39592e-13 -9.00546e-14 2.8566e-14 -1.08508e-13 -5.18242e-14 -5.61923e-14 -9.31957e-14 -8.95003e-14 -1.1774e-13 -1.12865e-13 -1.3084e-13 -3.785e-14 -8.83257e-14 -9.20853e-14 2.51752e-14 -8.72738e-14 -2.15873e-15 -2.10584e-13 5.0074e-14 -2.58617e-14 5.97655e-14 -9.0165e-14 -3.67836e-14 -4.33087e-13 -3.01004e-14 -7.26178e-14 -5.86139e-14 -1.40059e-13 -5.94573e-14 -1.86911e-13 1.10596e-13 -1.92221e-13 -1.04192e-13 -1.45639e-13 -1.16868e-13 -1.65604e-13 -8.69366e-14 -3.48312e-14 -4.99343e-14 2.54746e-13 -7.34174e-15 1.11528e-13 -7.74937e-14 -3.44206e-13 -3.34714e-13 -1.82585e-13 6.38931e-14 2.25395e-12 1.70312e-11 1.30336e-10 9.4487e-10 6.40083e-09 4.0343e-08 2.35652e-07 1.26998e-06 6.28213e-06 2.83506e-05 0.000115876 0.000425174 0.00138579 0.00396469 0.00984281 0.0210555 0.0389168 0.0631224 0.0921329 0.124277 0.158353 0.193637 0.229728 0.266362 0.303406 0.340804 0.378563 0.416748 0.455331 0.49228 0.528741 0.564013 0.599244 0.633269 0.667408 0.700438 0.732568 0.764888 0.794892 0.824035 0.852324 0.875155 0.896873 0.913245 0.922026 0.92947 0.932291 0.932345 0.932507 0.932467 0.932241 0.931785 0.931178 0.930557 0.930047 0.929644 0.929298 0.928947 0.928525 0.927906 0.926979 0.92688 0.931826 0.929997 0.927361 0.927305 0.927541 0.927701 0.927827 0.927794 0.927649 0.92752 0.927235 0.926304 0.924236 0.920059 0.911665 0.895334 0.865258 0.813825 0.73378 0.622564 0.487496 0.346017 0.219122 0.12166 0.0588593 0.0253094 0.0100665 0.00384004 0.00143454 0.000529628 0.00019388 7.04298e-05 2.53858e-05 9.07478e-06 3.21544e-06 1.12862e-06 3.92205e-07 1.34867e-07 4.5868e-08 1.54221e-08 5.12429e-09 1.68189e-09 5.45016e-10 1.74177e-10 5.46143e-11 1.6941e-11 4.66371e-12 1.18732e-12 4.63885e-13 -4.59283e-13 1.68152e-13 -7.24801e-13 2.01544e-13 -6.97966e-14 2.22391e-13 3.55658e-13 -3.87655e-13 -2.13926e-13 -2.36861e-13 -5.58235e-13 -2.32407e-13 -5.80998e-13 1.04659e-13 -2.67449e-13 -1.79775e-13 2.28883e-13 -3.13446e-13 -7.62747e-13 2.27476e-13 -8.62853e-13 3.03792e-13 4.19282e-13 -1.02818e-14 3.54336e-13 2.91475e-13 5.73437e-13 -4.78169e-13 7.46399e-13 -8.25798e-13 6.13704e-14 0 0 2.70712e-14 2.98317e-14 5.46614e-14 4.44741e-14 2.10649e-14 2.51663e-14 5.26885e-14 -3.03172e-14 1.7554e-14 -4.78777e-14 -7.5333e-14 5.72036e-14 -1.82109e-13 -6.74721e-14 3.25494e-14 -2.18634e-13 9.20455e-14 -1.28696e-13 -3.2588e-14 -1.74118e-13 -1.65556e-14 7.1389e-15 -8.71609e-14 1.53171e-13 -1.2534e-13 -5.40239e-14 -3.86745e-14 -1.78464e-13 -7.47952e-15 -6.59284e-14 -9.49552e-14 2.16349e-14 -1.5087e-13 -4.80234e-14 -3.1366e-13 6.5428e-14 -1.29909e-13 6.23032e-14 -3.0088e-13 1.59796e-15 -3.3637e-13 -1.95626e-13 -5.06924e-14 1.89853e-14 -1.41208e-13 -2.98442e-13 -2.14456e-13 4.48342e-13 1.05717e-13 -2.85809e-14 -3.57377e-13 -1.16697e-13 1.68567e-13 -1.19163e-13 -2.7835e-13 -3.31676e-13 1.84816e-13 2.45586e-12 1.66799e-11 1.30292e-10 9.44896e-10 6.40066e-09 4.03433e-08 2.35652e-07 1.26998e-06 6.28213e-06 2.83506e-05 0.000115876 0.000425174 0.00138579 0.00396469 0.00984281 0.0210555 0.0389168 0.0631224 0.0921329 0.124277 0.158353 0.193637 0.229728 0.266362 0.303406 0.340804 0.378563 0.416748 0.455331 0.49228 0.528741 0.564013 0.599244 0.633269 0.667408 0.700438 0.732568 0.764888 0.794892 0.824035 0.852324 0.875155 0.896873 0.913245 0.922026 0.92947 0.932291 0.932345 0.932507 0.932467 0.932241 0.931785 0.931178 0.930557 0.930047 0.929644 0.929298 0.928947 0.928525 0.927906 0.926979 0.92688 0.931826 0.929997 0.927361 0.927305 0.927541 0.927701 0.927827 0.927794 0.927649 0.92752 0.927235 0.926304 0.924236 0.920059 0.911665 0.895334 0.865258 0.813825 0.73378 0.622564 0.487496 0.346017 0.219122 0.12166 0.0588593 0.0253094 0.0100665 0.00384004 0.00143454 0.000529628 0.00019388 7.04298e-05 2.53858e-05 9.07478e-06 3.21544e-06 1.12862e-06 3.92205e-07 1.34867e-07 4.58683e-08 1.54222e-08 5.12408e-09 1.68177e-09 5.45058e-10 1.74235e-10 5.49171e-11 1.6748e-11 4.67408e-12 1.04597e-12 4.89142e-13 -4.06953e-13 2.00646e-13 -1.88666e-13 -3.16715e-13 -9.65414e-14 -1.24784e-13 1.9156e-13 5.48684e-13 -7.00312e-13 1.08525e-14 -3.38012e-13 1.68475e-13 -9.9308e-13 -1.80568e-13 2.14675e-14 -2.36442e-13 -2.28366e-13 2.23711e-13 -2.72712e-13 -2.68211e-13 -1.32235e-13 -4.16219e-13 5.27582e-13 6.89804e-15 -3.4535e-13 5.11451e-13 1.67715e-13 3.0609e-13 -5.93895e-13 1.54799e-13 7.62383e-13 0 0 -2.62877e-15 6.72023e-14 2.52195e-14 7.12439e-14 -1.10664e-14 7.41404e-14 -7.55513e-14 4.01734e-14 2.19067e-14 -9.77998e-14 6.42347e-14 -1.42818e-13 -2.27328e-14 -1.3823e-13 3.00193e-14 -1.11152e-13 -2.08281e-13 3.36719e-13 -2.18501e-13 -7.98102e-14 -2.48973e-14 1.35225e-14 5.8592e-14 -2.68958e-13 -1.02505e-14 2.95539e-13 -3.12309e-13 -2.9922e-13 9.6334e-15 1.51546e-13 -2.18547e-13 -4.32529e-14 3.88811e-14 -3.02349e-14 -2.77802e-13 2.48805e-13 9.18276e-14 -3.58938e-13 -2.88155e-13 -3.11075e-13 -3.10586e-13 6.52495e-14 -2.26075e-14 -1.18664e-14 7.40103e-14 -1.29555e-14 1.02141e-13 -1.48557e-13 4.39117e-14 -1.70128e-13 -9.73687e-14 9.76466e-14 -1.00793e-12 1.25746e-13 -1.06054e-13 -9.58555e-14 2.31622e-13 2.05297e-12 1.7148e-11 1.2983e-10 9.44855e-10 6.4009e-09 4.03436e-08 2.35652e-07 1.26998e-06 6.28213e-06 2.83506e-05 0.000115876 0.000425174 0.00138579 0.00396469 0.00984281 0.0210555 0.0389168 0.0631224 0.0921329 0.124277 0.158353 0.193637 0.229728 0.266362 0.303406 0.340804 0.378563 0.416748 0.455331 0.49228 0.528741 0.564013 0.599244 0.633269 0.667408 0.700438 0.732568 0.764888 0.794892 0.824035 0.852324 0.875155 0.896873 0.913245 0.922026 0.92947 0.932291 0.932345 0.932507 0.932467 0.932241 0.931785 0.931178 0.930557 0.930047 0.929644 0.929298 0.928947 0.928525 0.927906 0.926979 0.92688 0.931826 0.929997 0.927361 0.927305 0.927541 0.927701 0.927827 0.927794 0.927649 0.92752 0.927235 0.926304 0.924236 0.920059 0.911665 0.895334 0.865258 0.813825 0.73378 0.622564 0.487496 0.346017 0.219122 0.12166 0.0588593 0.0253094 0.0100665 0.00384004 0.00143454 0.000529628 0.00019388 7.04298e-05 2.53858e-05 9.07478e-06 3.21544e-06 1.12862e-06 3.92205e-07 1.34866e-07 4.58681e-08 1.54219e-08 5.12488e-09 1.68175e-09 5.44981e-10 1.73824e-10 5.46632e-11 1.71888e-11 4.75754e-12 1.96978e-12 -3.37706e-13 -1.94936e-13 -2.46217e-14 -8.03209e-14 -2.51969e-13 -7.23457e-13 2.00922e-13 -2.65104e-13 -1.42442e-13 1.56446e-12 -7.00993e-13 -2.03013e-13 -2.75737e-13 6.56509e-14 -3.13979e-13 -7.8588e-13 -7.48769e-13 -5.68667e-13 3.68612e-13 4.53087e-13 2.41615e-13 -1.87781e-13 -2.85109e-13 -7.48583e-13 6.67844e-13 1.87518e-13 -3.58233e-13 -1.01098e-12 1.98768e-13 -2.08574e-13 3.60816e-13 -7.77664e-13 0
				</DataArray>
				<DataArray Name="VitesseY" type="Float32" format="ascii">