<?xml version="1.0"?>
<VTKFile type="PolyData">
	<PolyData>
		<Piece NumberOfPoints="1206" NumberOfPolys="1000">
			<Points>
				<DataArray type="Float32" NumberOfComponents="3" format="ascii">
 0 0 0 0.02 0 0 0.04 0 0 0.06 0 0 0.08 0 0 0.1 0 0 0 0.005 0 0.02 0.005 0 0.04 0.005 0 0.06 0.005 0 0.08 0.005 0 0.1 0.005 0 0 0.01 0 0.02 0.01 0 0.04 0.01 0 0.06 0.01 0 0.08 0.01 0 0.1 0.01 0 0 0.015 0 0.02 0.015 0 0.04 0.015 0 0.06 0.015 0 0.08 0.015 0 0.1 0.015 0 0 0.02 0 0.02 0.02 0 0.04 0.02 0 0.06 0.02 0 0.08 0.02 0 0.1 0.02 0 0 0.025 0 0.02 0.025 0 0.04 0.025 0 0.06 0.025 0 0.08 0.025 0 0.1 0.025 0 0 0.03 0 0.02 0.03 0 0.04 0.03 0 0.06 0.03 0 0.08 0.03 0 0.1 0.03 0 0 0.035 0 0.02 0.035 0 0.04 0.035 0 0.06 0.035 0 0.08 0.035 0 0.1 0.035 0 0 0.04 0 0.02 0.04 0 0.04 0.04 0 0.06 0.04 0 0.08 0.04 0 0.1 0.04 0 0 0.045 0 0.02 0.045 0 0.04 0.045 0 0.06 0.045 0 0.08 0.045 0 0.1 0.045 0 0 0.05 0 0.02 0.05 0 0.04 0.05 0 0.06 0.05 0 0.08 0.05 0 0.1 0.05 0 0 0.055 0 0.02 0.055 0 0.04 0.055 0 0.06 0.055 0 0.08 0.055 0 0.1 0.055 0 0 0.06 0 0.02 0.06 0 0.04 0.06 0 0.06 0.06 0 0.08 0.06 0 0.1 0.06 0 0 0.065 0 0.02 0.065 0 0.04 0.065 0 0.06 0.065 0 0.08 0.065 0 0.1 0.065 0 0 0.07 0 0.02 0.07 0 0.04 0.07 0 0.06 0.07 0 0.08 0.07 0 0.1 0.07 0 0 0.075 0 0.02 0.075 0 0.04 0.075 0 0.06 0.075 0 0.08 0.075 0 0.1 0.075 0 0 0.08 0 0.02 0.08 0 0.04 0.08 0 0.06 0.08 0 0.08 0.08 0 0.1 0.08 0 0 0.085 0 0.02 0.085 0 0.04 0.085 0 0.06 0.085 0 0.08 0.085 0 0.1 0.085 0 0 0.09 0 0.02 0.09 0 0.04 0.09 0 0.06 0.09 0 0.08 0.09 0 0.1 0.09 0 0 0.095 0 0.02 0.095 0 0.04 0.095 0 0.06 0.095 0 0.08 0.095 0 0.1 0.095 0 0 0.1 0 0.02 0.1 0 0.04 0.1 0 0.06 0.1 0 0.08 0.1 0 0.1 0.1 0 0 0.105 0 0.02 0.105 0 0.04 0.105 0 0.06 0.105 0 0.08 0.105 0 0.1 0.105 0 0 0.11 0 0.02 0.11 0 0.04 0.11 0 0.06 0.11 0 0.08 0.11 0 0.1 0.11 0 0 0.115 0 0.02 0.115 0 0.04 0.115 0 0.06 0.115 0 0.08 0.115 0 0.1 0.115 0 0 0.12 0 0.02 0.12 0 0.04 0.12 0 0.06 0.12 0 0.08 0.12 0 0.1 0.12 0 0 0.125 0 0.02 0.125 0 0.04 0.125 0 0.06 0.125 0 0.08 0.125 0 0.1 0.125 0 0 0.13 0 0.02 0.13 0 0.04 0.13 0 0.06 0.13 0 0.08 0.13 0 0.1 0.13 0 0 0.135 0 0.02 0.135 0 0.04 0.135 0 0.06 0.135 0 0.08 0.135 0 0.1 0.135 0 0 0.14 0 0.02 0.14 0 0.04 0.14 0 0.06 0.14 0 0.08 0.14 0 0.1 0.14 0 0 0.145 0 0.02 0.145 0 0.04 0.145 0 0.06 0.145 0 0.08 0.145 0 0.1 0.145 0 0 0.15 0 0.02 0.15 0 0.04 0.15 0 0.06 0.15 0 0.08 0.15 0 0.1 0.15 0 0 0.155 0 0.02 0.155 0 0.04 0.155 0 0.06 0.155 0 0.08 0.155 0 0.1 0.155 0 0 0.16 0 0.02 0.16 0 0.04 0.16 0 0.06 0.16 0 0.08 0.16 0 0.1 0.16 0 0 0.165 0 0.02 0.165 0 0.04 0.165 0 0.06 0.165 0 0.08 0.165 0 0.1 0.165 0 0 0.17 0 0.02 0.17 0 0.04 0.17 0 0.06 0.17 0 0.08 0.17 0 0.1 0.17 0 0 0.175 0 0.02 0.175 0 0.04 0.175 0 0.06 0.175 0 0.08 0.175 0 0.1 0.175 0 0 0.18 0 0.02 0.18 0 0.04 0.18 0 0.06 0.18 0 0.08 0.18 0 0.1 0.18 0 0 0.185 0 0.02 0.185 0 0.04 0.185 0 0.06 0.185 0 0.08 0.185 0 0.1 0.185 0 0 0.19 0 0.02 0.19 0 0.04 0.19 0 0.06 0.19 0 0.08 0.19 0 0.1 0.19 0 0 0.195 0 0.02 0.195 0 0.04 0.195 0 0.06 0.195 0 0.08 0.195 0 0.1 0.195 0 0 0.2 0 0.02 0.2 0 0.04 0.2 0 0.06 0.2 0 0.08 0.2 0 0.1 0.2 0 0 0.205 0 0.02 0.205 0 0.04 0.205 0 0.06 0.205 0 0.08 0.205 0 0.1 0.205 0 0 0.21 0 0.02 0.21 0 0.04 0.21 0 0.06 0.21 0 0.08 0.21 0 0.1 0.21 0 0 0.215 0 0.02 0.215 0 0.04 0.215 0 0.06 0.215 0 0.08 0.215 0 0.1 0.215 0 0 0.22 0 0.02 0.22 0 0.04 0.22 0 0.06 0.22 0 0.08 0.22 0 0.1 0.22 0 0 0.225 0 0.02 0.225 0 0.04 0.225 0 0.06 0.225 0 0.08 0.225 0 0.1 0.225 0 0 0.23 0 0.02 0.23 0 0.04 0.23 0 0.06 0.23 0 0.08 0.23 0 0.1 0.23 0 0 0.235 0 0.02 0.235 0 0.04 0.235 0 0.06 0.235 0 0.08 0.235 0 0.1 0.235 0 0 0.24 0 0.02 0.24 0 0.04 0.24 0 0.06 0.24 0 0.08 0.24 0 0.1 0.24 0 0 0.245 0 0.02 0.245 0 0.04 0.245 0 0.06 0.245 0 0.08 0.245 0 0.1 0.245 0 0 0.25 0 0.02 0.25 0 0.04 0.25 0 0.06 0.25 0 0.08 0.25 0 0.1 0.25 0 0 0.255 0 0.02 0.255 0 0.04 0.255 0 0.06 0.255 0 0.08 0.255 0 0.1 0.255 0 0 0.26 0 0.02 0.26 0 0.04 0.26 0 0.06 0.26 0 0.08 0.26 0 0.1 0.26 0 0 0.265 0 0.02 0.265 0 0.04 0.265 0 0.06 0.265 0 0.08 0.265 0 0.1 0.265 0 0 0.27 0 0.02 0.27 0 0.04 0.27 0 0.06 0.27 0 0.08 0.27 0 0.1 0.27 0 0 0.275 0 0.02 0.275 0 0.04 0.275 0 0.06 0.275 0 0.08 0.275 0 0.1 0.275 0 0 0.28 0 0.02 0.28 0 0.04 0.28 0 0.06 0.28 0 0.08 0.28 0 0.1 0.28 0 0 0.285 0 0.02 0.285 0 0.04 0.285 0 0.06 0.285 0 0.08 0.285 0 0.1 0.285 0 0 0.29 0 0.02 0.29 0 0.04 0.29 0 0.06 0.29 0 0.08 0.29 0 0.1 0.29 0 0 0.295 0 0.02 0.295 0 0.04 0.295 0 0.06 0.295 0 0.08 0.295 0 0.1 0.295 0 0 0.3 0 0.02 0.3 0 0.04 0.3 0 0.06 0.3 0 0.08 0.3 0 0.1 0.3 0 0 0.305 0 0.02 0.305 0 0.04 0.305 0 0.06 0.305 0 0.08 0.305 0 0.1 0.305 0 0 0.31 0 0.02 0.31 0 0.04 0.31 0 0.06 0.31 0 0.08 0.31 0 0.1 0.31 0 0 0.315 0 0.02 0.315 0 0.04 0.315 0 0.06 0.315 0 0.08 0.315 0 0.1 0.315 0 0 0.32 0 0.02 0.32 0 0.04 0.32 0 0.06 0.32 0 0.08 0.32 0 0.1 0.32 0 0 0.325 0 0.02 0.325 0 0.04 0.325 0 0.06 0.325 0 0.08 0.325 0 0.1 0.325 0 0 0.33 0 0.02 0.33 0 0.04 0.33 0 0.06 0.33 0 0.08 0.33 0 0.1 0.33 0 0 0.335 0 0.02 0.335 0 0.04 0.335 0 0.06 0.335 0 0.08 0.335 0 0.1 0.335 0 0 0.34 0 0.02 0.34 0 0.04 0.34 0 0.06 0.34 0 0.08 0.34 0 0.1 0.34 0 0 0.345 0 0.02 0.345 0 0.04 0.345 0 0.06 0.345 0 0.08 0.345 0 0.1 0.345 0 0 0.35 0 0.02 0.35 0 0.04 0.35 0 0.06 0.35 0 0.08 0.35 0 0.1 0.35 0 0 0.355 0 0.02 0.355 0 0.04 0.355 0 0.06 0.355 0 0.08 0.355 0 0.1 0.355 0 0 0.36 0 0.02 0.36 0 0.04 0.36 0 0.06 0.36 0 0.08 0.36 0 0.1 0.36 0 0 0.365 0 0.02 0.365 0 0.04 0.365 0 0.06 0.365 0 0.08 0.365 0 0.1 0.365 0 0 0.37 0 0.02 0.37 0 0.04 0.37 0 0.06 0.37 0 0.08 0.37 0 0.1 0.37 0 0 0.375 0 0.02 0.375 0 0.04 0.375 0 0.06 0.375 0 0.08 0.375 0 0.1 0.375 0 0 0.38 0 0.02 0.38 0 0.04 0.38 0 0.06 0.38 0 0.08 0.38 0 0.1 0.38 0 0 0.385 0 0.02 0.385 0 0.04 0.385 0 0.06 0.385 0 0.08 0.385 0 0.1 0.385 0 0 0.39 0 0.02 0.39 0 0.04 0.39 0 0.06 0.39 0 0.08 0.39 0 0.1 0.39 0 0 0.395 0 0.02 0.395 0 0.04 0.395 0 0.06 0.395 0 0.08 0.395 0 0.1 0.395 0 0 0.4 0 0.02 0.4 0 0.04 0.4 0 0.06 0.4 0 0.08 0.4 0 0.1 0.4 0 0 0.405 0 0.02 0.405 0 0.04 0.405 0 0.06 0.405 0 0.08 0.405 0 0.1 0.405 0 0 0.41 0 0.02 0.41 0 0.04 0.41 0 0.06 0.41 0 0.08 0.41 0 0.1 0.41 0 0 0.415 0 0.02 0.415 0 0.04 0.415 0 0.06 0.415 0 0.08 0.415 0 0.1 0.415 0 0 0.42 0 0.02 0.42 0 0.04 0.42 0 0.06 0.42 0 0.08 0.42 0 0.1 0.42 0 0 0.425 0 0.02 0.425 0 0.04 0.425 0 0.06 0.425 0 0.08 0.425 0 0.1 0.425 0 0 0.43 0 0.02 0.43 0 0.04 0.43 0 0.06 0.43 0 0.08 0.43 0 0.1 0.43 0 0 0.435 0 0.02 0.435 0 0.04 0.435 0 0.06 0.435 0 0.08 0.435 0 0.1 0.435 0 0 0.44 0 0.02 0.44 0 0.04 0.44 0 0.06 0.44 0 0.08 0.44 0 0.1 0.44 0 0 0.445 0 0.02 0.445 0 0.04 0.445 0 0.06 0.445 0 0.08 0.445 0 0.1 0.445 0 0 0.45 0 0.02 0.45 0 0.04 0.45 0 0.06 0.45 0 0.08 0.45 0 0.1 0.45 0 0 0.455 0 0.02 0.455 0 0.04 0.455 0 0.06 0.455 0 0.08 0.455 0 0.1 0.455 0 0 0.46 0 0.02 0.46 0 0.04 0.46 0 0.06 0.46 0 0.08 0.46 0 0.1 0.46 0 0 0.465 0 0.02 0.465 0 0.04 0.465 0 0.06 0.465 0 0.08 0.465 0 0.1 0.465 0 0 0.47 0 0.02 0.47 0 0.04 0.47 0 0.06 0.47 0 0.08 0.47 0 0.1 0.47 0 0 0.475 0 0.02 0.475 0 0.04 0.475 0 0.06 0.475 0 0.08 0.475 0 0.1 0.475 0 0 0.48 0 0.02 0.48 0 0.04 0.48 0 0.06 0.48 0 0.08 0.48 0 0.1 0.48 0 0 0.485 0 0.02 0.485 0 0.04 0.485 0 0.06 0.485 0 0.08 0.485 0 0.1 0.485 0 0 0.49 0 0.02 0.49 0 0.04 0.49 0 0.06 0.49 0 0.08 0.49 0 0.1 0.49 0 0 0.495 0 0.02 0.495 0 0.04 0.495 0 0.06 0.495 0 0.08 0.495 0 0.1 0.495 0 0 0.5 0 0.02 0.5 0 0.04 0.5 0 0.06 0.5 0 0.08 0.5 0 0.1 0.5 0 0 0.505 0 0.02 0.505 0 0.04 0.505 0 0.06 0.505 0 0.08 0.505 0 0.1 0.505 0 0 0.51 0 0.02 0.51 0 0.04 0.51 0 0.06 0.51 0 0.08 0.51 0 0.1 0.51 0 0 0.515 0 0.02 0.515 0 0.04 0.515 0 0.06 0.515 0 0.08 0.515 0 0.1 0.515 0 0 0.52 0 0.02 0.52 0 0.04 0.52 0 0.06 0.52 0 0.08 0.52 0 0.1 0.52 0 0 0.525 0 0.02 0.525 0 0.04 0.525 0 0.06 0.525 0 0.08 0.525 0 0.1 0.525 0 0 0.53 0 0.02 0.53 0 0.04 0.53 0 0.06 0.53 0 0.08 0.53 0 0.1 0.53 0 0 0.535 0 0.02 0.535 0 0.04 0.535 0 0.06 0.535 0 0.08 0.535 0 0.1 0.535 0 0 0.54 0 0.02 0.54 0 0.04 0.54 0 0.06 0.54 0 0.08 0.54 0 0.1 0.54 0 0 0.545 0 0.02 0.545 0 0.04 0.545 0 0.06 0.545 0 0.08 0.545 0 0.1 0.545 0 0 0.55 0 0.02 0.55 0 0.04 0.55 0 0.06 0.55 0 0.08 0.55 0 0.1 0.55 0 0 0.555 0 0.02 0.555 0 0.04 0.555 0 0.06 0.555 0 0.08 0.555 0 0.1 0.555 0 0 0.56 0 0.02 0.56 0 0.04 0.56 0 0.06 0.56 0 0.08 0.56 0 0.1 0.56 0 0 0.565 0 0.02 0.565 0 0.04 0.565 0 0.06 0.565 0 0.08 0.565 0 0.1 0.565 0 0 0.57 0 0.02 0.57 0 0.04 0.57 0 0.06 0.57 0 0.08 0.57 0 0.1 0.57 0 0 0.575 0 0.02 0.575 0 0.04 0.575 0 0.06 0.575 0 0.08 0.575 0 0.1 0.575 0 0 0.58 0 0.02 0.58 0 0.04 0.58 0 0.06 0.58 0 0.08 0.58 0 0.1 0.58 0 0 0.585 0 0.02 0.585 0 0.04 0.585 0 0.06 0.585 0 0.08 0.585 0 0.1 0.585 0 0 0.59 0 0.02 0.59 0 0.04 0.59 0 0.06 0.59 0 0.08 0.59 0 0.1 0.59 0 0 0.595 0 0.02 0.595 0 0.04 0.595 0 0.06 0.595 0 0.08 0.595 0 0.1 0.595 0 0 0.6 0 0.02 0.6 0 0.04 0.6 0 0.06 0.6 0 0.08 0.6 0 0.1 0.6 0 0 0.605 0 0.02 0.605 0 0.04 0.605 0 0.06 0.605 0 0.08 0.605 0 0.1 0.605 0 0 0.61 0 0.02 0.61 0 0.04 0.61 0 0.06 0.61 0 0.08 0.61 0 0.1 0.61 0 0 0.615 0 0.02 0.615 0 0.04 0.615 0 0.06 0.615 0 0.08 0.615 0 0.1 0.615 0 0 0.62 0 0.02 0.62 0 0.04 0.62 0 0.06 0.62 0 0.08 0.62 0 0.1 0.62 0 0 0.625 0 0.02 0.625 0 0.04 0.625 0 0.06 0.625 0 0.08 0.625 0 0.1 0.625 0 0 0.63 0 0.02 0.63 0 0.04 0.63 0 0.06 0.63 0 0.08 0.63 0 0.1 0.63 0 0 0.635 0 0.02 0.635 0 0.04 0.635 0 0.06 0.635 0 0.08 0.635 0 0.1 0.635 0 0 0.64 0 0.02 0.64 0 0.04 0.64 0 0.06 0.64 0 0.08 0.64 0 0.1 0.64 0 0 0.645 0 0.02 0.645 0 0.04 0.645 0 0.06 0.645 0 0.08 0.645 0 0.1 0.645 0 0 0.65 0 0.02 0.65 0 0.04 0.65 0 0.06 0.65 0 0.08 0.65 0 0.1 0.65 0 0 0.655 0 0.02 0.655 0 0.04 0.655 0 0.06 0.655 0 0.08 0.655 0 0.1 0.655 0 0 0.66 0 0.02 0.66 0 0.04 0.66 0 0.06 0.66 0 0.08 0.66 0 0.1 0.66 0 0 0.665 0 0.02 0.665 0 0.04 0.665 0 0.06 0.665 0 0.08 0.665 0 0.1 0.665 0 0 0.67 0 0.02 0.67 0 0.04 0.67 0 0.06 0.67 0 0.08 0.67 0 0.1 0.67 0 0 0.675 0 0.02 0.675 0 0.04 0.675 0 0.06 0.675 0 0.08 0.675 0 0.1 0.675 0 0 0.68 0 0.02 0.68 0 0.04 0.68 0 0.06 0.68 0 0.08 0.68 0 0.1 0.68 0 0 0.685 0 0.02 0.685 0 0.04 0.685 0 0.06 0.685 0 0.08 0.685 0 0.1 0.685 0 0 0.69 0 0.02 0.69 0 0.04 0.69 0 0.06 0.69 0 0.08 0.69 0 0.1 
[...]
			<CellData Scalars="Density">
				<DataArray Name="Density" type="Float32" format="ascii">
 1 1 1 1 1 1 1 1 1 1 1 1 1 1 1 1 1 1 1 1 1 1 1 1 1 1 1 1 1 1 1 1 1 1 1 1 1 1 1 1 1 1 1 1 1 1 1 1 1 1 1 1 1 1 1 1 1 1 1 1 1 1 1 1 1 1 1 1 1 1 1 1 1 1 1 1 1 1 1 1 1 1 1 1 1 1 1 1 1 1 1 1 1 1 1 1 1 1 1 1 1 1 1 1 1 1 1 1 1 1 1 1 1 1 1 1 1 1 1 1 1 1 1 1 1 1 1 1 1 1 1 1 1 1 1 1 1 1 1 1 1 1 1 1 1 1 1 1 1 1 1 1 1 1 1 1 1 1 1 1 1 1 1 1 1 1 1 1 1 1 1 1 1 1 1 1 1 1 1 1 1 1 1 1 1 1 1 1 1 1 0.999999 0.999999 0.999999 0.999999 0.999999 0.999999 0.999999 0.999999 0.999999 0.999999 0.999996 0.999996 0.999996 0.999996 0.999996 0.99999 0.99999 0.99999 0.99999 0.99999 0.999974 0.999974 0.999974 0.999974 0.999974 0.999934 0.999934 0.999934 0.999934 0.999934 0.999835 0.999835 0.999835 0.999835 0.999835 0.999616 0.999616 0.999616 0.999616 0.999616 0.999175 0.999175 0.999175 0.999175 0.999175 0.998372 0.998372 0.998372 0.998372 0.998372 0.997027 0.997027 0.997027 0.997027 0.997027 0.994943 0.994943 0.994943 0.994943 0.994943 0.991928 0.991928 0.991928 0.991928 0.991928 0.987823 0.987823 0.987823 0.987823 0.987823 0.982525 0.982525 0.982525 0.982525 0.982525 0.97599 0.97599 0.97599 0.97599 0.97599 0.968237 0.968237 0.968237 0.968237 0.968237 0.959337 0.959337 0.959337 0.959337 0.959337 0.949392 0.949392 0.949392 0.949392 0.949392 0.938529 0.938529 0.938529 0.938529 0.938529 0.926879 0.926879 0.926879 0.926879 0.926879 0.914575 0.914575 0.914575 0.914575 0.914575 0.901737 0.901737 0.901737 0.901737 0.901737 0.888477 0.888477 0.888477 0.888477 0.888477 0.874894 0.874894 0.874894 0.874894 0.874894 0.86107 0.86107 0.86107 0.86107 0.86107 0.847083 0.847083 0.847083 0.847083 0.847083 0.832988 0.832988 0.832988 0.832988 0.832988 0.818845 0.818845 0.818845 0.818845 0.818845 0.804689 0.804689 0.804689 0.804689 0.804689 0.79056 0.79056 0.79056 0.79056 0.79056 0.776482 0.776482 0.776482 0.776482 0.776482 0.762485 0.762485 0.762485 0.762485 0.762485 0.748587 0.748587 0.748587 0.748587 0.748587 0.734808 0.734808 0.734808 0.734808 0.734808 0.721164 0.721164 0.721164 0.721164 0.721164 0.707667 0.707667 0.707667 0.707667 0.707667 0.694328 0.694328 0.694328 0.694328 0.694328 0.681156 0.681156 0.681156 0.681156 0.681156 0.668162 0.668162 0.668162 0.668162 0.668162 0.655353 0.655353 0.655353 0.655353 0.655353 0.642735 0.642735 0.642735 0.642735 0.642735 0.630314 0.630314 0.630314 0.630314 0.630314 0.618095 0.618095 0.618095 0.618095 0.618095 0.606082 0.606082 0.606082 0.606082 0.606082 0.594283 0.594283 0.594283 0.594283 0.594283 0.582704 0.582704 0.582704 0.582704 0.582704 0.571351 0.571351 0.571351 0.571351 0.571351 0.560234 0.560234 0.560234 0.560234 0.560234 0.549361 0.549361 0.549361 0.549361 0.549361 0.538744 0.538744 0.538744 0.538744 0.538744 0.528396 0.528396 0.528396 0.528396 0.528396 0.518332 0.518332 0.518332 0.518332 0.518332 0.508571 0.508571 0.508571 0.508571 0.508571 0.499135 0.499135 0.499135 0.499135 0.499135 0.490052 0.490052 0.490052 0.490052 0.490052 0.481351 0.481351 0.481351 0.481351 0.481351 0.473073 0.473073 0.473073 0.473073 0.473073 0.46526 0.46526 0.46526 0.46526 0.46526 0.457965 0.457965 0.457965 0.457965 0.457965 0.451248 0.451248 0.451248 0.451248 0.451248 0.44517 0.44517 0.44517 0.44517 0.44517 0.439798 0.439798 0.439798 0.439798 0.439798 0.435191 0.435191 0.435191 0.435191 0.435191 0.431397 0.431397 0.431397 0.431397 0.431397 0.428434 0.428434 0.428434 0.428434 0.428434 0.42628 0.42628 0.42628 0.42628 0.42628 0.425047 0.425047 0.425047 0.425047 0.425047 0.424416 0.424416 0.424416 0.424416 0.424416 0.424412 0.424412 0.424412 0.424412 0.424412 0.42445 0.42445 0.42445 0.42445 0.42445 0.424496 0.424496 0.424496 0.424496 0.424496 0.424547 0.424547 0.424547 0.424547 0.424547 0.424597 0.424597 0.424597 0.424597 0.424597 0.424644 0.424644 0.424644 0.424644 0.424644 0.424685 0.424685 0.424685 0.424685 0.424685 0.424713 0.424713 0.424713 0.424713 0.424713 0.424695 0.424695 0.424695 0.424695 0.424695 0.424605 0.424605 0.424605 0.424605 0.424605 0.424449 0.424449 0.424449 0.424449 0.424449 0.424233 0.424233 0.424233 0.424233 0.424233 0.424024 0.424024 0.424024 0.424024 0.424024 0.423898 0.423898 0.423898 0.423898 0.423898 0.423844 0.423844 0.423844 0.423844 0.423844 0.423433 0.423433 0.423433 0.423433 0.423433 0.422855 0.422855 0.422855 0.422855 0.422855 0.422219 0.422219 0.422219 0.422219 0.422219 0.421517 0.421517 0.421517 0.421517 0.421517 0.421005 0.421005 0.421005 0.421005 0.421005 0.420944 0.420944 0.420944 0.420944 0.420944 0.421093 0.421093 0.421093 0.421093 0.421093 0.421323 0.421323 0.421323 0.421323 0.421323 0.421331 0.421331 0.421331 0.421331 0.421331 0.402181 0.402181 0.402181 0.402181 0.402181 0.368015 0.368015 0.368015 0.368015 0.368015 0.335412 0.335412 0.335412 0.335412 0.335412 0.290372 0.290372 0.290372 0.290372 0.290372 0.266119 0.266119 0.266119 0.266119 0.266119 0.263576 0.263576 0.263576 0.263576 0.263576 0.263984 0.263984 0.263984 0.263984 0.263984 0.264458 0.264458 0.264458 0.264458 0.264458 0.264959 0.264959 0.264959 0.264959 0.264959 0.265456 0.265456 0.265456 0.265456 0.265456 0.265642 0.265642 0.265642 0.265642 0.265642 0.26564 0.26564 0.26564 0.26564 0.26564 0.265643 0.265643 0.265643 0.265643 0.265643 0.265667 0.265667 0.265667 0.265667 0.265667 0.265698 0.265698 0.265698 0.265698 0.265698 0.265736 0.265736 0.265736 0.265736 0.265736 0.265777 0.265777 0.265777 0.265777 0.265777 0.265804 0.265804 0.265804 0.265804 0.265804 0.265821 0.265821 0.265821 0.265821 0.265821 0.265823 0.265823 0.265823 0.265823 0.265823 0.265819 0.265819 0.265819 0.265819 0.265819 0.265816 0.265816 0.265816 0.265816 0.265816 0.265805 0.265805 0.265805 0.265805 0.265805 0.265784 0.265784 0.265784 0.265784 0.265784 0.265767 0.265767 0.265767 0.265767 0.265767 0.265757 0.265757 0.265757 0.265757 0.265757 0.265756 0.265756 0.265756 0.265756 0.265756 0.265747 0.265747 0.265747 0.265747 0.265747 0.265689 0.265689 0.265689 0.265689 0.265689 0.265893 0.265893 0.265893 0.265893 0.265893 0.266638 0.266638 0.266638 0.266638 0.266638 0.268433 0.268433 0.268433 0.268433 0.268433 0.262567 0.262567 0.262567 0.262567 0.262567 0.229938 0.229938 0.229938 0.229938 0.229938 0.15326 0.15326 0.15326 0.15326 0.15326 0.129268 0.129268 0.129268 0.129268 0.129268 0.125643 0.125643 0.125643 0.125643 0.125643 0.125097 0.125097 0.125097 0.125097 0.125097 0.125015 0.125015 0.125015 0.125015 0.125015 0.125002 0.125002 0.125002 0.125002 0.125002 0.125 0.125 0.125 0.125 0.125 0.125 0.125 0.125 0.125 0.125 0.125 0.125 0.125 0.125 0.125 0.125 0.125 0.125 0.125 0.125 0.125 0.125 0.125 0.125 0.125 0.125 0.125 0.125 0.125 0.125 0.125 0.125 0.125 0.125 0.125 0.125 0.125 0.125 0.125 0.125 0.125 0.125 0.125 0.125 0.125 0.125 0.125 0.125 0.125 0.125 0.125 0.125 0.125 0.125 0.125 0.125 0.125 0.125 0.125 0.125 0.125 0.125 0.125 0.125 0.125 0.125 0.125 0.125 0.125 0.125 0.125 0.125 0.125 0.125 0.125 0.125 0.125 0.125 0.125 0.125 0.125 0.125 0.125 0.125 0.125 0.125 0.125 0.125 0.125 0.125 0.125 0.125 0.125 0.125 0.125 0.125 0.125 0.125 0.125 0.125 0.125 0.125 0.125 0.125 0.125 0.125 0.125 0.125 0.125 0.125 0.125 0.125 0.125 0.125 0.125 0.125 0.125 0.125 0.125 0.125 0.125 0.125 0.125 0.125 0.125 0.125 0.125 0.125 0.125 0.125 0.125 0.125 0.125 0.125 0.125 0.125 0.125 0.125 0.125 0.125 0.125 0.125 0.125 0.125 0.125
				</DataArray>
				<DataArray Name="Energy" type="Float32" format="ascii">
 2.5 2.5 2.5 2.5 2.5 2.5 2.5 2.5 2.5 2.5 2.5 2.5 2.5 2.5 2.5 2.5 2.5 2.5 2.5 2.5 2.5 2.5 2.5 2.5 2.5 2.5 2.5 2.5 2.5 2.5 2.5 2.5 2.5 2.5 2.5 2.5 2.5 2.5 2.5 2.5 2.5 2.5 2.5 2.5 2.5 2.5 2.5 2.5 2.5 2.5 2.5 2.5 2.5 2.5 2.5 2.5 2.5 2.5 2.5 2.5 2.5 2.5 2.5 2.5 2.5 2.5 2.5 2.5 2.5 2.5 2.5 2.5 2.5 2.5 2.5 2.5 2.5 2.5 2.5 2.5 2.5 2.5 2.5 2.5 2.5 2.5 2.5 2.5 2.5 2.5 2.5 2.5 2.5 2.5 2.5 2.5 2.5 2.5 2.5 2.5 2.5 2.5 2.5 2.5 2.5 2.5 2.5 2.5 2.5 2.5 2.5 2.5 2.5 2.5 2.5 2.5 2.5 2.5 2.5 2.5 2.5 2.5 2.5 2.5 2.5 2.5 2.5 2.5 2.5 2.5 2.5 2.5 2.5 2.5 2.5 2.5 2.5 2.5 2.5 2.5 2.5 2.5 2.5 2.5 2.5 2.5 2.5 2.5 2.5 2.5 2.5 2.5 2.5 2.5 2.5 2.5 2.5 2.5 2.5 2.5 2.5 2.5 2.5 2.5 2.5 2.5 2.5 2.5 2.5 2.5 2.5 2.5 2.5 2.5 2.5 2.5 2.5 2.5 2.5 2.5 2.5 2.5 2.5 2.5 2.5 2.5 2.5 2.5 2.5 2.5 2.5 2.5 2.5 2.5 2.5 2.5 2.5 2.5 2.5 2.5 2.5 2.5 2.5 2.5 2.5 2.49999 2.49999 2.49999 2.49999 2.49999 2.49997 2.49997 2.49997 2.49997 2.49997 2.49993 2.49993 2.49993 2.49993 2.49993 2.49984 2.49984 2.49984 2.49984 2.49984 2.49962 2.49962 2.49962 2.49962 2.49962 2.49918 2.49918 2.49918 2.49918 2.49918 2.49837 2.49837 2.49837 2.49837 2.49837 2.49703 2.49703 2.49703 2.49703 2.49703 2.49494 2.49494 2.49494 2.49494 2.49494 2.49192 2.49192 2.49192 2.49192 2.49192 2.4878 2.4878 2.4878 2.4878 2.4878 2.48247 2.48247 2.48247 2.48247 2.48247 2.47587 2.47587 2.47587 2.47587 2.47587 2.46802 2.46802 2.46802 2.46802 2.46802 2.45897 2.45897 2.45897 2.45897 2.45897 2.4488 2.4488 2.4488 2.4488 2.4488 2.43763 2.43763 2.43763 2.43763 2.43763 2.42557 2.42557 2.42557 2.42557 2.42557 2.41274 2.41274 2.41274 2.41274 2.41274 2.39925 2.39925 2.39925 2.39925 2.39925 2.38521 2.38521 2.38521 2.38521 2.38521 2.37069 2.37069 2.37069 2.37069 2.37069 2.35579 2.35579 2.35579 2.35579 2.35579 2.34057 2.34057 2.34057 2.34057 2.34057 2.32508 2.32508 2.32508 2.32508 2.32508 2.30939 2.30939 2.30939 2.30939 2.30939 2.29352 2.29352 2.29352 2.29352 2.29352 2.27752 2.27752 2.27752 2.27752 2.27752 2.26141 2.26141 2.26141 2.26141 2.26141 2.24522 2.24522 2.24522 2.24522 2.24522 2.22897 2.22897 2.22897 2.22897 2.22897 2.21269 2.21269 2.21269 2.21269 2.21269 2.19639 2.19639 2.19639 2.19639 2.19639 2.18009 2.18009 2.18009 2.18009 2.18009 2.1638 2.1638 2.1638 2.1638 2.1638 2.14754 2.14754 2.14754 2.14754 2.14754 2.13131 2.13131 2.13131 2.13131 2.13131 2.11513 2.11513 2.11513 2.11513 2.11513 2.09901 2.09901 2.09901 2.09901 2.09901 2.08296 2.08296 2.08296 2.08296 2.08296 2.067 2.067 2.067 2.067 2.067 2.05112 2.05112 2.05112 2.05112 2.05112 2.03534 2.03534 2.03534 2.03534 2.03534 2.01968 2.01968 2.01968 2.01968 2.01968 2.00414 2.00414 2.00414 2.00414 2.00414 1.98876 1.98876 1.98876 1.98876 1.98876 1.97354 1.97354 1.97354 1.97354 1.97354 1.95851 1.95851 1.95851 1.95851 1.95851 1.94369 1.94369 1.94369 1.94369 1.94369 1.92912 1.92912 1.92912 1.92912 1.92912 1.91483 1.91483 1.91483 1.91483 1.91483 1.90086 1.90086 1.90086 1.90086 1.90086 1.88728 1.88728 1.88728 1.88728 1.88728 1.87413 1.87413 1.87413 1.87413 1.87413 1.8615 1.8615 1.8615 1.8615 1.8615 1.84946 1.84946 1.84946 1.84946 1.84946 1.83813 1.83813 1.83813 1.83813 1.83813 1.82761 1.82761 1.82761 1.82761 1.82761 1.81804 1.81804 1.81804 1.81804 1.81804 1.80954 1.80954 1.80954 1.80954 1.80954 1.80223 1.80223 1.80223 1.80223 1.80223 1.79623 1.79623 1.79623 1.79623 1.79623 1.79159 1.79159 1.79159 1.79159 1.79159 1.78829 1.78829 1.78829 1.78829 1.78829 1.78578 1.78578 1.78578 1.78578 1.78578 1.78573 1.78573 1.78573 1.78573 1.78573 1.7861 1.7861 1.7861 1.7861 1.7861 1.78661 1.78661 1.78661 1.78661 1.78661 1.78711 1.78711 1.78711 1.78711 1.78711 1.78762 1.78762 1.78762 1.78762 1.78762 1.78812 1.78812 1.78812 1.78812 1.78812 1.78861 1.78861 1.78861 1.78861 1.78861 1.78907 1.78907 1.78907 1.78907 1.78907 1.78955 1.78955 1.78955 1.78955 1.78955 1.79005 1.79005 1.79005 1.79005 1.79005 1.79069 1.79069 1.79069 1.79069 1.79069 1.79143 1.79143 1.79143 1.79143 1.79143 1.79222 1.79222 1.79222 1.79222 1.79222 1.79274 1.79274 1.79274 1.79274 1.79274 1.79266 1.79266 1.79266 1.79266 1.79266 1.79259 1.79259 1.79259 1.79259 1.79259 1.79354 1.79354 1.79354 1.79354 1.79354 1.79553 1.79553 1.79553 1.79553 1.79553 1.79785 1.79785 1.79785 1.79785 1.79785 1.80024 1.80024 1.80024 1.80024 1.80024 1.80208 1.80208 1.80208 1.80208 1.80208 1.80211 1.80211 1.80211 1.80211 1.80211 1.80084 1.80084 1.80084 1.80084 1.80084 1.79972 1.79972 1.79972 1.79972 1.79972 1.79955 1.79955 1.79955 1.79955 1.79955 1.88342 1.88342 1.88342 1.88342 1.88342 2.06262 2.06262 2.06262 2.06262 2.06262 2.2589 2.2589 2.2589 2.2589 2.2589 2.60995 2.60995 2.60995 2.60995 2.60995 2.84743 2.84743 2.84743 2.84743 2.84743 2.87475 2.87475 2.87475 2.87475 2.87475 2.87043 2.87043 2.87043 2.87043 2.87043 2.86541 2.86541 2.86541 2.86541 2.86541 2.86021 2.86021 2.86021 2.86021 2.86021 2.855 2.855 2.855 2.855 2.855 2.85304 2.85304 2.85304 2.85304 2.85304 2.85304 2.85304 2.85304 2.85304 2.85304 2.85299 2.85299 2.85299 2.85299 2.85299 2.85272 2.85272 2.85272 2.85272 2.85272 2.85246 2.85246 2.85246 2.85246 2.85246 2.85222 2.85222 2.85222 2.85222 2.85222 2.85203 2.85203 2.85203 2.85203 2.85203 2.852 2.852 2.852 2.852 2.852 2.85209 2.85209 2.85209 2.85209 2.85209 2.85221 2.85221 2.85221 2.85221 2.85221 2.85221 2.85221 2.85221 2.85221 2.85221 2.85207 2.85207 2.85207 2.85207 2.85207 2.85192 2.85192 2.85192 2.85192 2.85192 2.85176 2.85176 2.85176 2.85176 2.85176 2.85171 2.85171 2.85171 2.85171 2.85171 2.85179 2.85179 2.85179 2.85179 2.85179 2.85204 2.85204 2.85204 2.85204 2.85204 2.85226 2.85226 2.85226 2.85226 2.85226 2.85234 2.85234 2.85234 2.85234 2.85234 2.85371 2.85371 2.85371 2.85371 2.85371 2.8564 2.8564 2.8564 2.8564 2.8564 2.86397 2.86397 2.86397 2.86397 2.86397 2.83542 2.83542 2.83542 2.83542 2.83542 2.66243 2.66243 2.66243 2.66243 2.66243 2.19995 2.19995 2.19995 2.19995 2.19995 2.02802 2.02802 2.02802 2.02802 2.02802 2.00413 2.00413 2.00413 2.00413 2.00413 2.00062 2.00062 2.00062 2.00062 2.00062 2.00009 2.00009 2.00009 2.00009 2.00009 2.00001 2.00001 2.00001 2.00001 2.00001 2 2 2 2 2 2 2 2 2 2 2 2 2 2 2 2 2 2 2 2 2 2 2 2 2 2 2 2 2 2 2 2 2 2 2 2 2 2 2 2 2 2 2 2 2 2 2 2 2 2 2 2 2 2 2 2 2 2 2 2 2 2 2 2 2 2 2 2 2 2 2 2 2 2 2 2 2 2 2 2 2 2 2 2 2 2 2 2 2 2 2 2 2 2 2 2 2 2 2 2 2 2 2 2 2 2 2 2 2 2 2 2 2 2 2 2 2 2 2 2 2 2 2 2 2 2 2 2 2 2 2 2 2 2 2 2 2 2 2 2 2 2 2 2 2
				</DataArray>
				<DataArray Name="F1" type="Float32" format="ascii">
 1 1 1 1 1 1 1 1 1 1 1 1 1 1 1 1 1 1 1 1 1 1 1 1 1 1 1 1 1 1 1 1 1 1 1 1 1 1 1 1 1 1 1 1 1 1 1 1 1 1 1 1 1 1 1 1 1 1 1 1 1 1 1 1 1 1 1 1 1 1 1 1 1 1 1 1 1 1 1 1 1 1 1 1 1 1 1 1 1 1 1 1 1 1 1 1 1 1 1 1 1 1 1 1 1 1 1 1 1 1 1 1 1 1 1 1 1 1 1 1 1 1 1 1 1 1 1 1 1 1 1 1 1 1 1 1 1 1 1 1 1 1 1 1 1 1 1 1 1 1 1 1 1 1 1 1 1 1 1 1 1 1 1 1 1 1 1 1 1 1 1 1 1 1 1 1 1 1 1 1 1 1 1 1 1 1 1 1 1 1 1 1 1 1 1 1 1 1 1 1 1 1 1 1 1 1 1 1 1 1 1 1 1 1 1 1 1 1 1 1 1 1 1 1 1 1 1 1 1 1 1 1 1 1 1 1 1 1 1 1 1 1 1 1 1 1 1 1 1 1 1 1 1 1 1 1 1 1 1 1 1 1 1 1 1 1 1 1 1 1 1 1 1 1 1 1 1 1 1 1 1 1 1 1 1 1 1 1 1 1 1 1 1 1 1 1 1 1 1 1 1 1 1 1 1 1 1 1 1 1 1 1 1 1 1 1 1 1 1 1 1 1 1 1 1 1 1 1 1 1 1 1 1 1 1 1 1 1 1 1 1 1 1 1 1 1 1 1 1 1 1 1 1 1 1 1 1 1 1 1 1 1 1 1 1 1 1 1 1 1 1 1 1 1 1 1 1 1 1 1 1 1 1 1 1 1 1 1 1 1 1 1 1 1 1 1 1 1 1 1 1 1 1 1 1 1 1 1 1 1 1 1 1 1 1 1 1 1 1 1 1 1 1 1 1 1 1 1 1 1 1 1 1 1 1 1 1 1 1 1 1 1 1 1 1 1 1 1 1 1 1 1 1 1 1 1 1 1 1 1 1 1 1 1 1 1 1 1 1 1 1 1 1 1 1 1 1 1 1 1 1 1 1 1 1 1 1 1 1 1 1 1 1 1 1 1 1 1 1 1 1 1 1 1 1 1 1 1 1 1 1 1 1 1 1 1 1 1 1 1 1 1 1 1 1 1 1 1 1 1 1 1 1 1 1 1 1 1 1 1 1 1 1 1 1 1 1 1 1 1 1 1 1 1 1 1 1 1 1 1 1 1 1 1 1 1 1 1 1 1 1 1 1 1 1 1 1 1 1 1 1 1 1 1 1 1 1 1 1 1 1 1 1 1 1 1 1 1 1 1 1 1 1 1 1 1 1 1 1 1 1 1 1 1 1 1 1 1 1 1 1 1 1 1 1 1 1 1 1 1 1 1 1 1 1 1 1 1 1 1 1 1 1 1 1 1 1 1 1 1 1 1 1 1 1 1 1 1 1 1 1 1 1 1 1 0.95351 0.95351 0.95351 0.95351 0.95351 0.469443 0.469443 0.469443 0.469443 0.469443 0.0504692 0.0504692 0.0504692 0.0504692 0.0504692 4.91265e-09 4.91265e-09 4.91265e-09 4.91265e-09 4.91265e-09 0 0 0 0 0 0 0 0 0 0 0 0 0 0 0 0 0 0 0 0 0 0 0 0 0 0 0 0 0 0 0 0 0 0 0 0 0 0 0 0 0 0 0 0 0 0 0 0 0 0 0 0 0 0 0 0 0 0 0 0 0 0 0 0 0 0 0 0 0 0 0 0 0 0 0 0 0 0 0 0 0 0 0 0 0 0 0 0 0 0 0 0 0 0 0 0 0 0 0 0 0 0 0 0 0 0 0 0 0 0 0 0 0 0 0 0 0 0 0 0 0 0 0 0 0 0 0 0 0 0 0 0 0 0 0 0 0 0 0 0 0 0 0 0 0 0 0 0 0 0 0 0 0 0 0 0 0 0 0 0 0 0 0 0 0 0 0 0 0 0 0 0 0 0 0 0 0 0 0 0 0 0 0 0 0 0 0 0 0 0 0 0 0 0 0 0 0 0 0 0 0 0 0 0 0 0 0 0 0 0 0 0 0 0 0 0 0 0 0 0 0 0 0 0 0 0 0 0 0 0 0 0 0 0 0 0 0 0 0 0 0 0 0 0 0 0 0 0 0 0 0 0 0 0 0 0 0 0 0 0 0 0 0 0 0 0 0 0 0 0 0 0 0 0 0 0 0 0 0 0 0 0 0 0 0 0 0 0 0 0 0 0 0 0 0 0 0 0 0 0 0 0 0 0 0 0 0 0 0 0 0 0 0 0 0
				</DataArray>
				<DataArray Name="F2" type="Float32" format="ascii">
 0 0 0 0 0 0 0 0 0 0 0 0 0 0 0 0 0 0 0 0 0 0 0 0 0 0 0 0 0 0 0 0 0 0 0 0 0 0 0 0 0 0 0 0 0 0 0 0 0 0 0 0 0 0 0 0 0 0 0 0 0 0 0 0 0 0 0 0 0 0 0 0 0 0 0 0 0 0 0 0 0 0 0 0 0 0 0 0 0 0 0 0 0 0 0 0 0 0 0 0 0 0 0 0 0 0 0 0 0 0 0 0 0 0 0 0 0 0 0 0 0 0 0 0 0 0 0 0 0 0 0 0 0 0 0 0 0 0 0 0 0 0 0 0 0 0 0 0 0 0 0 0 0 0 0 0 0 0 0 0 0 0 0 0 0 0 0 0 0 0 0 0 0 0 0 0 0 0 0 0 0 0 0 0 0 0 0 0 0 0 0 0 0 0 0 0 0 0 0 0 0 0 0 0 0 0 0 0 0 0 0 0 0 0 0 0 0 0 0 0 0 0 0 0 0 0 0 0 0 0 0 0 0 0 0 0 0 0 0 0 0 0 0 0 0 0 0 0 0 0 0 0 0 0 0 0 0 0 0 0 0 0 0 0 0 0 0 0 0 0 0 0 0 0 0 0 0 0 0 0 0 0 0 0 0 0 0 0 0 0 0 0 0 0 0 0 0 0 0 0 0 0 0 0 0 0 0 0 0 0 0 0 0 0 0 0 0 0 0 0 0 0 0 0 0 0 0 0 0 0 0 0 0 0 0 0 0 0 0 0 0 0 0 0 0 0 0 0 0 0 0 0 0 0 0 0 0 0 0 0 0 0 0 0 0 0 0 0 0 0 0 0 0 0 0 0 0 0 0 0 0 0 0 0 0 0 0 0 0 0 0 0 0 0 0 0 0 0 0 0 0 0 0 0 0 0 0 0 0 0 0 0 0 0 0 0 0 0 0 0 0 0 0 0 0 0 0 0 0 0 0 0 0 0 0 0 0 0 0 0 0 0 0 0 0 0 0 0 0 0 0 0 0 0 0 0 0 0 0 0 0 0 0 0 0 0 0 0 0 0 0 0 0 0 0 0 0 0 0 0 0 0 0 0 0 0 0 0 0 0 0 0 0 0 0 0 0 0 0 0 0 0 0 0 0 0 0 0 0 0 0 0 0 0 0 0 0 0 0 0 0 0 0 0 0 0 0 0 0 0 0 0 0 0 0 0 0 0 0 0 0 0 0 0 0 0 0 0 0 0 0 0 0 0 0 0 0 0 0 0 0 0 0 0 0 0 0 0 0 0 0 0 0 0 0 0 0 0 0 0 0 0 0 0 0 0 0 0 0 0 0 0 0 0 0 0 0 0 0 0 0 0 0 0 0 0 0 0 0 0 0 0 0 0 0 0 0 0 0 0 0 0 0 0 0 0 0 0 0 0 0 0 0 0 0 0 0 0 0 0 0 0 0 0 0 0 0 0 0 0 0 0 0 0 0 0 0 0 0 0 0 0 0 0 0 0.0464901 0.0464901 0.0464901 0.0464901 0.0464901 0.530557 0.530557 0.530557 0.530557 0.530557 0.949531 0.949531 0.949531 0.949531 0.949531 1 1 1 1 1 1 1 1 1 1 1 1 1 1 1 1 1 1 1 1 1 1 1 1 1 1 1 1 1 1 1 1 1 1 1 1 1 1 1 1 1 1 1 1 1 1 1 1 1 1 1 1 1 1 1 1 1 1 1 1 1 1 1 1 1 1 1 1 1 1 1 1 1 1 1 1 1 1 1 1 1 1 1 1 1 1 1 1 1 1 1 1 1 1 1 1 1 1 1 1 1 1 1 1 1 1 1 1 1 1 1 1 1 1 1 1 1 1 1 1 1 1 1 1 1 1 1 1 1 1 1 1 1 1 1 1 1 1 1 1 1 1 1 1 1 1 1 1 1 1 1 1 1 1 1 1 1 1 1 1 1 1 1 1 1 1 1 1 1 1 1 1 1 1 1 1 1 1 1 1 1 1 1 1 1 1 1 1 1 1 1 1 1 1 1 1 1 1 1 1 1 1 1 1 1 1 1 1 1 1 1 1 1 1 1 1 1 1 1 1 1 1 1 1 1 1 1 1 1 1 1 1 1 1 1 1 1 1 1 1 1 1 1 1 1 1 1 1 1 1 1 1 1 1 1 1 1 1 1 1 1 1 1 1 1 1 1 1 1 1 1 1 1 1 1 1 1 1 1 1 1 1 1 1 1 1 1 1 1 1 1 1 1 1 1 1 1 1 1 1 1 1 1 1 1 1 1 1 1 1 1 1 1 1 1 1 1 1 1 1
				</DataArray>
				<DataArray Name="F3" type="Float32" format="ascii">