<?xml version="1.0"?>
<VTKFile type="PolyData">
	<PolyData>
		<Piece NumberOfPoints="1206" NumberOfPolys="1000">
			<Points>
				<DataArray type="Float32" NumberOfComponents="3" format="ascii">
 0 0 0 0.02 0 0 0.04 0 0 0.06 0 0 0.08 0 0 0.1 0 0 0 0.005 0 0.02 0.005 0 0.04 0.005 0 0.06 0.005 0 0.08 0.005 0 0.1 0.005 0 0 0.01 0 0.02 0.01 0 0.04 0.01 0 0.06 0.01 0 0.08 0.01 0 0.1 0.01 0 0 0.015 0 0.02 0.015 0 0.04 0.015 0 0.06 0.015 0 0.08 0.015 0 0.1 0.015 0 0 0.02 0 0.02 0.02 0 0.04 0.02 0 0.06 0.02 0 0.08 0.02 0 0.1 0.02 0 0 0.025 0 0.02 0.025 0 0.04 0.025 0 0.06 0.025 0 0.08 0.025 0 0.1 0.025 0 0 0.03 0 0.02 0.03 0 0.04 0.03 0 0.06 0.03 0 0.08 0.03 0 0.1 0.03 0 0 0.035 0 0.02 0.035 0 0.04 0.035 0 0.06 0.035 0 0.08 0.035 0 0.1 0.035 0 0 0.04 0 0.02 0.04 0 0.04 0.04 0 0.06 0.04 0 0.08 0.04 0 0.1 0.04 0 0 0.045 0 0.02 0.045 0 0.04 0.045 0 0.06 0.045 0 0.08 0.045 0 0.1 0.045 0 0 0.05 0 0.02 0.05 0 0.04 0.05 0 0.06 0.05 0 0.08 0.05 0 0.1 0.05 0 0 0.055 0 0.02 0.055 0 0.04 0.055 0 0.06 0.055 0 0.08 0.055 0 0.1 0.055 0 0 0.06 0 0.02 0.06 0 0.04 0.06 0 0.06 0.06 0 0.08 0.06 0 0.1 0.06 0 0 0.065 0 0.02 0.065 0 0.04 0.065 0 0.06 0.065 0 0.08 0.065 0 0.1 0.065 0 0 0.07 0 0.02 0.07 0 0.04 0.07 0 0.06 0.07 0 0.08 0.07 0 0.1 0.07 0 0 0.075 0 0.02 0.075 0 0.04 0.075 0 0.06 0.075 0 0.08 0.075 0 0.1 0.075 0 0 0.08 0 0.02 0.08 0 0.04 0.08 0 0.06 0.08 0 0.08 0.08 0 0.1 0.08 0 0 0.085 0 0.02 0.085 0 0.04 0.085 0 0.06 0.085 0 0.08 0.085 0 0.1 0.085 0 0 0.09 0 0.02 0.09 0 0.04 0.09 0 0.06 0.09 0 0.08 0.09 0 0.1 0.09 0 0 0.095 0 0.02 0.095 0 0.04 0.095 0 0.06 0.095 0 0.08 0.095 0 0.1 0.095 0 0 0.1 0 0.02 0.1 0 0.04 0.1 0 0.06 0.1 0 0.08 0.1 0 0.1 0.1 0 0 0.105 0 0.02 0.105 0 0.04 0.105 0 0.06 0.105 0 0.08 0.105 0 0.1 0.105 0 0 0.11 0 0.02 0.11 0 0.04 0.11 0 0.06 0.11 0 0.08 0.11 0 0.1 0.11 0 0 0.115 0 0.02 0.115 0 0.04 0.115 0 0.06 0.115 0 0.08 0.115 0 0.1 0.115 0 0 0.12 0 0.02 0.12 0 0.04 0.12 0 0.06 0.12 0 0.08 0.12 0 0.1 0.12 0 0 0.125 0 0.02 0.125 0 0.04 0.125 0 0.06 0.125 0 0.08 0.125 0 0.1 0.125 0 0 0.13 0 0.02 0.13 0 0.04 0.13 0 0.06 0.13 0 0.08 0.13 0 0.1 0.13 0 0 0.135 0 0.02 0.135 0 0.04 0.135 0 0.06 0.135 0 0.08 0.135 0 0.1 0.135 0 0 0.14 0 0.02 0.14 0 0.04 0.14 0 0.06 0.14 0 0.08 0.14 0 0.1 0.14 0 0 0.145 0 0.02 0.145 0 0.04 0.145 0 0.06 0.145 0 0.08 0.145 0 0.1 0.145 0 0 0.15 0 0.02 0.15 0 0.04 0.15 0 0.06 0.15 0 0.08 0.15 0 0.1 0.15 0 0 0.155 0 0.02 0.155 0 0.04 0.155 0 0.06 0.155 0 0.08 0.155 0 0.1 0.155 0 0 0.16 0 0.02 0.16 0 0.04 0.16 0 0.06 0.16 0 0.08 0.16 0 0.1 0.16 0 0 0.165 0 0.02 0.165 0 0.04 0.165 0 0.06 0.165 0 0.08 0.165 0 0.1 0.165 0 0 0.17 0 0.02 0.17 0 0.04 0.17 0 0.06 0.17 0 0.08 0.17 0 0.1 0.17 0 0 0.175 0 0.02 0.175 0 0.04 0.175 0 0.06 0.175 0 0.08 0.175 0 0.1 0.175 0 0 0.18 0 0.02 0.18 0 0.04 0.18 0 0.06 0.18 0 0.08 0.18 0 0.1 0.18 0 0 0.185 0 0.02 0.185 0 0.04 0.185 0 0.06 0.185 0 0.08 0.185 0 0.1 0.185 0 0 0.19 0 0.02 0.19 0 0.04 0.19 0 0.06 0.19 0 0.08 0.19 0 0.1 0.19 0 0 0.195 0 0.02 0.195 0 0.04 0.195 0 0.06 0.195 0 0.08 0.195 0 0.1 0.195 0 0 0.2 0 0.02 0.2 0 0.04 0.2 0 0.06 0.2 0 0.08 0.2 0 0.1 0.2 0 0 0.205 0 0.02 0.205 0 0.04 0.205 0 0.06 0.205 0 0.08 0.205 0 0.1 0.205 0 0 0.21 0 0.02 0.21 0 0.04 0.21 0 0.06 0.21 0 0.08 0.21 0 0.1 0.21 0 0 0.215 0 0.02 0.215 0 0.04 0.215 0 0.06 0.215 0 0.08 0.215 0 0.1 0.215 0 0 0.22 0 0.02 0.22 0 0.04 0.22 0 0.06 0.22 0 0.08 0.22 0 0.1 0.22 0 0 0.225 0 0.02 0.225 0 0.04 0.225 0 0.06 0.225 0 0.08 0.225 0 0.1 0.225 0 0 0.23 0 0.02 0.23 0 0.04 0.23 0 0.06 0.23 0 0.08 0.23 0 0.1 0.23 0 0 0.235 0 0.02 0.235 0 0.04 0.235 0 0.06 0.235 0 0.08 0.235 0 0.1 0.235 0 0 0.24 0 0.02 0.24 0 0.04 0.24 0 0.06 0.24 0 0.08 0.24 0 0.1 0.24 0 0 0.245 0 0.02 0.245 0 0.04 0.245 0 0.06 0.245 0 0.08 0.245 0 0.1 0.245 0 0 0.25 0 0.02 0.25 0 0.04 0.25 0 0.06 0.25 0 0.08 0.25 0 0.1 0.25 0 0 0.255 0 0.02 0.255 0 0.04 0.255 0 0.06 0.255 0 0.08 0.255 0 0.1 0.255 0 0 0.26 0 0.02 0.26 0 0.04 0.26 0 0.06 0.26 0 0.08 0.26 0 0.1 0.26 0 0 0.265 0 0.02 0.265 0 0.04 0.265 0 0.06 0.265 0 0.08 0.265 0 0.1 0.265 0 0 0.27 0 0.02 0.27 0 0.04 0.27 0 0.06 0.27 0 0.08 0.27 0 0.1 0.27 0 0 0.275 0 0.02 0.275 0 0.04 0.275 0 0.06 0.275 0 0.08 0.275 0 0.1 0.275 0 0 0.28 0 0.02 0.28 0 0.04 0.28 0 0.06 0.28 0 0.08 0.28 0 0.1 0.28 0 0 0.285 0 0.02 0.285 0 0.04 0.285 0 0.06 0.285 0 0.08 0.285 0 0.1 0.285 0 0 0.29 0 0.02 0.29 0 0.04 0.29 0 0.06 0.29 0 0.08 0.29 0 0.1 0.29 0 0 0.295 0 0.02 0.295 0 0.04 0.295 0 0.06 0.295 0 0.08 0.295 0 0.1 0.295 0 0 0.3 0 0.02 0.3 0 0.04 0.3 0 0.06 0.3 0 0.08 0.3 0 0.1 0.3 0 0 0.305 0 0.02 0.305 0 0.04 0.305 0 0.06 0.305 0 0.08 0.305 0 0.1 0.305 0 0 0.31 0 0.02 0.31 0 0.04 0.31 0 0.06 0.31 0 0.08 0.31 0 0.1 0.31 0 0 0.315 0 0.02 0.315 0 0.04 0.315 0 0.06 0.315 0 0.08 0.315 0 0.1 0.315 0 0 0.32 0 0.02 0.32 0 0.04 0.32 0 0.06 0.32 0 0.08 0.32 0 0.1 0.32 0 0 0.325 0 0.02 0.325 0 0.04 0.325 0 0.06 0.325 0 0.08 0.325 0 0.1 0.325 0 0 0.33 0 0.02 0.33 0 0.04 0.33 0 0.06 0.33 0 0.08 0.33 0 0.1 0.33 0 0 0.335 0 0.02 0.335 0 0.04 0.335 0 0.06 0.335 0 0.08 0.335 0 0.1 0.335 0 0 0.34 0 0.02 0.34 0 0.04 0.34 0 0.06 0.34 0 0.08 0.34 0 0.1 0.34 0 0 0.345 0 0.02 0.345 0 0.04 0.345 0 0.06 0.345 0 0.08 0.345 0 0.1 0.345 0 0 0.35 0 0.02 0.35 0 0.04 0.35 0 0.06 0.35 0 0.08 0.35 0 0.1 0.35 0 0 0.355 0 0.02 0.355 0 0.04 0.355 0 0.06 0.355 0 0.08 0.355 0 0.1 0.355 0 0 0.36 0 0.02 0.36 0 0.04 0.36 0 0.06 0.36 0 0.08 0.36 0 0.1 0.36 0 0 0.365 0 0.02 0.365 0 0.04 0.365 0 0.06 0.365 0 0.08 0.365 0 0.1 0.365 0 0 0.37 0 0.02 0.37 0 0.04 0.37 0 0.06 0.37 0 0.08 0.37 0 0.1 0.37 0 0 0.375 0 0.02 0.375 0 0.04 0.375 0 0.06 0.375 0 0.08 0.375 0 0.1 0.375 0 0 0.38 0 0.02 0.38 0 0.04 0.38 0 0.06 0.38 0 0.08 0.38 0 0.1 0.38 0 0 0.385 0 0.02 0.385 0 0.04 0.385 0 0.06 0.385 0 0.08 0.385 0 0.1 0.385 0 0 0.39 0 0.02 0.39 0 0.04 0.39 0 0.06 0.39 0 0.08 0.39 0 0.1 0.39 0 0 0.395 0 0.02 0.395 0 0.04 0.395 0 0.06 0.395 0 0.08 0.395 0 0.1 0.395 0 0 0.4 0 0.02 0.4 0 0.04 0.4 0 0.06 0.4 0 0.08 0.4 0 0.1 0.4 0 0 0.405 0 0.02 0.405 0 0.04 0.405 0 0.06 0.405 0 0.08 0.405 0 0.1 0.405 0 0 0.41 0 0.02 0.41 0 0.04 0.41 0 0.06 0.41 0 0.08 0.41 0 0.1 0.41 0 0 0.415 0 0.02 0.415 0 0.04 0.415 0 0.06 0.415 0 0.08 0.415 0 0.1 0.415 0 0 0.42 0 0.02 0.42 0 0.04 0.42 0 0.06 0.42 0 0.08 0.42 0 0.1 0.42 0 0 0.425 0 0.02 0.425 0 0.04 0.425 0 0.06 0.425 0 0.08 0.425 0 0.1 0.425 0 0 0.43 0 0.02 0.43 0 0.04 0.43 0 0.06 0.43 0 0.08 0.43 0 0.1 0.43 0 0 0.435 0 0.02 0.435 0 0.04 0.435 0 0.06 0.435 0 0.08 0.435 0 0.1 0.435 0 0 0.44 0 0.02 0.44 0 0.04 0.44 0 0.06 0.44 0 0.08 0.44 0 0.1 0.44 0 0 0.445 0 0.02 0.445 0 0.04 0.445 0 0.06 0.445 0 0.08 0.445 0 0.1 0.445 0 0 0.45 0 0.02 0.45 0 0.04 0.45 0 0.06 0.45 0 0.08 0.45 0 0.1 0.45 0 0 0.455 0 0.02 0.455 0 0.04 0.455 0 0.06 0.455 0 0.08 0.455 0 0.1 0.455 0 0 0.46 0 0.02 0.46 0 0.04 0.46 0 0.06 0.46 0 0.08 0.46 0 0.1 0.46 0 0 0.465 0 0.02 0.465 0 0.04 0.465 0 0.06 0.465 0 0.08 0.465 0 0.1 0.465 0 0 0.47 0 0.02 0.47 0 0.04 0.47 0 0.06 0.47 0 0.08 0.47 0 0.1 0.47 0 0 0.475 0 0.02 0.475 0 0.04 0.475 0 0.06 0.475 0 0.08 0.475 0 0.1 0.475 0 0 0.48 0 0.02 0.48 0 0.04 0.48 0 0.06 0.48 0 0.08 0.48 0 0.1 0.48 0 0 0.485 0 0.02 0.485 0 0.04 0.485 0 0.06 0.485 0 0.08 0.485 0 0.1 0.485 0 0 0.49 0 0.02 0.49 0 0.04 0.49 0 0.06 0.49 0 0.08 0.49 0 0.1 0.49 0 0 0.495 0 0.02 0.495 0 0.04 0.495 0 0.06 0.495 0 0.08 0.495 0 0.1 0.495 0 0 0.5 0 0.02 0.5 0 0.04 0.5 0 0.06 0.5 0 0.08 0.5 0 0.1 0.5 0 0 0.505 0 0.02 0.505 0 0.04 0.505 0 0.06 0.505 0 0.08 0.505 0 0.1 0.505 0 0 0.51 0 0.02 0.51 0 0.04 0.51 0 0.06 0.51 0 0.08 0.51 0 0.1 0.51 0 0 0.515 0 0.02 0.515 0 0.04 0.515 0 0.06 0.515 0 0.08 0.515 0 0.1 0.515 0 0 0.52 0 0.02 0.52 0 0.04 0.52 0 0.06 0.52 0 0.08 0.52 0 0.1 0.52 0 0 0.525 0 0.02 0.525 0 0.04 0.525 0 0.06 0.525 0 0.08 0.525 0 0.1 0.525 0 0 0.53 0 0.02 0.53 0 0.04 0.53 0 0.06 0.53 0 0.08 0.53 0 0.1 0.53 0 0 0.535 0 0.02 0.535 0 0.04 0.535 0 0.06 0.535 0 0.08 0.535 0 0.1 0.535 0 0 0.54 0 0.02 0.54 0 0.04 0.54 0 0.06 0.54 0 0.08 0.54 0 0.1 0.54 0 0 0.545 0 0.02 0.545 0 0.04 0.545 0 0.06 0.545 0 0.08 0.545 0 0.1 0.545 0 0 0.55 0 0.02 0.55 0 0.04 0.55 0 0.06 0.55 0 0.08 0.55 0 0.1 0.55 0 0 0.555 0 0.02 0.555 0 0.04 0.555 0 0.06 0.555 0 0.08 0.555 0 0.1 0.555 0 0 0.56 0 0.02 0.56 0 0.04 0.56 0 0.06 0.56 0 0.08 0.56 0 0.1 0.56 0 0 0.565 0 0.02 0.565 0 0.04 0.565 0 0.06 0.565 0 0.08 0.565 0 0.1 0.565 0 0 0.57 0 0.02 0.57 0 0.04 0.57 0 0.06 0.57 0 0.08 0.57 0 0.1 0.57 0 0 0.575 0 0.02 0.575 0 0.04 0.575 0 0.06 0.575 0 0.08 0.575 0 0.1 0.575 0 0 0.58 0 0.02 0.58 0 0.04 0.58 0 0.06 0.58 0 0.08 0.58 0 0.1 0.58 0 0 0.585 0 0.02 0.585 0 0.04 0.585 0 0.06 0.585 0 0.08 0.585 0 0.1 0.585 0 0 0.59 0 0.02 0.59 0 0.04 0.59 0 0.06 0.59 0 0.08 0.59 0 0.1 0.59 0 0 0.595 0 0.02 0.595 0 0.04 0.595 0 0.06 0.595 0 0.08 0.595 0 0.1 0.595 0 0 0.6 0 0.02 0.6 0 0.04 0.6 0 0.06 0.6 0 0.08 0.6 0 0.1 0.6 0 0 0.605 0 0.02 0.605 0 0.04 0.605 0 0.06 0.605 0 0.08 0.605 0 0.1 0.605 0 0 0.61 0 0.02 0.61 0 0.04 0.61 0 0.06 0.61 0 0.08 0.61 0 0.1 0.61 0 0 0.615 0 0.02 0.615 0 0.04 0.615 0 0.06 0.615 0 0.08 0.615 0 0.1 0.615 0 0 0.62 0 0.02 0.62 0 0.04 0.62 0 0.06 0.62 0 0.08 0.62 0 0.1 0.62 0 0 0.625 0 0.02 0.625 0 0.04 0.625 0 0.06 0.625 0 0.08 0.625 0 0.1 0.625 0 0 0.63 0 0.02 0.63 0 0.04 0.63 0 0.06 0.63 0 0.08 0.63 0 0.1 0.63 0 0 0.635 0 0.02 0.635 0 0.04 0.635 0 0.06 0.635 0 0.08 0.635 0 0.1 0.635 0 0 0.64 0 0.02 0.64 0 0.04 0.64 0 0.06 0.64 0 0.08 0.64 0 0.1 0.64 0 0 0.645 0 0.02 0.645 0 0.04 0.645 0 0.06 0.645 0 0.08 0.645 0 0.1 0.645 0 0 0.65 0 0.02 0.65 0 0.04 0.65 0 0.06 0.65 0 0.08 0.65 0 0.1 0.65 0 0 0.655 0 0.02 0.655 0 0.04 0.655 0 0.06 0.655 0 0.08 0.655 0 0.1 0.655 0 0 0.66 0 0.02 0.66 0 0.04 0.66 0 0.06 0.66 0 0.08 0.66 0 0.1 0.66 0 0 0.665 0 0.02 0.665 0 0.04 0.665 0 0.06 0.665 0 0.08 0.665 0 0.1 0.665 0 0 0.67 0 0.02 0.67 0 0.04 0.67 0 0.06 0.67 0 0.08 0.67 0 0.1 0.67 0 0 0.675 0 0.02 0.675 0 0.04 0.675 0 0.06 0.675 0 0.08 0.675 0 0.1 0.675 0 0 0.68 0 0.02 0.68 0 0.04 0.68 0 0.06 0.68 0 0.08 0.68 0 0.1 0.68 0 0 0.685 0 0.02 0.685 0 0.04 0.685 0 0.06 0.685 0 0.08 0.685 0 0.1 0.685 0 0 0.69 0 0.02 0.69 0 0.04 0.69 0 0.06 0.69 0 0.08 0.69 0 0.1 
[...]
			<CellData Scalars="Density">
				<DataArray Name="Density" type="Float32" format="ascii">
 1 1 1 1 1 1 1 1 1 1 1 1 1 1 1 1 1 1 1 1 1 1 1 1 1 1 1 1 1 1 1 1 1 1 1 1 1 1 1 1 1 1 1 1 1 1 1 1 1 1 1 1 1 1 1 1 1 1 1 1 1 1 1 1 1 1 1 1 1 1 1 1 1 1 1 1 1 1 1 1 1 1 1 1 1 1 1 1 1 1 1 1 1 1 1 1 1 1 1 1 1 1 1 1 1 1 1 1 1 1 1 1 1 1 1 1 1 1 1 1 1 1 1 1 1 1 1 1 1 1 1 1 1 1 1 1 1 1 1 1 1 1 1 1 1 1 1 1 1 1 1 1 1 1 1 1 1 1 1 1 1 1 1 1 1 1 1 1 1 1 1 1 1 1 1 1 1 1 1 1 0.999999 0.999999 0.999999 0.999999 0.999999 0.999997 0.999997 0.999997 0.999997 0.999997 0.999992 0.999992 0.999992 0.999992 0.999992 0.999979 0.999979 0.999979 0.999979 0.999979 0.999946 0.999946 0.999946 0.999946 0.999946 0.999865 0.999865 0.999865 0.999865 0.999865 0.999687 0.999687 0.999687 0.999687 0.999687 0.99933 0.99933 0.99933 0.99933 0.99933 0.998674 0.998674 0.998674 0.998674 0.998674 0.997566 0.997566 0.997566 0.997566 0.997566 0.995832 0.995832 0.995832 0.995832 0.995832 0.993296 0.993296 0.993296 0.993296 0.993296 0.989801 0.989801 0.989801 0.989801 0.989801 0.985236 0.985236 0.985236 0.985236 0.985236 0.979539 0.979539 0.979539 0.979539 0.979539 0.972705 0.972705 0.972705 0.972705 0.972705 0.964776 0.964776 0.964776 0.964776 0.964776 0.955835 0.955835 0.955835 0.955835 0.955835 0.945984 0.945984 0.945984 0.945984 0.945984 0.935341 0.935341 0.935341 0.935341 0.935341 0.924024 0.924024 0.924024 0.924024 0.924024 0.912146 0.912146 0.912146 0.912146 0.912146 0.899818 0.899818 0.899818 0.899818 0.899818 0.887126 0.887126 0.887126 0.887126 0.887126 0.874162 0.874162 0.874162 0.874162 0.874162 0.86099 0.86099 0.86099 0.86099 0.86099 0.84768 0.84768 0.84768 0.84768 0.84768 0.834279 0.834279 0.834279 0.834279 0.834279 0.820835 0.820835 0.820835 0.820835 0.820835 0.807383 0.807383 0.807383 0.807383 0.807383 0.793951 0.793951 0.793951 0.793951 0.793951 0.780566 0.780566 0.780566 0.780566 0.780566 0.76725 0.76725 0.76725 0.76725 0.76725 0.754021 0.754021 0.754021 0.754021 0.754021 0.740896 0.740896 0.740896 0.740896 0.740896 0.727888 0.727888 0.727888 0.727888 0.727888 0.715009 0.715009 0.715009 0.715009 0.715009 0.702269 0.702269 0.702269 0.702269 0.702269 0.689676 0.689676 0.689676 0.689676 0.689676 0.677238 0.677238 0.677238 0.677238 0.677238 0.664962 0.664962 0.664962 0.664962 0.664962 0.652854 0.652854 0.652854 0.652854 0.652854 0.640921 0.640921 0.640921 0.640921 0.640921 0.629164 0.629164 0.629164 0.629164 0.629164 0.61759 0.61759 0.61759 0.61759 0.61759 0.606201 0.606201 0.606201 0.606201 0.606201 0.595004 0.595004 0.595004 0.595004 0.595004 0.584003 0.584003 0.584003 0.584003 0.584003 0.573205 0.573205 0.573205 0.573205 0.573205 0.562616 0.562616 0.562616 0.562616 0.562616 0.552244 0.552244 0.552244 0.552244 0.552244 0.542099 0.542099 0.542099 0.542099 0.542099 0.53219 0.53219 0.53219 0.53219 0.53219 0.52253 0.52253 0.52253 0.52253 0.52253 0.513135 0.513135 0.513135 0.513135 0.513135 0.504021 0.504021 0.504021 0.504021 0.504021 0.495212 0.495212 0.495212 0.495212 0.495212 0.486732 0.486732 0.486732 0.486732 0.486732 0.478612 0.478612 0.478612 0.478612 0.478612 0.470889 0.470889 0.470889 0.470889 0.470889 0.463604 0.463604 0.463604 0.463604 0.463604 0.456807 0.456807 0.456807 0.456807 0.456807 0.450552 0.450552 0.450552 0.450552 0.450552 0.444895 0.444895 0.444895 0.444895 0.444895 0.439893 0.439893 0.439893 0.439893 0.439893 0.435596 0.435596 0.435596 0.435596 0.435596 0.432043 0.432043 0.432043 0.432043 0.432043 0.429245 0.429245 0.429245 0.429245 0.429245 0.427179 0.427179 0.427179 0.427179 0.427179 0.425784 0.425784 0.425784 0.425784 0.425784 0.425084 0.425084 0.425084 0.425084 0.425084 0.424784 0.424784 0.424784 0.424784 0.424784 0.424727 0.424727 0.424727 0.424727 0.424727 0.424667 0.424667 0.424667 0.424667 0.424667 0.424585 0.424585 0.424585 0.424585 0.424585 0.424502 0.424502 0.424502 0.424502 0.424502 0.424428 0.424428 0.424428 0.424428 0.424428 0.424376 0.424376 0.424376 0.424376 0.424376 0.424391 0.424391 0.424391 0.424391 0.424391 0.424425 0.424425 0.424425 0.424425 0.424425 0.42445 0.42445 0.42445 0.42445 0.42445 0.424443 0.424443 0.424443 0.424443 0.424443 0.424389 0.424389 0.424389 0.424389 0.424389 0.424309 0.424309 0.424309 0.424309 0.424309 0.424215 0.424215 0.424215 0.424215 0.424215 0.424069 0.424069 0.424069 0.424069 0.424069 0.423856 0.423856 0.423856 0.423856 0.423856 0.423594 0.423594 0.423594 0.423594 0.423594 0.42333 0.42333 0.42333 0.42333 0.42333 0.423075 0.423075 0.423075 0.423075 0.423075 0.42307 0.42307 0.42307 0.42307 0.42307 0.42311 0.42311 0.42311 0.42311 0.42311 0.422873 0.422873 0.422873 0.422873 0.422873 0.421207 0.421207 0.421207 0.421207 0.421207 0.420223 0.420223 0.420223 0.420223 0.420223 0.420495 0.420495 0.420495 0.420495 0.420495 0.420772 0.420772 0.420772 0.420772 0.420772 0.419605 0.419605 0.419605 0.419605 0.419605 0.380008 0.380008 0.380008 0.380008 0.380008 0.355487 0.355487 0.355487 0.355487 0.355487 0.288758 0.288758 0.288758 0.288758 0.288758 0.262933 0.262933 0.262933 0.262933 0.262933 0.262911 0.262911 0.262911 0.262911 0.262911 0.263873 0.263873 0.263873 0.263873 0.263873 0.265069 0.265069 0.265069 0.265069 0.265069 0.265926 0.265926 0.265926 0.265926 0.265926 0.266014 0.266014 0.266014 0.266014 0.266014 0.26596 0.26596 0.26596 0.26596 0.26596 0.265871 0.265871 0.265871 0.265871 0.265871 0.265791 0.265791 0.265791 0.265791 0.265791 0.265799 0.265799 0.265799 0.265799 0.265799 0.265823 0.265823 0.265823 0.265823 0.265823 0.265847 0.265847 0.265847 0.265847 0.265847 0.265858 0.265858 0.265858 0.265858 0.265858 0.265854 0.265854 0.265854 0.265854 0.265854 0.265846 0.265846 0.265846 0.265846 0.265846 0.265839 0.265839 0.265839 0.265839 0.265839 0.265841 0.265841 0.265841 0.265841 0.265841 0.265844 0.265844 0.265844 0.265844 0.265844 0.26584 0.26584 0.26584 0.26584 0.26584 0.265827 0.265827 0.265827 0.265827 0.265827 0.265809 0.265809 0.265809 0.265809 0.265809 0.265797 0.265797 0.265797 0.265797 0.265797 0.265796 0.265796 0.265796 0.265796 0.265796 0.265813 0.265813 0.265813 0.265813 0.265813 0.265857 0.265857 0.265857 0.265857 0.265857 0.265865 0.265865 0.265865 0.265865 0.265865 0.265846 0.265846 0.265846 0.265846 0.265846 0.266292 0.266292 0.266292 0.266292 0.266292 0.267382 0.267382 0.267382 0.267382 0.267382 0.266391 0.266391 0.266391 0.266391 0.266391 0.255723 0.255723 0.255723 0.255723 0.255723 0.186959 0.186959 0.186959 0.186959 0.186959 0.135723 0.135723 0.135723 0.135723 0.135723 0.126625 0.126625 0.126625 0.126625 0.126625 0.125246 0.125246 0.125246 0.125246 0.125246 0.125037 0.125037 0.125037 0.125037 0.125037 0.125006 0.125006 0.125006 0.125006 0.125006 0.125001 0.125001 0.125001 0.125001 0.125001 0.125 0.125 0.125 0.125 0.125 0.125 0.125 0.125 0.125 0.125 0.125 0.125 0.125 0.125 0.125 0.125 0.125 0.125 0.125 0.125 0.125 0.125 0.125 0.125 0.125 0.125 0.125 0.125 0.125 0.125 0.125 0.125 0.125 0.125 0.125 0.125 0.125 0.125 0.125 0.125 0.125 0.125 0.125 0.125 0.125 0.125 0.125 0.125 0.125 0.125 0.125 0.125 0.125 0.125 0.125 0.125 0.125 0.125 0.125 0.125 0.125 0.125 0.125 0.125 0.125 0.125 0.125 0.125 0.125 0.125 0.125 0.125 0.125 0.125 0.125 0.125 0.125 0.125 0.125 0.125 0.125 0.125 0.125 0.125 0.125 0.125 0.125 0.125 0.125 0.125 0.125 0.125 0.125 0.125 0.125 0.125 0.125 0.125 0.125 0.125 0.125 0.125 0.125 0.125 0.125 0.125 0.125 0.125 0.125 0.125 0.125 0.125 0.125 0.125 0.125 0.125 0.125 0.125 0.125 0.125 0.125 0.125 0.125 0.125 0.125
				</DataArray>
				<DataArray Name="Energy" type="Float32" format="ascii">
 2.5 2.5 2.5 2.5 2.5 2.5 2.5 2.5 2.5 2.5 2.5 2.5 2.5 2.5 2.5 2.5 2.5 2.5 2.5 2.5 2.5 2.5 2.5 2.5 2.5 2.5 2.5 2.5 2.5 2.5 2.5 2.5 2.5 2.5 2.5 2.5 2.5 2.5 2.5 2.5 2.5 2.5 2.5 2.5 2.5 2.5 2.5 2.5 2.5 2.5 2.5 2.5 2.5 2.5 2.5 2.5 2.5 2.5 2.5 2.5 2.5 2.5 2.5 2.5 2.5 2.5 2.5 2.5 2.5 2.5 2.5 2.5 2.5 2.5 2.5 2.5 2.5 2.5 2.5 2.5 2.5 2.5 2.5 2.5 2.5 2.5 2.5 2.5 2.5 2.5 2.5 2.5 2.5 2.5 2.5 2.5 2.5 2.5 2.5 2.5 2.5 2.5 2.5 2.5 2.5 2.5 2.5 2.5 2.5 2.5 2.5 2.5 2.5 2.5 2.5 2.5 2.5 2.5 2.5 2.5 2.5 2.5 2.5 2.5 2.5 2.5 2.5 2.5 2.5 2.5 2.5 2.5 2.5 2.5 2.5 2.5 2.5 2.5 2.5 2.5 2.5 2.5 2.5 2.5 2.5 2.5 2.5 2.5 2.5 2.5 2.5 2.5 2.5 2.5 2.5 2.5 2.5 2.5 2.5 2.5 2.5 2.5 2.5 2.5 2.5 2.5 2.5 2.5 2.5 2.5 2.5 2.5 2.5 2.5 2.5 2.5 2.5 2.5 2.5 2.5 2.5 2.5 2.5 2.5 2.5 2.5 2.5 2.5 2.5 2.5 2.49999 2.49999 2.49999 2.49999 2.49999 2.49998 2.49998 2.49998 2.49998 2.49998 2.49995 2.49995 2.49995 2.49995 2.49995 2.49987 2.49987 2.49987 2.49987 2.49987 2.49969 2.49969 2.49969 2.49969 2.49969 2.49933 2.49933 2.49933 2.49933 2.49933 2.49867 2.49867 2.49867 2.49867 2.49867 2.49757 2.49757 2.49757 2.49757 2.49757 2.49583 2.49583 2.49583 2.49583 2.49583 2.49329 2.49329 2.49329 2.49329 2.49329 2.48978 2.48978 2.48978 2.48978 2.48978 2.48519 2.48519 2.48519 2.48519 2.48519 2.47945 2.47945 2.47945 2.47945 2.47945 2.47255 2.47255 2.47255 2.47255 2.47255 2.4645 2.4645 2.4645 2.4645 2.4645 2.45539 2.45539 2.45539 2.45539 2.45539 2.4453 2.4453 2.4453 2.4453 2.4453 2.43433 2.43433 2.43433 2.43433 2.43433 2.42259 2.42259 2.42259 2.42259 2.42259 2.41018 2.41018 2.41018 2.41018 2.41018 2.3972 2.3972 2.3972 2.3972 2.3972 2.38374 2.38374 2.38374 2.38374 2.38374 2.36987 2.36987 2.36987 2.36987 2.36987 2.35566 2.35566 2.35566 2.35566 2.35566 2.34117 2.34117 2.34117 2.34117 2.34117 2.32645 2.32645 2.32645 2.32645 2.32645 2.31154 2.31154 2.31154 2.31154 2.31154 2.29648 2.29648 2.29648 2.29648 2.29648 2.28129 2.28129 2.28129 2.28129 2.28129 2.26601 2.26601 2.26601 2.26601 2.26601 2.25065 2.25065 2.25065 2.25065 2.25065 2.23524 2.23524 2.23524 2.23524 2.23524 2.21979 2.21979 2.21979 2.21979 2.21979 2.20432 2.20432 2.20432 2.20432 2.20432 2.18884 2.18884 2.18884 2.18884 2.18884 2.17337 2.17337 2.17337 2.17337 2.17337 2.15792 2.15792 2.15792 2.15792 2.15792 2.1425 2.1425 2.1425 2.1425 2.1425 2.12711 2.12711 2.12711 2.12711 2.12711 2.11177 2.11177 2.11177 2.11177 2.11177 2.09648 2.09648 2.09648 2.09648 2.09648 2.08126 2.08126 2.08126 2.08126 2.08126 2.06611 2.06611 2.06611 2.06611 2.06611 2.05104 2.05104 2.05104 2.05104 2.05104 2.03606 2.03606 2.03606 2.03606 2.03606 2.02119 2.02119 2.02119 2.02119 2.02119 2.00642 2.00642 2.00642 2.00642 2.00642 1.99179 1.99179 1.99179 1.99179 1.99179 1.9773 1.9773 1.9773 1.9773 1.9773 1.96297 1.96297 1.96297 1.96297 1.96297 1.94882 1.94882 1.94882 1.94882 1.94882 1.93488 1.93488 1.93488 1.93488 1.93488 1.92118 1.92118 1.92118 1.92118 1.92118 1.90776 1.90776 1.90776 1.90776 1.90776 1.89464 1.89464 1.89464 1.89464 1.89464 1.88189 1.88189 1.88189 1.88189 1.88189 1.86957 1.86957 1.86957 1.86957 1.86957 1.85773 1.85773 1.85773 1.85773 1.85773 1.84647 1.84647 1.84647 1.84647 1.84647 1.83589 1.83589 1.83589 1.83589 1.83589 1.82607 1.82607 1.82607 1.82607 1.82607 1.81715 1.81715 1.81715 1.81715 1.81715 1.80922 1.80922 1.80922 1.80922 1.80922 1.8024 1.8024 1.8024 1.8024 1.8024 1.79677 1.79677 1.79677 1.79677 1.79677 1.79238 1.79238 1.79238 1.79238 1.79238 1.7892 1.7892 1.7892 1.7892 1.7892 1.78714 1.78714 1.78714 1.78714 1.78714 1.78592 1.78592 1.78592 1.78592 1.78592 1.78592 1.78592 1.78592 1.78592 1.78592 1.78607 1.78607 1.78607 1.78607 1.78607 1.78633 1.78633 1.78633 1.78633 1.78633 1.78665 1.78665 1.78665 1.78665 1.78665 1.78697 1.78697 1.78697 1.78697 1.78697 1.78729 1.78729 1.78729 1.78729 1.78729 1.78769 1.78769 1.78769 1.78769 1.78769 1.7882 1.7882 1.7882 1.7882 1.7882 1.78867 1.78867 1.78867 1.78867 1.78867 1.78918 1.78918 1.78918 1.78918 1.78918 1.78973 1.78973 1.78973 1.78973 1.78973 1.79034 1.79034 1.79034 1.79034 1.79034 1.79093 1.79093 1.79093 1.79093 1.79093 1.79146 1.79146 1.79146 1.79146 1.79146 1.79213 1.79213 1.79213 1.79213 1.79213 1.79309 1.79309 1.79309 1.79309 1.79309 1.7943 1.7943 1.7943 1.7943 1.7943 1.79568 1.79568 1.79568 1.79568 1.79568 1.79698 1.79698 1.79698 1.79698 1.79698 1.79738 1.79738 1.79738 1.79738 1.79738 1.79737 1.79737 1.79737 1.79737 1.79737 1.79838 1.79838 1.79838 1.79838 1.79838 1.80547 1.80547 1.80547 1.80547 1.80547 1.80962 1.80962 1.80962 1.80962 1.80962 1.80918 1.80918 1.80918 1.80918 1.80918 1.80511 1.80511 1.80511 1.80511 1.80511 1.80521 1.80521 1.80521 1.80521 1.80521 1.9866 1.9866 1.9866 1.9866 1.9866 2.13469 2.13469 2.13469 2.13469 2.13469 2.63971 2.63971 2.63971 2.63971 2.63971 2.88839 2.88839 2.88839 2.88839 2.88839 2.88394 2.88394 2.88394 2.88394 2.88394 2.87156 2.87156 2.87156 2.87156 2.87156 2.85874 2.85874 2.85874 2.85874 2.85874 2.84938 2.84938 2.84938 2.84938 2.84938 2.84905 2.84905 2.84905 2.84905 2.84905 2.85 2.85 2.85 2.85 2.85 2.85136 2.85136 2.85136 2.85136 2.85136 2.8524 2.8524 2.8524 2.8524 2.8524 2.85256 2.85256 2.85256 2.85256 2.85256 2.85249 2.85249 2.85249 2.85249 2.85249 2.85229 2.85229 2.85229 2.85229 2.85229 2.85215 2.85215 2.85215 2.85215 2.85215 2.85213 2.85213 2.85213 2.85213 2.85213 2.85219 2.85219 2.85219 2.85219 2.85219 2.85227 2.85227 2.85227 2.85227 2.85227 2.85237 2.85237 2.85237 2.85237 2.85237 2.85246 2.85246 2.85246 2.85246 2.85246 2.85252 2.85252 2.85252 2.85252 2.85252 2.85253 2.85253 2.85253 2.85253 2.85253 2.85249 2.85249 2.85249 2.85249 2.85249 2.85246 2.85246 2.85246 2.85246 2.85246 2.8525 2.8525 2.8525 2.8525 2.8525 2.85262 2.85262 2.85262 2.85262 2.85262 2.8528 2.8528 2.8528 2.8528 2.8528 2.85286 2.85286 2.85286 2.85286 2.85286 2.8528 2.8528 2.8528 2.8528 2.8528 2.85481 2.85481 2.85481 2.85481 2.85481 2.85952 2.85952 2.85952 2.85952 2.85952 2.85464 2.85464 2.85464 2.85464 2.85464 2.79545 2.79545 2.79545 2.79545 2.79545 2.42072 2.42072 2.42072 2.42072 2.42072 2.07428 2.07428 2.07428 2.07428 2.07428 2.0105 2.0105 2.0105 2.0105 2.0105 2.00157 2.00157 2.00157 2.00157 2.00157 2.00024 2.00024 2.00024 2.00024 2.00024 2.00004 2.00004 2.00004 2.00004 2.00004 2.00001 2.00001 2.00001 2.00001 2.00001 2 2 2 2 2 2 2 2 2 2 2 2 2 2 2 2 2 2 2 2 2 2 2 2 2 2 2 2 2 2 2 2 2 2 2 2 2 2 2 2 2 2 2 2 2 2 2 2 2 2 2 2 2 2 2 2 2 2 2 2 2 2 2 2 2 2 2 2 2 2 2 2 2 2 2 2 2 2 2 2 2 2 2 2 2 2 2 2 2 2 2 2 2 2 2 2 2 2 2 2 2 2 2 2 2 2 2 2 2 2 2 2 2 2 2 2 2 2 2 2 2 2 2 2 2
				</DataArray>
				<DataArray Name="F1" type="Float32" format="ascii">
 1 1 1 1 1 1 1 1 1 1 1 1 1 1 1 1 1 1 1 1 1 1 1 1 1 1 1 1 1 1 1 1 1 1 1 1 1 1 1 1 1 1 1 1 1 1 1 1 1 1 1 1 1 1 1 1 1 1 1 1 1 1 1 1 1 1 1 1 1 1 1 1 1 1 1 1 1 1 1 1 1 1 1 1 1 1 1 1 1 1 1 1 1 1 1 1 1 1 1 1 1 1 1 1 1 1 1 1 1 1 1 1 1 1 1 1 1 1 1 1 1 1 1 1 1 1 1 1 1 1 1 1 1 1 1 1 1 1 1 1 1 1 1 1 1 1 1 1 1 1 1 1 1 1 1 1 1 1 1 1 1 1 1 1 1 1 1 1 1 1 1 1 1 1 1 1 1 1 1 1 1 1 1 1 1 1 1 1 1 1 1 1 1 1 1 1 1 1 1 1 1 1 1 1 1 1 1 1 1 1 1 1 1 1 1 1 1 1 1 1 1 1 1 1 1 1 1 1 1 1 1 1 1 1 1 1 1 1 1 1 1 1 1 1 1 1 1 1 1 1 1 1 1 1 1 1 1 1 1 1 1 1 1 1 1 1 1 1 1 1 1 1 1 1 1 1 1 1 1 1 1 1 1 1 1 1 1 1 1 1 1 1 1 1 1 1 1 1 1 1 1 1 1 1 1 1 1 1 1 1 1 1 1 1 1 1 1 1 1 1 1 1 1 1 1 1 1 1 1 1 1 1 1 1 1 1 1 1 1 1 1 1 1 1 1 1 1 1 1 1 1 1 1 1 1 1 1 1 1 1 1 1 1 1 1 1 1 1 1 1 1 1 1 1 1 1 1 1 1 1 1 1 1 1 1 1 1 1 1 1 1 1 1 1 1 1 1 1 1 1 1 1 1 1 1 1 1 1 1 1 1 1 1 1 1 1 1 1 1 1 1 1 1 1 1 1 1 1 1 1 1 1 1 1 1 1 1 1 1 1 1 1 1 1 1 1 1 1 1 1 1 1 1 1 1 1 1 1 1 1 1 1 1 1 1 1 1 1 1 1 1 1 1 1 1 1 1 1 1 1 1 1 1 1 1 1 1 1 1 1 1 1 1 1 1 1 1 1 1 1 1 1 1 1 1 1 1 1 1 1 1 1 1 1 1 1 1 1 1 1 1 1 1 1 1 1 1 1 1 1 1 1 1 1 1 1 1 1 1 1 1 1 1 1 1 1 1 1 1 1 1 1 1 1 1 1 1 1 1 1 1 1 1 1 1 1 1 1 1 1 1 1 1 1 1 1 1 1 1 1 1 1 1 1 1 1 1 1 1 1 1 1 1 1 1 1 1 1 1 1 1 1 1 1 1 1 1 1 1 1 1 1 1 1 1 1 1 1 1 1 1 1 1 1 1 1 1 1 1 1 1 1 1 1 1 1 1 1 1 1 1 1 1 1 1 1 1 1 1 1 1 1 1 1 1 1 1 1 1 1 1 1 1 1 1 1 1 1 1 1 1 1 1 1 1 0.78685 0.78685 0.78685 0.78685 0.78685 0.239461 0.239461 0.239461 0.239461 0.239461 3.37681e-12 3.37681e-12 3.37681e-12 3.37681e-12 3.37681e-12 0 0 0 0 0 0 0 0 0 0 0 0 0 0 0 0 0 0 0 0 0 0 0 0 0 0 0 0 0 0 0 0 0 0 0 0 0 0 0 0 0 0 0 0 0 0 0 0 0 0 0 0 0 0 0 0 0 0 0 0 0 0 0 0 0 0 0 0 0 0 0 0 0 0 0 0 0 0 0 0 0 0 0 0 0 0 0 0 0 0 0 0 0 0 0 0 0 0 0 0 0 0 0 0 0 0 0 0 0 0 0 0 0 0 0 0 0 0 0 0 0 0 0 0 0 0 0 0 0 0 0 0 0 0 0 0 0 0 0 0 0 0 0 0 0 0 0 0 0 0 0 0 0 0 0 0 0 0 0 0 0 0 0 0 0 0 0 0 0 0 0 0 0 0 0 0 0 0 0 0 0 0 0 0 0 0 0 0 0 0 0 0 0 0 0 0 0 0 0 0 0 0 0 0 0 0 0 0 0 0 0 0 0 0 0 0 0 0 0 0 0 0 0 0 0 0 0 0 0 0 0 0 0 0 0 0 0 0 0 0 0 0 0 0 0 0 0 0 0 0 0 0 0 0 0 0 0 0 0 0 0 0 0 0 0 0 0 0 0 0 0 0 0 0 0 0 0 0 0 0 0 0 0 0 0 0 0 0 0 0 0 0 0 0 0 0 0 0 0 0 0 0 0 0 0 0 0 0 0 0
				</DataArray>
				<DataArray Name="F2" type="Float32" format="ascii">
 0 0 0 0 0 0 0 0 0 0 0 0 0 0 0 0 0 0 0 0 0 0 0 0 0 0 0 0 0 0 0 0 0 0 0 0 0 0 0 0 0 0 0 0 0 0 0 0 0 0 0 0 0 0 0 0 0 0 0 0 0 0 0 0 0 0 0 0 0 0 0 0 0 0 0 0 0 0 0 0 0 0 0 0 0 0 0 0 0 0 0 0 0 0 0 0 0 0 0 0 0 0 0 0 0 0 0 0 0 0 0 0 0 0 0 0 0 0 0 0 0 0 0 0 0 0 0 0 0 0 0 0 0 0 0 0 0 0 0 0 0 0 0 0 0 0 0 0 0 0 0 0 0 0 0 0 0 0 0 0 0 0 0 0 0 0 0 0 0 0 0 0 0 0 0 0 0 0 0 0 0 0 0 0 0 0 0 0 0 0 0 0 0 0 0 0 0 0 0 0 0 0 0 0 0 0 0 0 0 0 0 0 0 0 0 0 0 0 0 0 0 0 0 0 0 0 0 0 0 0 0 0 0 0 0 0 0 0 0 0 0 0 0 0 0 0 0 0 0 0 0 0 0 0 0 0 0 0 0 0 0 0 0 0 0 0 0 0 0 0 0 0 0 0 0 0 0 0 0 0 0 0 0 0 0 0 0 0 0 0 0 0 0 0 0 0 0 0 0 0 0 0 0 0 0 0 0 0 0 0 0 0 0 0 0 0 0 0 0 0 0 0 0 0 0 0 0 0 0 0 0 0 0 0 0 0 0 0 0 0 0 0 0 0 0 0 0 0 0 0 0 0 0 0 0 0 0 0 0 0 0 0 0 0 0 0 0 0 0 0 0 0 0 0 0 0 0 0 0 0 0 0 0 0 0 0 0 0 0 0 0 0 0 0 0 0 0 0 0 0 0 0 0 0 0 0 0 0 0 0 0 0 0 0 0 0 0 0 0 0 0 0 0 0 0 0 0 0 0 0 0 0 0 0 0 0 0 0 0 0 0 0 0 0 0 0 0 0 0 0 0 0 0 0 0 0 0 0 0 0 0 0 0 0 0 0 0 0 0 0 0 0 0 0 0 0 0 0 0 0 0 0 0 0 0 0 0 0 0 0 0 0 0 0 0 0 0 0 0 0 0 0 0 0 0 0 0 0 0 0 0 0 0 0 0 0 0 0 0 0 0 0 0 0 0 0 0 0 0 0 0 0 0 0 0 0 0 0 0 0 0 0 0 0 0 0 0 0 0 0 0 0 0 0 0 0 0 0 0 0 0 0 0 0 0 0 0 0 0 0 0 0 0 0 0 0 0 0 0 0 0 0 0 0 0 0 0 0 0 0 0 0 0 0 0 0 0 0 0 0 0 0 0 0 0 0 0 0 0 0 0 0 0 0 0 0 0 0 0 0 0 0 0 0 0 0 0 0 0 0 0 0 0 0 0 0 0 0 0 0 0 0 0 0 0 0 0 0 0 0 0 0 0 0 0 0 0 0 0 0 0 0 0 0 0 0 0 0 0 0 0 0 0 1.62629e-16 0 0.21315 0.21315 0.21315 0.21315 0.21315 0.760539 0.760539 0.760539 0.760539 0.760539 1 1 1 1 1 1 1 1 1 1 1 1 1 1 1 1 1 1 1 1 1 1 1 1 1 1 1 1 1 1 1 1 1 1 1 1 1 1 1 1 1 1 1 1 1 1 1 1 1 1 1 1 1 1 1 1 1 1 1 1 1 1 1 1 1 1 1 1 1 1 1 1 1 1 1 1 1 1 1 1 1 1 1 1 1 1 1 1 1 1 1 1 1 1 1 1 1 1 1 1 1 1 1 1 1 1 1 1 1 1 1 1 1 1 1 1 1 1 1 1 1 1 1 1 1 1 1 1 1 1 1 1 1 1 1 1 1 1 1 1 1 1 1 1 1 1 1 1 1 1 1 1 1 1 1 1 1 1 1 1 1 1 1 1 1 1 1 1 1 1 1 1 1 1 1 1 1 1 1 1 1 1 1 1 1 1 1 1 1 1 1 1 1 1 1 1 1 1 1 1 1 1 1 1 1 1 1 1 1 1 1 1 1 1 1 1 1 1 1 1 1 1 1 1 1 1 1 1 1 1 1 1 1 1 1 1 1 1 1 1 1 1 1 1 1 1 1 1 1 1 1 1 1 1 1 1 1 1 1 1 1 1 1 1 1 1 1 1 1 1 1 1 1 1 1 1 1 1 1 1 1 1 1 1 1 1 1 1 1 1 1 1 1 1 1 1 1 1 1 1 1 1 1 1 1 1 1 1 1 1 1 1 1 1 1
				</DataArray>
				<DataArray Name="F3" type="Float32" format="ascii">