<?xml version="1.0"?>
<VTKFile type="PolyData">
	<PolyData>
		<Piece NumberOfPoints="1206" NumberOfPolys="1000">
			<Points>
				<DataArray type="Float32" NumberOfComponents="3" format="ascii">
 0 0 0 0.02 0 0 0.04 0 0 0.06 0 0 0.08 0 0 0.1 0 0 0 0.005 0 0.02 0.005 0 0.04 0.005 0 0.06 0.005 0 0.08 0.005 0 0.1 0.005 0 0 0.01 0 0.02 0.01 0 0.04 0.01 0 0.06 0.01 0 0.08 0.01 0 0.1 0.01 0 0 0.015 0 0.02 0.015 0 0.04 0.015 0 0.06 0.015 0 0.08 0.015 0 0.1 0.015 0 0 0.02 0 0.02 0.02 0 0.04 0.02 0 0.06 0.02 0 0.08 0.02 0 0.1 0.02 0 0 0.025 0 0.02 0.025 0 0.04 0.025 0 0.06 0.025 0 0.08 0.025 0 0.1 0.025 0 0 0.03 0 0.02 0.03 0 0.04 0.03 0 0.06 0.03 0 0.08 0.03 0 0.1 0.03 0 0 0.035 0 0.02 0.035 0 0.04 0.035 0 0.06 0.035 0 0.08 0.035 0 0.1 0.035 0 0 0.04 0 0.02 0.04 0 0.04 0.04 0 0.06 0.04 0 0.08 0.04 0 0.1 0.04 0 0 0.045 0 0.02 0.045 0 0.04 0.045 0 0.06 0.045 0 0.08 0.045 0 0.1 0.045 0 0 0.05 0 0.02 0.05 0 0.04 0.05 0 0.06 0.05 0 0.08 0.05 0 0.1 0.05 0 0 0.055 0 0.02 0.055 0 0.04 0.055 0 0.06 0.055 0 0.08 0.055 0 0.1 0.055 0 0 0.06 0 0.02 0.06 0 0.04 0.06 0 0.06 0.06 0 0.08 0.06 0 0.1 0.06 0 0 0.065 0 0.02 0.065 0 0.04 0.065 0 0.06 0.065 0 0.08 0.065 0 0.1 0.065 0 0 0.07 0 0.02 0.07 0 0.04 0.07 0 0.06 0.07 0 0.08 0.07 0 0.1 0.07 0 0 0.075 0 0.02 0.075 0 0.04 0.075 0 0.06 0.075 0 0.08 0.075 0 0.1 0.075 0 0 0.08 0 0.02 0.08 0 0.04 0.08 0 0.06 0.08 0 0.08 0.08 0 0.1 0.08 0 0 0.085 0 0.02 0.085 0 0.04 0.085 0 0.06 0.085 0 0.08 0.085 0 0.1 0.085 0 0 0.09 0 0.02 0.09 0 0.04 0.09 0 0.06 0.09 0 0.08 0.09 0 0.1 0.09 0 0 0.095 0 0.02 0.095 0 0.04 0.095 0 0.06 0.095 0 0.08 0.095 0 0.1 0.095 0 0 0.1 0 0.02 0.1 0 0.04 0.1 0 0.06 0.1 0 0.08 0.1 0 0.1 0.1 0 0 0.105 0 0.02 0.105 0 0.04 0.105 0 0.06 0.105 0 0.08 0.105 0 0.1 0.105 0 0 0.11 0 0.02 0.11 0 0.04 0.11 0 0.06 0.11 0 0.08 0.11 0 0.1 0.11 0 0 0.115 0 0.02 0.115 0 0.04 0.115 0 0.06 0.115 0 0.08 0.115 0 0.1 0.115 0 0 0.12 0 0.02 0.12 0 0.04 0.12 0 0.06 0.12 0 0.08 0.12 0 0.1 0.12 0 0 0.125 0 0.02 0.125 0 0.04 0.125 0 0.06 0.125 0 0.08 0.125 0 0.1 0.125 0 0 0.13 0 0.02 0.13 0 0.04 0.13 0 0.06 0.13 0 0.08 0.13 0 0.1 0.13 0 0 0.135 0 0.02 0.135 0 0.04 0.135 0 0.06 0.135 0 0.08 0.135 0 0.1 0.135 0 0 0.14 0 0.02 0.14 0 0.04 0.14 0 0.06 0.14 0 0.08 0.14 0 0.1 0.14 0 0 0.145 0 0.02 0.145 0 0.04 0.145 0 0.06 0.145 0 0.08 0.145 0 0.1 0.145 0 0 0.15 0 0.02 0.15 0 0.04 0.15 0 0.06 0.15 0 0.08 0.15 0 0.1 0.15 0 0 0.155 0 0.02 0.155 0 0.04 0.155 0 0.06 0.155 0 0.08 0.155 0 0.1 0.155 0 0 0.16 0 0.02 0.16 0 0.04 0.16 0 0.06 0.16 0 0.08 0.16 0 0.1 0.16 0 0 0.165 0 0.02 0.165 0 0.04 0.165 0 0.06 0.165 0 0.08 0.165 0 0.1 0.165 0 0 0.17 0 0.02 0.17 0 0.04 0.17 0 0.06 0.17 0 0.08 0.17 0 0.1 0.17 0 0 0.175 0 0.02 0.175 0 0.04 0.175 0 0.06 0.175 0 0.08 0.175 0 0.1 0.175 0 0 0.18 0 0.02 0.18 0 0.04 0.18 0 0.06 0.18 0 0.08 0.18 0 0.1 0.18 0 0 0.185 0 0.02 0.185 0 0.04 0.185 0 0.06 0.185 0 0.08 0.185 0 0.1 0.185 0 0 0.19 0 0.02 0.19 0 0.04 0.19 0 0.06 0.19 0 0.08 0.19 0 0.1 0.19 0 0 0.195 0 0.02 0.195 0 0.04 0.195 0 0.06 0.195 0 0.08 0.195 0 0.1 0.195 0 0 0.2 0 0.02 0.2 0 0.04 0.2 0 0.06 0.2 0 0.08 0.2 0 0.1 0.2 0 0 0.205 0 0.02 0.205 0 0.04 0.205 0 0.06 0.205 0 0.08 0.205 0 0.1 0.205 0 0 0.21 0 0.02 0.21 0 0.04 0.21 0 0.06 0.21 0 0.08 0.21 0 0.1 0.21 0 0 0.215 0 0.02 0.215 0 0.04 0.215 0 0.06 0.215 0 0.08 0.215 0 0.1 0.215 0 0 0.22 0 0.02 0.22 0 0.04 0.22 0 0.06 0.22 0 0.08 0.22 0 0.1 0.22 0 0 0.225 0 0.02 0.225 0 0.04 0.225 0 0.06 0.225 0 0.08 0.225 0 0.1 0.225 0 0 0.23 0 0.02 0.23 0 0.04 0.23 0 0.06 0.23 0 0.08 0.23 0 0.1 0.23 0 0 0.235 0 0.02 0.235 0 0.04 0.235 0 0.06 0.235 0 0.08 0.235 0 0.1 0.235 0 0 0.24 0 0.02 0.24 0 0.04 0.24 0 0.06 0.24 0 0.08 0.24 0 0.1 0.24 0 0 0.245 0 0.02 0.245 0 0.04 0.245 0 0.06 0.245 0 0.08 0.245 0 0.1 0.245 0 0 0.25 0 0.02 0.25 0 0.04 0.25 0 0.06 0.25 0 0.08 0.25 0 0.1 0.25 0 0 0.255 0 0.02 0.255 0 0.04 0.255 0 0.06 0.255 0 0.08 0.255 0 0.1 0.255 0 0 0.26 0 0.02 0.26 0 0.04 0.26 0 0.06 0.26 0 0.08 0.26 0 0.1 0.26 0 0 0.265 0 0.02 0.265 0 0.04 0.265 0 0.06 0.265 0 0.08 0.265 0 0.1 0.265 0 0 0.27 0 0.02 0.27 0 0.04 0.27 0 0.06 0.27 0 0.08 0.27 0 0.1 0.27 0 0 0.275 0 0.02 0.275 0 0.04 0.275 0 0.06 0.275 0 0.08 0.275 0 0.1 0.275 0 0 0.28 0 0.02 0.28 0 0.04 0.28 0 0.06 0.28 0 0.08 0.28 0 0.1 0.28 0 0 0.285 0 0.02 0.285 0 0.04 0.285 0 0.06 0.285 0 0.08 0.285 0 0.1 0.285 0 0 0.29 0 0.02 0.29 0 0.04 0.29 0 0.06 0.29 0 0.08 0.29 0 0.1 0.29 0 0 0.295 0 0.02 0.295 0 0.04 0.295 0 0.06 0.295 0 0.08 0.295 0 0.1 0.295 0 0 0.3 0 0.02 0.3 0 0.04 0.3 0 0.06 0.3 0 0.08 0.3 0 0.1 0.3 0 0 0.305 0 0.02 0.305 0 0.04 0.305 0 0.06 0.305 0 0.08 0.305 0 0.1 0.305 0 0 0.31 0 0.02 0.31 0 0.04 0.31 0 0.06 0.31 0 0.08 0.31 0 0.1 0.31 0 0 0.315 0 0.02 0.315 0 0.04 0.315 0 0.06 0.315 0 0.08 0.315 0 0.1 0.315 0 0 0.32 0 0.02 0.32 0 0.04 0.32 0 0.06 0.32 0 0.08 0.32 0 0.1 0.32 0 0 0.325 0 0.02 0.325 0 0.04 0.325 0 0.06 0.325 0 0.08 0.325 0 0.1 0.325 0 0 0.33 0 0.02 0.33 0 0.04 0.33 0 0.06 0.33 0 0.08 0.33 0 0.1 0.33 0 0 0.335 0 0.02 0.335 0 0.04 0.335 0 0.06 0.335 0 0.08 0.335 0 0.1 0.335 0 0 0.34 0 0.02 0.34 0 0.04 0.34 0 0.06 0.34 0 0.08 0.34 0 0.1 0.34 0 0 0.345 0 0.02 0.345 0 0.04 0.345 0 0.06 0.345 0 0.08 0.345 0 0.1 0.345 0 0 0.35 0 0.02 0.35 0 0.04 0.35 0 0.06 0.35 0 0.08 0.35 0 0.1 0.35 0 0 0.355 0 0.02 0.355 0 0.04 0.355 0 0.06 0.355 0 0.08 0.355 0 0.1 0.355 0 0 0.36 0 0.02 0.36 0 0.04 0.36 0 0.06 0.36 0 0.08 0.36 0 0.1 0.36 0 0 0.365 0 0.02 0.365 0 0.04 0.365 0 0.06 0.365 0 0.08 0.365 0 0.1 0.365 0 0 0.37 0 0.02 0.37 0 0.04 0.37 0 0.06 0.37 0 0.08 0.37 0 0.1 0.37 0 0 0.375 0 0.02 0.375 0 0.04 0.375 0 0.06 0.375 0 0.08 0.375 0 0.1 0.375 0 0 0.38 0 0.02 0.38 0 0.04 0.38 0 0.06 0.38 0 0.08 0.38 0 0.1 0.38 0 0 0.385 0 0.02 0.385 0 0.04 0.385 0 0.06 0.385 0 0.08 0.385 0 0.1 0.385 0 0 0.39 0 0.02 0.39 0 0.04 0.39 0 0.06 0.39 0 0.08 0.39 0 0.1 0.39 0 0 0.395 0 0.02 0.395 0 0.04 0.395 0 0.06 0.395 0 0.08 0.395 0 0.1 0.395 0 0 0.4 0 0.02 0.4 0 0.04 0.4 0 0.06 0.4 0 0.08 0.4 0 0.1 0.4 0 0 0.405 0 0.02 0.405 0 0.04 0.405 0 0.06 0.405 0 0.08 0.405 0 0.1 0.405 0 0 0.41 0 0.02 0.41 0 0.04 0.41 0 0.06 0.41 0 0.08 0.41 0 0.1 0.41 0 0 0.415 0 0.02 0.415 0 0.04 0.415 0 0.06 0.415 0 0.08 0.415 0 0.1 0.415 0 0 0.42 0 0.02 0.42 0 0.04 0.42 0 0.06 0.42 0 0.08 0.42 0 0.1 0.42 0 0 0.425 0 0.02 0.425 0 0.04 0.425 0 0.06 0.425 0 0.08 0.425 0 0.1 0.425 0 0 0.43 0 0.02 0.43 0 0.04 0.43 0 0.06 0.43 0 0.08 0.43 0 0.1 0.43 0 0 0.435 0 0.02 0.435 0 0.04 0.435 0 0.06 0.435 0 0.08 0.435 0 0.1 0.435 0 0 0.44 0 0.02 0.44 0 0.04 0.44 0 0.06 0.44 0 0.08 0.44 0 0.1 0.44 0 0 0.445 0 0.02 0.445 0 0.04 0.445 0 0.06 0.445 0 0.08 0.445 0 0.1 0.445 0 0 0.45 0 0.02 0.45 0 0.04 0.45 0 0.06 0.45 0 0.08 0.45 0 0.1 0.45 0 0 0.455 0 0.02 0.455 0 0.04 0.455 0 0.06 0.455 0 0.08 0.455 0 0.1 0.455 0 0 0.46 0 0.02 0.46 0 0.04 0.46 0 0.06 0.46 0 0.08 0.46 0 0.1 0.46 0 0 0.465 0 0.02 0.465 0 0.04 0.465 0 0.06 0.465 0 0.08 0.465 0 0.1 0.465 0 0 0.47 0 0.02 0.47 0 0.04 0.47 0 0.06 0.47 0 0.08 0.47 0 0.1 0.47 0 0 0.475 0 0.02 0.475 0 0.04 0.475 0 0.06 0.475 0 0.08 0.475 0 0.1 0.475 0 0 0.48 0 0.02 0.48 0 0.04 0.48 0 0.06 0.48 0 0.08 0.48 0 0.1 0.48 0 0 0.485 0 0.02 0.485 0 0.04 0.485 0 0.06 0.485 0 0.08 0.485 0 0.1 0.485 0 0 0.49 0 0.02 0.49 0 0.04 0.49 0 0.06 0.49 0 0.08 0.49 0 0.1 0.49 0 0 0.495 0 0.02 0.495 0 0.04 0.495 0 0.06 0.495 0 0.08 0.495 0 0.1 0.495 0 0 0.5 0 0.02 0.5 0 0.04 0.5 0 0.06 0.5 0 0.08 0.5 0 0.1 0.5 0 0 0.505 0 0.02 0.505 0 0.04 0.505 0 0.06 0.505 0 0.08 0.505 0 0.1 0.505 0 0 0.51 0 0.02 0.51 0 0.04 0.51 0 0.06 0.51 0 0.08 0.51 0 0.1 0.51 0 0 0.515 0 0.02 0.515 0 0.04 0.515 0 0.06 0.515 0 0.08 0.515 0 0.1 0.515 0 0 0.52 0 0.02 0.52 0 0.04 0.52 0 0.06 0.52 0 0.08 0.52 0 0.1 0.52 0 0 0.525 0 0.02 0.525 0 0.04 0.525 0 0.06 0.525 0 0.08 0.525 0 0.1 0.525 0 0 0.53 0 0.02 0.53 0 0.04 0.53 0 0.06 0.53 0 0.08 0.53 0 0.1 0.53 0 0 0.535 0 0.02 0.535 0 0.04 0.535 0 0.06 0.535 0 0.08 0.535 0 0.1 0.535 0 0 0.54 0 0.02 0.54 0 0.04 0.54 0 0.06 0.54 0 0.08 0.54 0 0.1 0.54 0 0 0.545 0 0.02 0.545 0 0.04 0.545 0 0.06 0.545 0 0.08 0.545 0 0.1 0.545 0 0 0.55 0 0.02 0.55 0 0.04 0.55 0 0.06 0.55 0 0.08 0.55 0 0.1 0.55 0 0 0.555 0 0.02 0.555 0 0.04 0.555 0 0.06 0.555 0 0.08 0.555 0 0.1 0.555 0 0 0.56 0 0.02 0.56 0 0.04 0.56 0 0.06 0.56 0 0.08 0.56 0 0.1 0.56 0 0 0.565 0 0.02 0.565 0 0.04 0.565 0 0.06 0.565 0 0.08 0.565 0 0.1 0.565 0 0 0.57 0 0.02 0.57 0 0.04 0.57 0 0.06 0.57 0 0.08 0.57 0 0.1 0.57 0 0 0.575 0 0.02 0.575 0 0.04 0.575 0 0.06 0.575 0 0.08 0.575 0 0.1 0.575 0 0 0.58 0 0.02 0.58 0 0.04 0.58 0 0.06 0.58 0 0.08 0.58 0 0.1 0.58 0 0 0.585 0 0.02 0.585 0 0.04 0.585 0 0.06 0.585 0 0.08 0.585 0 0.1 0.585 0 0 0.59 0 0.02 0.59 0 0.04 0.59 0 0.06 0.59 0 0.08 0.59 0 0.1 0.59 0 0 0.595 0 0.02 0.595 0 0.04 0.595 0 0.06 0.595 0 0.08 0.595 0 0.1 0.595 0 0 0.6 0 0.02 0.6 0 0.04 0.6 0 0.06 0.6 0 0.08 0.6 0 0.1 0.6 0 0 0.605 0 0.02 0.605 0 0.04 0.605 0 0.06 0.605 0 0.08 0.605 0 0.1 0.605 0 0 0.61 0 0.02 0.61 0 0.04 0.61 0 0.06 0.61 0 0.08 0.61 0 0.1 0.61 0 0 0.615 0 0.02 0.615 0 0.04 0.615 0 0.06 0.615 0 0.08 0.615 0 0.1 0.615 0 0 0.62 0 0.02 0.62 0 0.04 0.62 0 0.06 0.62 0 0.08 0.62 0 0.1 0.62 0 0 0.625 0 0.02 0.625 0 0.04 0.625 0 0.06 0.625 0 0.08 0.625 0 0.1 0.625 0 0 0.63 0 0.02 0.63 0 0.04 0.63 0 0.06 0.63 0 0.08 0.63 0 0.1 0.63 0 0 0.635 0 0.02 0.635 0 0.04 0.635 0 0.06 0.635 0 0.08 0.635 0 0.1 0.635 0 0 0.64 0 0.02 0.64 0 0.04 0.64 0 0.06 0.64 0 0.08 0.64 0 0.1 0.64 0 0 0.645 0 0.02 0.645 0 0.04 0.645 0 0.06 0.645 0 0.08 0.645 0 0.1 0.645 0 0 0.65 0 0.02 0.65 0 0.04 0.65 0 0.06 0.65 0 0.08 0.65 0 0.1 0.65 0 0 0.655 0 0.02 0.655 0 0.04 0.655 0 0.06 0.655 0 0.08 0.655 0 0.1 0.655 0 0 0.66 0 0.02 0.66 0 0.04 0.66 0 0.06 0.66 0 0.08 0.66 0 0.1 0.66 0 0 0.665 0 0.02 0.665 0 0.04 0.665 0 0.06 0.665 0 0.08 0.665 0 0.1 0.665 0 0 0.67 0 0.02 0.67 0 0.04 0.67 0 0.06 0.67 0 0.08 0.67 0 0.1 0.67 0 0 0.675 0 0.02 0.675 0 0.04 0.675 0 0.06 0.675 0 0.08 0.675 0 0.1 0.675 0 0 0.68 0 0.02 0.68 0 0.04 0.68 0 0.06 0.68 0 0.08 0.68 0 0.1 0.68 0 0 0.685 0 0.02 0.685 0 0.04 0.685 0 0.06 0.685 0 0.08 0.685 0 0.1 0.685 0 0 0.69 0 0.02 0.69 0 0.04 0.69 0 0.06 0.69 0 0.08 0.69 0 0.1 
[...]
			<CellData Scalars="Density">
				<DataArray Name="Density" type="Float32" format="ascii">
 1 1 1 1 1 1 1 1 1 1 1 1 1 1 1 1 1 1 1 1 1 1 1 1 1 1 1 1 1 1 1 1 1 1 1 1 1 1 1 1 1 1 1 1 1 1 1 1 1 1 1 1 1 1 1 1 1 1 1 1 1 1 1 1 1 1 1 1 1 1 1 1 1 1 1 1 1 1 1 1 1 1 1 1 1 1 1 1 1 1 1 1 1 1 1 1 1 1 1 1 1 1 1 1 1 1 1 1 1 1 1 1 1 1 1 1 1 1 1 1 1 1 1 1 1 1 1 1 1 1 1 1 1 1 1 1 1 1 1 1 1 1 1 1 1 1 1 1 1 1 1 1 1 1 1 1 1 1 1 1 1 1 1 1 1 1 1 1 1 1 1 1 1 1 1 1 1 1 1 1 1 1 1 1 1 1 1 1 1 1 0.999999 0.999999 0.999999 0.999999 0.999999 0.999999 0.999999 0.999999 0.999999 0.999999 0.999996 0.999996 0.999996 0.999996 0.999996 0.99999 0.99999 0.99999 0.99999 0.99999 0.999973 0.999973 0.999973 0.999973 0.999973 0.999932 0.999932 0.999932 0.999932 0.999932 0.999829 0.999829 0.999829 0.999829 0.999829 0.999604 0.999604 0.999604 0.999604 0.999604 0.999152 0.999152 0.999152 0.999152 0.999152 0.998332 0.998332 0.998332 0.998332 0.998332 0.996962 0.996962 0.996962 0.996962 0.996962 0.994846 0.994846 0.994846 0.994846 0.994846 0.991793 0.991793 0.991793 0.991793 0.991793 0.987647 0.987647 0.987647 0.987647 0.987647 0.982307 0.982307 0.982307 0.982307 0.982307 0.975733 0.975733 0.975733 0.975733 0.975733 0.967946 0.967946 0.967946 0.967946 0.967946 0.959019 0.959019 0.959019 0.959019 0.959019 0.949055 0.949055 0.949055 0.949055 0.949055 0.938183 0.938183 0.938183 0.938183 0.938183 0.926532 0.926532 0.926532 0.926532 0.926532 0.914235 0.914235 0.914235 0.914235 0.914235 0.901411 0.901411 0.901411 0.901411 0.901411 0.888171 0.888171 0.888171 0.888171 0.888171 0.874613 0.874613 0.874613 0.874613 0.874613 0.860817 0.860817 0.860817 0.860817 0.860817 0.846862 0.846862 0.846862 0.846862 0.846862 0.8328 0.8328 0.8328 0.8328 0.8328 0.818693 0.818693 0.818693 0.818693 0.818693 0.804572 0.804572 0.804572 0.804572 0.804572 0.790481 0.790481 0.790481 0.790481 0.790481 0.776439 0.776439 0.776439 0.776439 0.776439 0.762478 0.762478 0.762478 0.762478 0.762478 0.748615 0.748615 0.748615 0.748615 0.748615 0.734871 0.734871 0.734871 0.734871 0.734871 0.72126 0.72126 0.72126 0.72126 0.72126 0.707796 0.707796 0.707796 0.707796 0.707796 0.694489 0.694489 0.694489 0.694489 0.694489 0.681349 0.681349 0.681349 0.681349 0.681349 0.668385 0.668385 0.668385 0.668385 0.668385 0.655604 0.655604 0.655604 0.655604 0.655604 0.643015 0.643015 0.643015 0.643015 0.643015 0.630621 0.630621 0.630621 0.630621 0.630621 0.618428 0.618428 0.618428 0.618428 0.618428 0.606441 0.606441 0.606441 0.606441 0.606441 0.594667 0.594667 0.594667 0.594667 0.594667 0.583111 0.583111 0.583111 0.583111 0.583111 0.571782 0.571782 0.571782 0.571782 0.571782 0.560686 0.560686 0.560686 0.560686 0.560686 0.549835 0.549835 0.549835 0.549835 0.549835 0.539239 0.539239 0.539239 0.539239 0.539239 0.528911 0.528911 0.528911 0.528911 0.528911 0.518867 0.518867 0.518867 0.518867 0.518867 0.509125 0.509125 0.509125 0.509125 0.509125 0.499708 0.499708 0.499708 0.499708 0.499708 0.490644 0.490644 0.490644 0.490644 0.490644 0.481964 0.481964 0.481964 0.481964 0.481964 0.473708 0.473708 0.473708 0.473708 0.473708 0.465919 0.465919 0.465919 0.465919 0.465919 0.458652 0.458652 0.458652 0.458652 0.458652 0.451963 0.451963 0.451963 0.451963 0.451963 0.445916 0.445916 0.445916 0.445916 0.445916 0.440574 0.440574 0.440574 0.440574 0.440574 0.435992 0.435992 0.435992 0.435992 0.435992 0.432209 0.432209 0.432209 0.432209 0.432209 0.429243 0.429243 0.429243 0.429243 0.429243 0.427079 0.427079 0.427079 0.427079 0.427079 0.425655 0.425655 0.425655 0.425655 0.425655 0.424968 0.424968 0.424968 0.424968 0.424968 0.424722 0.424722 0.424722 0.424722 0.424722 0.424608 0.424608 0.424608 0.424608 0.424608 0.424527 0.424527 0.424527 0.424527 0.424527 0.424436 0.424436 0.424436 0.424436 0.424436 0.424346 0.424346 0.424346 0.424346 0.424346 0.424262 0.424262 0.424262 0.424262 0.424262 0.424208 0.424208 0.424208 0.424208 0.424208 0.424234 0.424234 0.424234 0.424234 0.424234 0.424255 0.424255 0.424255 0.424255 0.424255 0.424247 0.424247 0.424247 0.424247 0.424247 0.424216 0.424216 0.424216 0.424216 0.424216 0.424164 0.424164 0.424164 0.424164 0.424164 0.424068 0.424068 0.424068 0.424068 0.424068 0.423881 0.423881 0.423881 0.423881 0.423881 0.423616 0.423616 0.423616 0.423616 0.423616 0.423315 0.423315 0.423315 0.423315 0.423315 0.423014 0.423014 0.423014 0.423014 0.423014 0.422949 0.422949 0.422949 0.422949 0.422949 0.423011 0.423011 0.423011 0.423011 0.423011 0.422995 0.422995 0.422995 0.422995 0.422995 0.421418 0.421418 0.421418 0.421418 0.421418 0.420192 0.420192 0.420192 0.420192 0.420192 0.420159 0.420159 0.420159 0.420159 0.420159 0.420595 0.420595 0.420595 0.420595 0.420595 0.420679 0.420679 0.420679 0.420679 0.420679 0.384983 0.384983 0.384983 0.384983 0.384983 0.359758 0.359758 0.359758 0.359758 0.359758 0.295313 0.295313 0.295313 0.295313 0.295313 0.262879 0.262879 0.262879 0.262879 0.262879 0.262724 0.262724 0.262724 0.262724 0.262724 0.263718 0.263718 0.263718 0.263718 0.263718 0.265005 0.265005 0.265005 0.265005 0.265005 0.265972 0.265972 0.265972 0.265972 0.265972 0.266073 0.266073 0.266073 0.266073 0.266073 0.266019 0.266019 0.266019 0.266019 0.266019 0.26592 0.26592 0.26592 0.26592 0.26592 0.265833 0.265833 0.265833 0.265833 0.265833 0.265819 0.265819 0.265819 0.265819 0.265819 0.265824 0.265824 0.265824 0.265824 0.265824 0.265835 0.265835 0.265835 0.265835 0.265835 0.265845 0.265845 0.265845 0.265845 0.265845 0.265851 0.265851 0.265851 0.265851 0.265851 0.265861 0.265861 0.265861 0.265861 0.265861 0.265863 0.265863 0.265863 0.265863 0.265863 0.265859 0.265859 0.265859 0.265859 0.265859 0.265841 0.265841 0.265841 0.265841 0.265841 0.265815 0.265815 0.265815 0.265815 0.265815 0.2658 0.2658 0.2658 0.2658 0.2658 0.265802 0.265802 0.265802 0.265802 0.265802 0.265826 0.265826 0.265826 0.265826 0.265826 0.265888 0.265888 0.265888 0.265888 0.265888 0.265922 0.265922 0.265922 0.265922 0.265922 0.265896 0.265896 0.265896 0.265896 0.265896 0.266121 0.266121 0.266121 0.266121 0.266121 0.266773 0.266773 0.266773 0.266773 0.266773 0.268406 0.268406 0.268406 0.268406 0.268406 0.261781 0.261781 0.261781 0.261781 0.261781 0.223095 0.223095 0.223095 0.223095 0.223095 0.148964 0.148964 0.148964 0.148964 0.148964 0.128596 0.128596 0.128596 0.128596 0.128596 0.125542 0.125542 0.125542 0.125542 0.125542 0.125082 0.125082 0.125082 0.125082 0.125082 0.125012 0.125012 0.125012 0.125012 0.125012 0.125002 0.125002 0.125002 0.125002 0.125002 0.125 0.125 0.125 0.125 0.125 0.125 0.125 0.125 0.125 0.125 0.125 0.125 0.125 0.125 0.125 0.125 0.125 0.125 0.125 0.125 0.125 0.125 0.125 0.125 0.125 0.125 0.125 0.125 0.125 0.125 0.125 0.125 0.125 0.125 0.125 0.125 0.125 0.125 0.125 0.125 0.125 0.125 0.125 0.125 0.125 0.125 0.125 0.125 0.125 0.125 0.125 0.125 0.125 0.125 0.125 0.125 0.125 0.125 0.125 0.125 0.125 0.125 0.125 0.125 0.125 0.125 0.125 0.125 0.125 0.125 0.125 0.125 0.125 0.125 0.125 0.125 0.125 0.125 0.125 0.125 0.125 0.125 0.125 0.125 0.125 0.125 0.125 0.125 0.125 0.125 0.125 0.125 0.125 0.125 0.125 0.125 0.125 0.125 0.125 0.125 0.125 0.125 0.125 0.125 0.125 0.125 0.125 0.125 0.125 0.125 0.125 0.125 0.125 0.125 0.125 0.125 0.125 0.125 0.125 0.125 0.125 0.125 0.125 0.125 0.125 0.125 0.125 0.125 0.125 0.125 0.125 0.125 0.125 0.125 0.125 0.125 0.125 0.125 0.125 0.125 0.125 0.125 0.125 0.125 0.125
				</DataArray>
				<DataArray Name="Energy" type="Float32" format="ascii">
 2.5 2.5 2.5 2.5 2.5 2.5 2.5 2.5 2.5 2.5 2.5 2.5 2.5 2.5 2.5 2.5 2.5 2.5 2.5 2.5 2.5 2.5 2.5 2.5 2.5 2.5 2.5 2.5 2.5 2.5 2.5 2.5 2.5 2.5 2.5 2.5 2.5 2.5 2.5 2.5 2.5 2.5 2.5 2.5 2.5 2.5 2.5 2.5 2.5 2.5 2.5 2.5 2.5 2.5 2.5 2.5 2.5 2.5 2.5 2.5 2.5 2.5 2.5 2.5 2.5 2.5 2.5 2.5 2.5 2.5 2.5 2.5 2.5 2.5 2.5 2.5 2.5 2.5 2.5 2.5 2.5 2.5 2.5 2.5 2.5 2.5 2.5 2.5 2.5 2.5 2.5 2.5 2.5 2.5 2.5 2.5 2.5 2.5 2.5 2.5 2.5 2.5 2.5 2.5 2.5 2.5 2.5 2.5 2.5 2.5 2.5 2.5 2.5 2.5 2.5 2.5 2.5 2.5 2.5 2.5 2.5 2.5 2.5 2.5 2.5 2.5 2.5 2.5 2.5 2.5 2.5 2.5 2.5 2.5 2.5 2.5 2.5 2.5 2.5 2.5 2.5 2.5 2.5 2.5 2.5 2.5 2.5 2.5 2.5 2.5 2.5 2.5 2.5 2.5 2.5 2.5 2.5 2.5 2.5 2.5 2.5 2.5 2.5 2.5 2.5 2.5 2.5 2.5 2.5 2.5 2.5 2.5 2.5 2.5 2.5 2.5 2.5 2.5 2.5 2.5 2.5 2.5 2.5 2.5 2.5 2.5 2.5 2.5 2.5 2.5 2.5 2.5 2.5 2.5 2.5 2.5 2.5 2.5 2.5 2.5 2.5 2.5 2.5 2.5 2.5 2.49999 2.49999 2.49999 2.49999 2.49999 2.49997 2.49997 2.49997 2.49997 2.49997 2.49993 2.49993 2.49993 2.49993 2.49993 2.49983 2.49983 2.49983 2.49983 2.49983 2.4996 2.4996 2.4996 2.4996 2.4996 2.49915 2.49915 2.49915 2.49915 2.49915 2.49833 2.49833 2.49833 2.49833 2.49833 2.49696 2.49696 2.49696 2.49696 2.49696 2.49484 2.49484 2.49484 2.49484 2.49484 2.49178 2.49178 2.49178 2.49178 2.49178 2.48762 2.48762 2.48762 2.48762 2.48762 2.48225 2.48225 2.48225 2.48225 2.48225 2.47561 2.47561 2.47561 2.47561 2.47561 2.46773 2.46773 2.46773 2.46773 2.46773 2.45865 2.45865 2.45865 2.45865 2.45865 2.44846 2.44846 2.44846 2.44846 2.44846 2.43727 2.43727 2.43727 2.43727 2.43727 2.42521 2.42521 2.42521 2.42521 2.42521 2.41239 2.41239 2.41239 2.41239 2.41239 2.39891 2.39891 2.39891 2.39891 2.39891 2.38488 2.38488 2.38488 2.38488 2.38488 2.37039 2.37039 2.37039 2.37039 2.37039 2.35551 2.35551 2.35551 2.35551 2.35551 2.34032 2.34032 2.34032 2.34032 2.34032 2.32487 2.32487 2.32487 2.32487 2.32487 2.30922 2.30922 2.30922 2.30922 2.30922 2.29339 2.29339 2.29339 2.29339 2.29339 2.27743 2.27743 2.27743 2.27743 2.27743 2.26136 2.26136 2.26136 2.26136 2.26136 2.24521 2.24521 2.24521 2.24521 2.24521 2.229 2.229 2.229 2.229 2.229 2.21276 2.21276 2.21276 2.21276 2.21276 2.1965 2.1965 2.1965 2.1965 2.1965 2.18024 2.18024 2.18024 2.18024 2.18024 2.16399 2.16399 2.16399 2.16399 2.16399 2.14777 2.14777 2.14777 2.14777 2.14777 2.13158 2.13158 2.13158 2.13158 2.13158 2.11544 2.11544 2.11544 2.11544 2.11544 2.09936 2.09936 2.09936 2.09936 2.09936 2.08335 2.08335 2.08335 2.08335 2.08335 2.06742 2.06742 2.06742 2.06742 2.06742 2.05158 2.05158 2.05158 2.05158 2.05158 2.03584 2.03584 2.03584 2.03584 2.03584 2.02022 2.02022 2.02022 2.02022 2.02022 2.00472 2.00472 2.00472 2.00472 2.00472 1.98938 1.98938 1.98938 1.98938 1.98938 1.97419 1.97419 1.97419 1.97419 1.97419 1.9592 1.9592 1.9592 1.9592 1.9592 1.94442 1.94442 1.94442 1.94442 1.94442 1.92988 1.92988 1.92988 1.92988 1.92988 1.91563 1.91563 1.91563 1.91563 1.91563 1.9017 1.9017 1.9017 1.9017 1.9017 1.88815 1.88815 1.88815 1.88815 1.88815 1.87504 1.87504 1.87504 1.87504 1.87504 1.86245 1.86245 1.86245 1.86245 1.86245 1.85046 1.85046 1.85046 1.85046 1.85046 1.83918 1.83918 1.83918 1.83918 1.83918 1.82872 1.82872 1.82872 1.82872 1.82872 1.8192 1.8192 1.8192 1.8192 1.8192 1.81076 1.81076 1.81076 1.81076 1.81076 1.8035 1.8035 1.8035 1.8035 1.8035 1.79752 1.79752 1.79752 1.79752 1.79752 1.79288 1.79288 1.79288 1.79288 1.79288 1.78956 1.78956 1.78956 1.78956 1.78956 1.7874 1.7874 1.7874 1.7874 1.7874 1.78625 1.78625 1.78625 1.78625 1.78625 1.78625 1.78625 1.78625 1.78625 1.78625 1.78662 1.78662 1.78662 1.78662 1.78662 1.78696 1.78696 1.78696 1.78696 1.78696 1.78727 1.78727 1.78727 1.78727 1.78727 1.78759 1.78759 1.78759 1.78759 1.78759 1.78793 1.78793 1.78793 1.78793 1.78793 1.78828 1.78828 1.78828 1.78828 1.78828 1.78875 1.78875 1.78875 1.78875 1.78875 1.78933 1.78933 1.78933 1.78933 1.78933 1.79002 1.79002 1.79002 1.79002 1.79002 1.79072 1.79072 1.79072 1.79072 1.79072 1.79136 1.79136 1.79136 1.79136 1.79136 1.79203 1.79203 1.79203 1.79203 1.79203 1.79293 1.79293 1.79293 1.79293 1.79293 1.79409 1.79409 1.79409 1.79409 1.79409 1.7954 1.7954 1.7954 1.7954 1.7954 1.79674 1.79674 1.79674 1.79674 1.79674 1.79724 1.79724 1.79724 1.79724 1.79724 1.79724 1.79724 1.79724 1.79724 1.79724 1.79759 1.79759 1.79759 1.79759 1.79759 1.80457 1.80457 1.80457 1.80457 1.80457 1.80985 1.80985 1.80985 1.80985 1.80985 1.80981 1.80981 1.80981 1.80981 1.80981 1.80566 1.80566 1.80566 1.80566 1.80566 1.80543 1.80543 1.80543 1.80543 1.80543 1.94458 1.94458 1.94458 1.94458 1.94458 2.13355 2.13355 2.13355 2.13355 2.13355 2.57136 2.57136 2.57136 2.57136 2.57136 2.88849 2.88849 2.88849 2.88849 2.88849 2.88437 2.88437 2.88437 2.88437 2.88437 2.87306 2.87306 2.87306 2.87306 2.87306 2.86038 2.86038 2.86038 2.86038 2.86038 2.85013 2.85013 2.85013 2.85013 2.85013 2.84935 2.84935 2.84935 2.84935 2.84935 2.85006 2.85006 2.85006 2.85006 2.85006 2.8514 2.8514 2.8514 2.8514 2.8514 2.85251 2.85251 2.85251 2.85251 2.85251 2.85264 2.85264 2.85264 2.85264 2.85264 2.85252 2.85252 2.85252 2.85252 2.85252 2.85225 2.85225 2.85225 2.85225 2.85225 2.85211 2.85211 2.85211 2.85211 2.85211 2.85211 2.85211 2.85211 2.85211 2.85211 2.85225 2.85225 2.85225 2.85225 2.85225 2.85238 2.85238 2.85238 2.85238 2.85238 2.85244 2.85244 2.85244 2.85244 2.85244 2.85243 2.85243 2.85243 2.85243 2.85243 2.85239 2.85239 2.85239 2.85239 2.85239 2.8524 2.8524 2.8524 2.8524 2.8524 2.85246 2.85246 2.85246 2.85246 2.85246 2.8526 2.8526 2.8526 2.8526 2.8526 2.8529 2.8529 2.8529 2.8529 2.8529 2.85306 2.85306 2.85306 2.85306 2.85306 2.85296 2.85296 2.85296 2.85296 2.85296 2.85396 2.85396 2.85396 2.85396 2.85396 2.85677 2.85677 2.85677 2.85677 2.85677 2.86375 2.86375 2.86375 2.86375 2.86375 2.8307 2.8307 2.8307 2.8307 2.8307 2.62631 2.62631 2.62631 2.62631 2.62631 2.16927 2.16927 2.16927 2.16927 2.16927 2.02352 2.02352 2.02352 2.02352 2.02352 2.00348 2.00348 2.00348 2.00348 2.00348 2.00052 2.00052 2.00052 2.00052 2.00052 2.00008 2.00008 2.00008 2.00008 2.00008 2.00001 2.00001 2.00001 2.00001 2.00001 2 2 2 2 2 2 2 2 2 2 2 2 2 2 2 2 2 2 2 2 2 2 2 2 2 2 2 2 2 2 2 2 2 2 2 2 2 2 2 2 2 2 2 2 2 2 2 2 2 2 2 2 2 2 2 2 2 2 2 2 2 2 2 2 2 2 2 2 2 2 2 2 2 2 2 2 2 2 2 2 2 2 2 2 2 2 2 2 2 2 2 2 2 2 2 2 2 2 2 2 2 2 2 2 2 2 2 2 2 2 2 2 2 2 2 2 2 2 2 2 2 2 2 2 2 2 2 2 2 2 2 2 2 2 2 2 2 2 2 2 2 2 2 2 2
				</DataArray>
				<DataArray Name="F1" type="Float32" format="ascii">
 1 1 1 1 1 1 1 1 1 1 1 1 1 1 1 1 1 1 1 1 1 1 1 1 1 1 1 1 1 1 1 1 1 1 1 1 1 1 1 1 1 1 1 1 1 1 1 1 1 1 1 1 1 1 1 1 1 1 1 1 1 1 1 1 1 1 1 1 1 1 1 1 1 1 1 1 1 1 1 1 1 1 1 1 1 1 1 1 1 1 1 1 1 1 1 1 1 1 1 1 1 1 1 1 1 1 1 1 1 1 1 1 1 1 1 1 1 1 1 1 1 1 1 1 1 1 1 1 1 1 1 1 1 1 1 1 1 1 1 1 1 1 1 1 1 1 1 1 1 1 1 1 1 1 1 1 1 1 1 1 1 1 1 1 1 1 1 1 1 1 1 1 1 1 1 1 1 1 1 1 1 1 1 1 1 1 1 1 1 1 1 1 1 1 1 1 1 1 1 1 1 1 1 1 1 1 1 1 1 1 1 1 1 1 1 1 1 1 1 1 1 1 1 1 1 1 1 1 1 1 1 1 1 1 1 1 1 1 1 1 1 1 1 1 1 1 1 1 1 1 1 1 1 1 1 1 1 1 1 1 1 1 1 1 1 1 1 1 1 1 1 1 1 1 1 1 1 1 1 1 1 1 1 1 1 1 1 1 1 1 1 1 1 1 1 1 1 1 1 1 1 1 1 1 1 1 1 1 1 1 1 1 1 1 1 1 1 1 1 1 1 1 1 1 1 1 1 1 1 1 1 1 1 1 1 1 1 1 1 1 1 1 1 1 1 1 1 1 1 1 1 1 1 1 1 1 1 1 1 1 1 1 1 1 1 1 1 1 1 1 1 1 1 1 1 1 1 1 1 1 1 1 1 1 1 1 1 1 1 1 1 1 1 1 1 1 1 1 1 1 1 1 1 1 1 1 1 1 1 1 1 1 1 1 1 1 1 1 1 1 1 1 1 1 1 1 1 1 1 1 1 1 1 1 1 1 1 1 1 1 1 1 1 1 1 1 1 1 1 1 1 1 1 1 1 1 1 1 1 1 1 1 1 1 1 1 1 1 1 1 1 1 1 1 1 1 1 1 1 1 1 1 1 1 1 1 1 1 1 1 1 1 1 1 1 1 1 1 1 1 1 1 1 1 1 1 1 1 1 1 1 1 1 1 1 1 1 1 1 1 1 1 1 1 1 1 1 1 1 1 1 1 1 1 1 1 1 1 1 1 1 1 1 1 1 1 1 1 1 1 1 1 1 1 1 1 1 1 1 1 1 1 1 1 1 1 1 1 1 1 1 1 1 1 1 1 1 1 1 1 1 1 1 1 1 1 1 1 1 1 1 1 1 1 1 1 1 1 1 1 1 1 1 1 1 1 1 1 1 1 1 1 1 1 1 1 1 1 1 1 1 1 1 1 1 1 1 1 1 1 1 1 1 1 1 1 1 1 1 1 1 1 1 1 1 1 1 1 1 1 1 1 1 1 1 1 1 1 1 1 1 1 1 1 1 0.836185 0.836185 0.836185 0.836185 0.836185 0.292237 0.292237 0.292237 0.292237 0.292237 0.000145578 0.000145578 0.000145578 0.000145578 0.000145578 0 0 0 0 0 0 0 0 0 0 0 0 0 0 0 0 0 0 0 0 0 0 0 0 0 0 0 0 0 0 0 0 0 0 0 0 0 0 0 0 0 0 0 0 0 0 0 0 0 0 0 0 0 0 0 0 0 0 0 0 0 0 0 0 0 0 0 0 0 0 0 0 0 0 0 0 0 0 0 0 0 0 0 0 0 0 0 0 0 0 0 0 0 0 0 0 0 0 0 0 0 0 0 0 0 0 0 0 0 0 0 0 0 0 0 0 0 0 0 0 0 0 0 0 0 0 0 0 0 0 0 0 0 0 0 0 0 0 0 0 0 0 0 0 0 0 0 0 0 0 0 0 0 0 0 0 0 0 0 0 0 0 0 0 0 0 0 0 0 0 0 0 0 0 0 0 0 0 0 0 0 0 0 0 0 0 0 0 0 0 0 0 0 0 0 0 0 0 0 0 0 0 0 0 0 0 0 0 0 0 0 0 0 0 0 0 0 0 0 0 0 0 0 0 0 0 0 0 0 0 0 0 0 0 0 0 0 0 0 0 0 0 0 0 0 0 0 0 0 0 0 0 0 0 0 0 0 0 0 0 0 0 0 0 0 0 0 0 0 0 0 0 0 0 0 0 0 0 0 0 0 0 0 0 0 0 0 0 0 0 0 0 0 0 0 0 0 0 0 0 0 0 0 0 0 0 0 0 0 0 0 0 0 0 0 0 0 0 0 0
				</DataArray>
				<DataArray Name="F2" type="Float32" format="ascii">
 0 0 0 0 0 0 0 0 0 0 0 0 0 0 0 0 0 0 0 0 0 0 0 0 0 0 0 0 0 0 0 0 0 0 0 0 0 0 0 0 0 0 0 0 0 0 0 0 0 0 0 0 0 0 0 0 0 0 0 0 0 0 0 0 0 0 0 0 0 0 0 0 0 0 0 0 0 0 0 0 0 0 0 0 0 0 0 0 0 0 0 0 0 0 0 0 0 0 0 0 0 0 0 0 0 0 0 0 0 0 0 0 0 0 0 0 0 0 0 0 0 0 0 0 0 0 0 0 0 0 0 0 0 0 0 0 0 0 0 0 0 0 0 0 0 0 0 0 0 0 0 0 0 0 0 0 0 0 0 0 0 0 0 0 0 0 0 0 0 0 0 0 0 0 0 0 0 0 0 0 0 0 0 0 0 0 0 0 0 0 0 0 0 0 0 0 0 0 0 0 0 0 0 0 0 0 0 0 0 0 0 0 0 0 0 0 0 0 0 0 0 0 0 0 0 0 0 0 0 0 0 0 0 0 0 0 0 0 0 0 0 0 0 0 0 0 0 0 0 0 0 0 0 0 0 0 0 0 0 0 0 0 0 0 0 0 0 0 0 0 0 0 0 0 0 0 0 0 0 0 0 0 0 0 0 0 0 0 0 0 0 0 0 0 0 0 0 0 0 0 0 0 0 0 0 0 0 0 0 0 0 0 0 0 0 0 0 0 0 0 0 0 0 0 0 0 0 0 0 0 0 0 0 0 0 0 0 0 0 0 0 0 0 0 0 0 0 0 0 0 0 0 0 0 0 0 0 0 0 0 0 0 0 0 0 0 0 0 0 0 0 0 0 0 0 0 0 0 0 0 0 0 0 0 0 0 0 0 0 0 0 0 0 0 0 0 0 0 0 0 0 0 0 0 0 0 0 0 0 0 0 0 0 0 0 0 0 0 0 0 0 0 0 0 0 0 0 0 0 0 0 0 0 0 0 0 0 0 0 0 0 0 0 0 0 0 0 0 0 0 0 0 0 0 0 0 0 0 0 0 0 0 0 0 0 0 0 0 0 0 0 0 0 0 0 0 0 0 0 0 0 0 0 0 0 0 0 0 0 0 0 0 0 0 0 0 0 0 0 0 0 0 0 0 0 0 0 0 0 0 0 0 0 0 0 0 0 0 0 0 0 0 0 0 0 0 0 0 0 0 0 0 0 0 0 0 0 0 0 0 0 0 0 0 0 0 0 0 0 0 0 0 0 0 0 0 0 0 0 0 0 0 0 0 0 0 0 0 0 0 0 0 0 0 0 0 0 0 0 0 0 0 0 0 0 0 0 0 0 0 0 0 0 0 0 0 0 0 0 0 0 0 0 0 0 0 0 0 0 0 0 0 0 0 0 0 0 0 0 0 0 0 0 0 0 0 0 0 0 0 0 0 0 0 0 0 0 0 0 0 0 0 0 0 0 0 0 0 0 0 0 0 1.19392e-16 0 0 0 0 1.2807e-16 0 0 0 0 1.93451e-15 4.74212e-16 0 0.163815 0.163815 0.163815 0.163815 0.163815 0.707763 0.707763 0.707763 0.707763 0.707763 0.999854 0.999854 0.999854 0.999854 0.999854 1 1 1 1 1 1 1 1 1 1 1 1 1 1 1 1 1 1 1 1 1 1 1 1 1 1 1 1 1 1 1 1 1 1 1 1 1 1 1 1 1 1 1 1 1 1 1 1 1 1 1 1 1 1 1 1 1 1 1 1 1 1 1 1 1 1 1 1 1 1 1 1 1 1 1 1 1 1 1 1 1 1 1 1 1 1 1 1 1 1 1 1 1 1 1 1 1 1 1 1 1 1 1 1 1 1 1 1 1 1 1 1 1 1 1 1 1 1 1 1 1 1 1 1 1 1 1 1 1 1 1 1 1 1 1 1 1 1 1 1 1 1 1 1 1 1 1 1 1 1 1 1 1 1 1 1 1 1 1 1 1 1 1 1 1 1 1 1 1 1 1 1 1 1 1 1 1 1 1 1 1 1 1 1 1 1 1 1 1 1 1 1 1 1 1 1 1 1 1 1 1 1 1 1 1 1 1 1 1 1 1 1 1 1 1 1 1 1 1 1 1 1 1 1 1 1 1 1 1 1 1 1 1 1 1 1 1 1 1 1 1 1 1 1 1 1 1 1 1 1 1 1 1 1 1 1 1 1 1 1 1 1 1 1 1 1 1 1 1 1 1 1 1 1 1 1 1 1 1 1 1 1 1 1 1 1 1 1 1 1 1 1 1 1 1 1 1 1 1 1 1 1 1 1 1 1 1 1 1 1 1 1 1 1 1 1 1 1 1 1
				</DataArray>
				<DataArray Name="F3" type="Float32" format="ascii">