<?xml version="1.0"?>
<VTKFile type="PolyData">
	<PolyData>
		<Piece NumberOfPoints="1206" NumberOfPolys="1000">
			<Points>
				<DataArray type="Float32" NumberOfComponents="3" format="ascii">
 0 0 0 0.005 0 0 0.01 0 0 0.015 0 0 0.02 0 0 0.025 0 0 0.03 0 0 0.035 0 0 0.04 0 0 0.045 0 0 0.05 0 0 0.055 0 0 0.06 0 0 0.065 0 0 0.07 0 0 0.075 0 0 0.08 0 0 0.085 0 0 0.09 0 0 0.095 0 0 0.1 0 0 0.105 0 0 0.11 0 0 0.115 0 0 0.12 0 0 0.125 0 0 0.13 0 0 0.135 0 0 0.14 0 0 0.145 0 0 0.15 0 0 0.155 0 0 0.16 0 0 0.165 0 0 0.17 0 0 0.175 0 0 0.18 0 0 0.185 0 0 0.19 0 0 0.195 0 0 0.2 0 0 0.205 0 0 0.21 0 0 0.215 0 0 0.22 0 0 0.225 0 0 0.23 0 0 0.235 0 0 0.24 0 0 0.245 0 0 0.25 0 0 0.255 0 0 0.26 0 0 0.265 0 0 0.27 0 0 0.275 0 0 0.28 0 0 0.285 0 0 0.29 0 0 0.295 0 0 0.3 0 0 0.305 0 0 0.31 0 0 0.315001 0 0 0.320003 0 0 0.325011 0 0 0.330029 0 0 0.335071 0 0 0.340157 0 0 0.345309 0 0 0.350555 0 0 0.355916 0 0 0.361412 0 0 0.367058 0 0 0.372869 0 0 0.378858 0 0 0.38504 0 0 0.391432 0 0 0.39805 0 0 0.404913 0 0 0.412044 0 0 0.419466 0 0 0.427208 0 0 0.435299 0 0 0.443777 0 0 0.452682 0 0 0.462061 0 0 0.471965 0 0 0.482447 0 0 0.493551 0 0 0.505272 0 0 0.517433 0 0 0.529598 0 0 0.54163 0 0 0.553537 0 0 0.565355 0 0 0.577124 0 0 0.588871 0 0 0.60061 0 0 0.612347 0 0 0.624095 0 0 0.626705 0 0 0.629241 0 0 0.631733 0 0 0.634194 0 0 0.636634 0 0 0.639058 0 0 0.641474 0 0 0.643887 0 0 0.6463 0 0 0.648699 0 0 0.651086 0 0 0.653467 0 0 0.655845 0 0 0.658221 0 0 0.660594 0 0 0.662964 0 0 0.665334 0 0 0.667702 0 0 0.670067 0 0 0.672431 0 0 0.674793 0 0 0.677157 0 0 0.679521 0 0 0.681885 0 0 0.684248 0 0 0.686611 0 0 0.688973 0 0 0.691335 0 0 0.693699 0 0 0.696063 0 0 0.698428 0 0 0.700793 0 0 0.703157 0 0 0.705521 0 0 0.707886 0 0 0.71025 0 0 0.712617 0 0 0.714981 0 0 0.717355 0 0 0.719749 0 0 0.722152 0 0 0.724618 0 0 0.727173 0 0 0.729811 0 0 0.732627 0 0 0.735627 0 0 0.738912 0 0 0.742513 0 0 0.74647 0 0 0.750768 0 0 0.755356 0 0 0.760148 0 0 0.765057 0 0 0.770021 0 0 0.775008 0 0 0.780003 0 0 0.785001 0 0 0.79 0 0 0.795 0 0 0.8 0 0 0.805 0 0 0.81 0 0 0.815 0 0 0.82 0 0 0.825 0 0 0.83 0 0 0.835 0 0 0.84 0 0 0.845 0 0 0.85 0 0 0.855 0 0 0.86 0 0 0.865 0 0 0.87 0 0 0.875 0 0 0.88 0 0 0.885 0 0 0.89 0 0 0.895 0 0 0.9 0 0 0.905 0 0 0.91 0 0 0.915 0 0 0.92 0 0 0.925 0 0 0.93 0 0 0.935 0 0 0.94 0 0 0.945 0 0 0.95 0 0 0.955 0 0 0.96 0 0 0.965 0 0 0.97 0 0 0.975 0 0 0.98 0 0 0.985 0 0 0.99 0 0 0.995 0 0 1 0 0 0 0.02 0 0.005 0.02 0 0.01 0.02 0 0.015 0.02 0 0.02 0.02 0 0.025 0.02 0 0.03 0.02 0 0.035 0.02 0 0.04 0.02 0 0.045 0.02 0 0.05 0.02 0 0.055 0.02 0 0.06 0.02 0 0.065 0.02 0 0.07 0.02 0 0.075 0.02 0 0.08 0.02 0 0.085 0.02 0 0.09 0.02 0 0.095 0.02 0 0.1 0.02 0 0.105 0.02 0 0.11 0.02 0 0.115 0.02 0 0.12 0.02 0 0.125 0.02 0 0.13 0.02 0 0.135 0.02 0 0.14 0.02 0 0.145 0.02 0 0.15 0.02 0 0.155 0.02 0 0.16 0.02 0 0.165 0.02 0 0.17 0.02 0 0.175 0.02 0 0.18 0.02 0 0.185 0.02 0 0.19 0.02 0 0.195 0.02 0 0.2 0.02 0 0.205 0.02 0 0.21 0.02 0 0.215 0.02 0 0.22 0.02 0 0.225 0.02 0 0.23 0.02 0 0.235 0.02 0 0.24 0.02 0 0.245 0.02 0 0.25 0.02 0 0.255 0.02 0 0.26 0.02 0 0.265 0.02 0 0.27 0.02 0 0.275 0.02 0 0.28 0.02 0 0.285 0.02 0 0.29 0.02 0 0.295 0.02 0 0.3 0.02 0 0.305 0.02 0 0.31 0.02 0 0.315001 0.02 0 0.320003 0.02 0 0.325011 0.02 0 0.330029 0.02 0 0.335071 0.02 0 0.340157 0.02 0 0.345309 0.02 0 0.350555 0.02 0 0.355916 0.02 0 0.361412 0.02 0 0.367058 0.02 0 0.372869 0.02 0 0.378858 0.02 0 0.38504 0.02 0 0.391432 0.02 0 0.39805 0.02 0 0.404913 0.02 0 0.412044 0.02 0 0.419466 0.02 0 0.427208 0.02 0 0.435299 0.02 0 0.443777 0.02 0 0.452682 0.02 0 0.462061 0.02 0 0.471965 0.02 0 0.482447 0.02 0 0.493551 0.02 0 0.505272 0.02 0 0.517433 0.02 0 0.529598 0.02 0 0.54163 0.02 0 0.553537 0.02 0 0.565355 0.02 0 0.577124 0.02 0 0.588871 0.02 0 0.60061 0.02 0 0.612347 0.02 0 0.624095 0.02 0 0.626705 0.02 0 0.629241 0.02 0 0.631733 0.02 0 0.634194 0.02 0 0.636634 0.02 0 0.639058 0.02 0 0.641474 0.02 0 0.643887 0.02 0 0.6463 0.02 0 0.648699 0.02 0 0.651086 0.02 0 0.653467 0.02 0 0.655845 0.02 0 0.658221 0.02 0 0.660594 0.02 0 0.662964 0.02 0 0.665334 0.02 0 0.667702 0.02 0 0.670067 0.02 0 0.672431 0.02 0 0.674793 0.02 0 0.677157 0.02 0 0.679521 0.02 0 0.681885 0.02 0 0.684248 0.02 0 0.686611 0.02 0 0.688973 0.02 0 0.691335 0.02 0 0.693699 0.02 0 0.696063 0.02 0 0.698428 0.02 0 0.700793 0.02 0 0.703157 0.02 0 0.705521 0.02 0 0.707886 0.02 0 0.71025 0.02 0 0.712617 0.02 0 0.714981 0.02 0 0.717355 0.02 0 0.719749 0.02 0 0.722152 0.02 0 0.724618 0.02 0 0.727173 0.02 0 0.729811 0.02 0 0.732627 0.02 0 0.735627 0.02 0 0.738912 0.02 0 0.742513 0.02 0 0.74647 0.02 0 0.750768 0.02 0 0.755356 0.02 0 0.760148 0.02 0 0.765057 0.02 0 0.770021 0.02 0 0.775008 0.02 0 0.780003 0.02 0 0.785001 0.02 0 0.79 0.02 0 0.795 0.02 0 0.8 0.02 0 0.805 0.02 0 0.81 0.02 0 0.815 0.02 0 0.82 0.02 0 0.825 0.02 0 0.83 0.02 0 0.835 0.02 0 0.84 0.02 0 0.845 0.02 0 0.85 0.02 0 0.855 0.02 0 0.86 0.02 0 0.865 0.02 0 0.87 0.02 0 0.875 0.02 0 0.88 0.02 0 0.885 0.02 0 0.89 0.02 0 0.895 0.02 0 0.9 0.02 0 0.905 0.02 0 0.91 0.02 0 0.915 0.02 0 0.92 0.02 0 0.925 0.02 0 0.93 0.02 0 0.935 0.02 0 0.94 0.02 0 0.945 0.02 0 0.95 0.02 0 0.955 0.02 0 0.96 0.02 0 0.965 0.02 0 0.97 0.02 0 0.975 0.02 0 0.98 0.02 0 0.985 0.02 0 0.99 0.02 0 0.995 0.02 0 1 0.02 0 0 0.04 0 0.005 0.04 0 0.01 0.04 0 0.015 0.04 0 0.02 0.04 0 0.025 0.04 0 0.03 0.04 0 0.035 0.04 0 0.04 0.04 0 0.045 0.04 0 0.05 0.04 0 0.055 0.04 0 0.06 0.04 0 0.065 0.04 0 0.07 0.04 0 0.075 0.04 0 0.08 0.04 0 0.085 0.04 0 0.09 0.04 0 0.095 0.04 0 0.1 0.04 0 0.105 0.04 0 0.11 0.04 0 0.115 0.04 0 0.12 0.04 0 0.125 0.04 0 0.13 0.04 0 0.135 0.04 0 0.14 0.04 0 0.145 0.04 0 0.15 0.04 0 0.155 0.04 0 0.16 0.04 0 0.165 0.04 0 0.17 0.04 0 0.175 0.04 0 0.18 0.04 0 0.185 0.04 0 0.19 0.04 0 0.195 0.04 0 0.2 0.04 0 0.205 0.04 0 0.21 0.04 0 0.215 0.04 0 0.22 0.04 0 0.225 0.04 0 0.23 0.04 0 0.235 0.04 0 0.24 0.04 0 0.245 0.04 0 0.25 0.04 0 0.255 0.04 0 0.26 0.04 0 0.265 0.04 0 0.27 0.04 0 0.275 0.04 0 0.28 0.04 0 0.285 0.04 0 0.29 0.04 0 0.295 0.04 0 0.3 0.04 0 0.305 0.04 0 0.31 0.04 0 0.315001 0.04 0 0.320003 0.04 0 0.325011 0.04 0 0.330029 0.04 0 0.335071 0.04 0 0.340157 0.04 0 0.345309 0.04 0 0.350555 0.04 0 0.355916 0.04 0 0.361412 0.04 0 0.367058 0.04 0 0.372869 0.04 0 0.378858 0.04 0 0.38504 0.04 0 0.391432 0.04 0 0.39805 0.04 0 0.404913 0.04 0 0.412044 0.04 0 0.419466 0.04 0 0.427208 0.04 0 0.435299 0.04 0 0.443777 0.04 0 0.452682 0.04 0 0.462061 0.04 0 0.471965 0.04 0 0.482447 0.04 0 0.493551 0.04 0 0.505272 0.04 0 0.517433 0.04 0 0.529598 0.04 0 0.54163 0.04 0 0.553537 0.04 0 0.565355 0.04 0 0.577124 0.04 0 0.588871 0.04 0 0.60061 0.04 0 0.612347 0.04 0 0.624095 0.04 0 0.626705 0.04 0 0.629241 0.04 0 0.631733 0.04 0 0.634194 0.04 0 0.636634 0.04 0 0.639058 0.04 0 0.641474 0.04 0 0.643887 0.04 0 0.6463 0.04 0 0.648699 0.04 0 0.651086 0.04 0 0.653467 0.04 0 0.655845 0.04 0 0.658221 0.04 0 0.660594 0.04 0 0.662964 0.04 0 0.665334 0.04 0 0.667702 0.04 0 0.670067 0.04 0 0.672431 0.04 0 0.674793 0.04 0 0.677157 0.04 0 0.679521 0.04 0 0.681885 0.04 0 0.684248 0.04 0 0.686611 0.04 0 0.688973 0.04 0 0.691335 0.04 0 0.693699 0.04 0 0.696063 0.04 0 0.698428 0.04 0 0.700793 0.04 0 0.703157 0.04 0 0.705521 0.04 0 0.707886 0.04 0 0.71025 0.04 0 0.712617 0.04 0 0.714981 0.04 0 0.717355 0.04 0 0.719749 0.04 0 0.722152 0.04 0 0.724618 0.04 0 0.727173 0.04 0 0.729811 0.04 0 0.732627 0.04 0 0.735627 0.04 0 0.738912 0.04 0 0.742513 0.04 0 0.74647 0.04 0 0.750768 0.04 0 0.755356 0.04 0 0.760148 0.04 0 0.765057 0.04 0 0.770021 0.04 0 0.775008 0.04 0 0.780003 0.04 0 0.785001 0.04 0 0.79 0.04 0 0.795 0.04 0 0.8 0.04 0 0.805 0.04 0 0.81 0.04 0 0.815 0.04 0 0.82 0.04 0 0.825 0.04 0 0.83 0.04 0 0.835 0.04 0 0.84 0.04 0 0.845 0.04 0 0.85 0.04 0 0.855 0.04 0 0.86 0.04 0 0.865 0.04 0 0.87 0.04 0 0.875 0.04 0 0.88 0.04 0 0.885 0.04 0 0.89 0.04 0 0.895 0.04 0 0.9 0.04 0 0.905 0.04 0 0.91 0.04 0 0.915 0.04 0 0.92 0.04 0 0.925 0.04 0 0.93 0.04 0 0.935 0.04 0 0.94 0.04 0 0.945 0.04 0 0.95 0.04 0 0.955 0.04 0 0.96 0.04 0 0.965 0.04 0 0.97 0.04 0 0.975 0.04 0 0.98 0.04 0 0.985 0.04 0 0.99 0.04 0 0.995 0.04 0 1 0.04 0 0 0.06 0 0.005 0.06 0 0.01 0.06 0 0.015 0.06 0 0.02 0.06 0 0.025 0.06 0 0.03 0.06 0 0.035 0.06 0 0.04 0.06 0 0.045 0.06 0 0.05 0.06 0 0.055 0.06 0 0.06 0.06 0 0.065 0.06 0 0.07 0.06 0 0.075 0.06 0 0.08 0.06 0 0.085 0.06 0 0.09 0.06 0 0.095 0.06 0 0.1 0.06 0 0.105 0.06 0 0.11 0.06 0 0.115 0.06 0 0.12 0.06 0 0.125 0.06 0 0.13 0.06 0 0.135 0.06 0 0.14 0.06 0 0.145 0.06 0 0.15 0.06 0 0.155 0.06 0 0.16 0.06 0 0.165 0.06 0 0.17 0.06 0 0.175 0.06 0 0.18 0.06 0 0.185 0.06 0 0.19 0.06 0 0.195 0.06 0 0.2 0.06 0 0.205 0.06 0 0.21 0.06 0 0.215 0.06 0 0.22 0.06 0 0.225 0.06 0 0.23 0.06 0 0.235 0.06 0 0.24 0.06 0 0.245 0.06 0 0.25 0.06 0 0.255 0.06 0 0.26 0.06 0 0.265 0.06 0 0.27 0.06 0 0.275 0.06 0 0.28 0.06 0 0.285 0.06 0 0.29 0.06 0 0.295 0.06 0 0.3 0.06 0 0.305 0.06 0 0.31 0.06 0 0.315001 0.06 0 0.320003 0.06 0 0.325011 0.06 0 0.330029 0.06 0 0.335071 0.06 0 0.340157 0.06 0 0.345309 0.06 0 0.350555 0.06 0 0.355916 0.06 0 0.361412 0.06 0 0.367058 0.06 0 0.372869 0.06 0 0.378858 0.06 0 0.38504 0.06 0 0.391432 0.06 0 0.39805 0.06 0 0.404913 0.06 0 0.412044 0.06 0 0.419466 0.06 0 0.427208 0.06 0 0.435299 0.06 0 0.443777 0.06 0 0.452682 0.06 0 0.462061 0.06 0 0.471965 0.06 0 0.482447 0.06 0 0.493551 0.06 0 0.505272 0.06 0 0.517433 0.06 0 0.529598 0.06 0 0.54163 0.06 0 0.553537 0.06 0 0.565355 0.06 0 0.577124 0.06 0 0.588871 0.06 0 0.60061 0.06 0 0.612347 0.06 0 0.624095 0.06 0 0.626705 0.06 0 0.629241 0.06 0 0.631733 0.06 0 0.634194 0.06 0 0.636634 0.06 0 0.639058 0.06 0 0.641474 0.06 0 0.643887 0.06 0 0.6463 0.06 0 0.648699 0.06 0 0.651086 0.06 0 0.653467 0.06 0 0.655845 0.06 0 0.658221 0.06 0 0.660594 0.06 0 0.662964 0.06 0 0.665334 0.06 0 0.667702 0.06 0 0.670067 0.06 0 0.672431 0.06 0 0.674793 0.06 0 0.677157 0.06 0 0.679521 0.06 0 0.681885 0.06 0 0.684248 0.06 0 0.686611 0.06 0 0.688973 0.06 0 0.691335 0.06 0 0.693699 0.06 0 0.696063 0.06 0 0.698428 0.06 0 0.700793 0.06 0 0.703157 0.06 0 0.705521 0.06 0 0.7078
[...]
			<PointData Scalars="VitesseX">
				<DataArray Name="VitesseX" type="Float32" format="ascii">
 0 0 0 0 0 0 0 0 0 0 0 0 0 0 0 0 0 0 0 0 0 0 0 0 0 0 0 0 0 0 0 0 0 0 0 0 0 0 0 0 0 0 0 0 0 0 0 0 0 0 0 0 0 0 0 0 0 0 0 0 0 0 0 0 0 0 0 0 0 0 0 0 0 0 0 0 0 0 0 0 0 0 0 0 0 0 0 0 0 0 0 0 0 0 0 0 0 0 0 0 0 0 0 0 0 0 0 0 0 0 0 0 0 0 0 0 0 0 0 0 0 0 0 0 0 0 0 0 0 0 0 0 0 0 0 0 0 0 0 0 0 0 0 0 0 0 0 0 0 0 0 0 0 0 0 0 0 0 0 0 0 0 0 0 0 0 0 0 0 0 0 0 0 0 0 0 0 0 0 0 0 0 0 0 0 0 0 0 0 0 0 0 0 0 0 0 0 0 0 0 0 0 3.45579e-16 -2.37923e-15 9.86761e-16 2.55647e-15 1.9052e-16 -3.3818e-15 7.182e-15 -2.83713e-16 6.8416e-15 7.1626e-15 -4.17673e-15 2.22026e-15 1.06981e-14 3.32561e-15 8.84917e-15 1.15603e-14 9.62759e-15 -1.80068e-16 -1.18001e-14 9.66273e-15 -5.34952e-15 4.43113e-15 -2.3251e-15 4.30838e-15 3.33151e-15 1.70819e-14 1.86293e-14 -1.87804e-14 2.32063e-14 5.98996e-15 3.89118e-15 -8.00463e-16 5.88827e-15 1.22409e-14 2.09505e-14 -1.92228e-14 2.15303e-14 -1.29765e-14 2.40347e-14 6.62529e-15 2.34753e-16 2.01828e-14 3.61102e-14 1.45798e-14 3.23602e-14 1.44778e-14 3.97894e-14 2.64816e-14 6.81645e-14 1.13754e-13 5.92144e-13 4.44076e-12 3.21656e-11 2.189e-10 1.40258e-09 8.43187e-09 4.74288e-08 2.48812e-07 1.21283e-06 5.46979e-06 2.2709e-05 8.62787e-05 0.000297861 0.000926682 0.00257439 0.00633028 0.0136961 0.0260784 0.0440751 0.0672044 0.0943408 0.124368 0.156522 0.190388 0.225781 0.26264 0.300969 0.340815 0.382246 0.425353 0.470244 0.517037 0.56586 0.616836 0.67006 0.725543 0.783072 0.841833 0.899318 0.947947 0.96628 0.954269 0.943862 0.935579 0.930758 0.928533 0.927572 0.927043 0.926634 0.926412 0.926476 0.926564 0.926728 0.926876 0.926814 0.926788 0.926726 0.926648 0.926555 0.926461 0.926368 0.926284 0.926214 0.926161 0.926126 0.926109 0.926106 0.926087 0.926065 0.926031 0.925989 0.925925 0.925834 0.925695 0.925515 0.925308 0.925123 0.924997 0.92499 0.925462 0.925545 0.925132 0.924629 0.924165 0.924692 0.92338 0.923256 0.920202 0.92183 0.917158 0.895624 0.856965 0.867847 0.773751 0.752492 0.63312 0.544203 0.414874 0.293343 0.181281 0.0966544 0.0442181 0.0179777 0.00682507 0.00250842 0.00090853 0.000326571 0.000116762 4.15395e-05 1.46992e-05 5.17012e-06 1.80611e-06 6.2614e-07 2.15248e-07 7.33179e-08 2.47271e-08 8.25159e-09 2.72294e-09 8.88065e-10 2.86168e-10 9.10671e-11 2.86323e-11 8.8709e-12 2.74045e-12 7.56841e-13 2.12529e-13 2.93962e-14 3.09793e-14 2.72036e-14 -9.16433e-14 3.80508e-14 -5.24199e-14 -1.29573e-13 -7.62401e-14 -1.06033e-13 8.01946e-14 -7.74086e-14 -8.64806e-14 -5.10913e-15 -1.3233e-13 -1.15671e-14 4.87941e-14 -8.10896e-14 6.43069e-14 -7.75181e-14 -3.78296e-14 1.07311e-13 -5.55706e-14 -3.32363e-14 0 0 -2.87392e-16 -1.07236e-15 7.55895e-16 2.18812e-15 3.14385e-15 -3.32054e-15 3.68985e-15 5.77105e-15 -1.82127e-16 6.26607e-15 -4.87258e-15 5.24146e-15 5.8374e-15 5.01812e-15 1.33446e-14 5.2191e-15 6.21197e-16 5.92834e-15 -1.16335e-14 -5.06516e-15 1.29237e-14 -1.50101e-15 6.67024e-15 -2.3912e-15 7.22319e-15 1.99683e-14 9.46444e-15 -1.84793e-16 9.74893e-15 1.45792e-14 2.94099e-15 -1.7636e-14 2.85939e-14 1.42248e-14 -1.99898e-14 1.20976e-14 6.91974e-15 -1.09957e-14 1.89513e-14 4.9346e-15 -4.52473e-15 4.76936e-14 2.81441e-14 3.92791e-14 2.73396e-14 3.22016e-14 8.2508e-14 1.81319e-14 1.12026e-13 1.41914e-13 4.61375e-13 4.38513e-12 3.21145e-11 2.18876e-10 1.40268e-09 8.4318e-09 4.74287e-08 2.48812e-07 1.21283e-06 5.46979e-06 2.2709e-05 8.62787e-05 0.000297861 0.000926682 0.00257439 0.00633028 0.0136961 0.0260784 0.0440751 0.0672044 0.0943408 0.124368 0.156522 0.190388 0.225781 0.26264 0.300969 0.340815 0.382246 0.425353 0.470244 0.517037 0.56586 0.616836 0.67006 0.725543 0.783072 0.841833 0.899318 0.947947 0.96628 0.954269 0.943862 0.935579 0.930758 0.928533 0.927572 0.927043 0.926634 0.926412 0.926476 0.926564 0.926728 0.926876 0.926814 0.926788 0.926726 0.926648 0.926555 0.926461 0.926368 0.926284 0.926214 0.926161 0.926126 0.926109 0.926106 0.926087 0.926065 0.926031 0.925989 0.925925 0.925834 0.925695 0.925515 0.925308 0.925123 0.924997 0.92499 0.925462 0.925545 0.925132 0.924629 0.924165 0.924692 0.92338 0.923256 0.920202 0.92183 0.917158 0.895624 0.856965 0.867847 0.773751 0.752492 0.63312 0.544203 0.414874 0.293343 0.181281 0.0966544 0.0442181 0.0179777 0.00682507 0.00250842 0.00090853 0.000326571 0.000116762 4.15395e-05 1.46992e-05 5.17012e-06 1.80611e-06 6.2614e-07 2.15247e-07 7.33179e-08 2.47271e-08 8.25167e-09 2.72297e-09 8.88108e-10 2.86139e-10 9.10256e-11 2.865e-11 8.93363e-12 2.77687e-12 9.13359e-13 1.72609e-13 -1.04491e-13 -7.66702e-14 -8.15768e-14 1.45969e-13 -7.41526e-14 -4.37328e-14 -1.08405e-13 -5.50985e-14 -6.09284e-14 7.6282e-14 -1.36035e-13 -3.4891e-14 -1.06924e-13 -1.6481e-14 -4.25067e-14 3.71877e-14 5.21079e-15 -8.96654e-15 -1.02156e-13 2.71132e-14 1.19232e-13 -5.74449e-14 -6.78874e-14 0 0 -1.5888e-15 1.40112e-15 -4.14777e-16 -1.21224e-15 3.49667e-15 5.0696e-15 5.60065e-15 6.7949e-16 -2.51604e-15 1.10069e-15 -3.26304e-15 7.71604e-15 3.79644e-15 5.17982e-15 5.32112e-15 -1.44915e-15 -6.41491e-15 1.0258e-14 1.50241e-15 -1.15711e-14 1.36816e-14 -4.90443e-15 8.6934e-15 -6.12805e-15 2.05645e-14 4.81892e-15 -4.52785e-15 2.03957e-14 2.04553e-14 1.14229e-14 -2.55648e-14 3.18529e-15 2.62507e-14 9.6847e-15 -2.97276e-14 2.46726e-14 -2.40491e-15 1.99922e-14 4.84176e-15 1.00173e-15 1.44042e-14 5.25472e-14 -4.39691e-15 5.64272e-14 -3.49144e-15 5.68491e-14 8.2967e-14 7.30849e-14 1.4241e-13 1.99877e-13 3.92096e-13 4.31805e-12 3.2023e-11 2.18919e-10 1.40263e-09 8.43183e-09 4.74286e-08 2.48812e-07 1.21283e-06 5.46979e-06 2.2709e-05 8.62787e-05 0.000297861 0.000926682 0.00257439 0.00633028 0.0136961 0.0260784 0.0440751 0.0672044 0.0943408 0.124368 0.156522 0.190388 0.225781 0.26264 0.300969 0.340815 0.382246 0.425353 0.470244 0.517037 0.56586 0.616836 0.67006 0.725543 0.783072 0.841833 0.899318 0.947947 0.96628 0.954269 0.943862 0.935579 0.930758 0.928533 0.927572 0.927043 0.926634 0.926412 0.926476 0.926564 0.926728 0.926876 0.926814 0.926788 0.926726 0.926648 0.926555 0.926461 0.926368 0.926284 0.926214 0.926161 0.926126 0.926109 0.926106 0.926087 0.926065 0.926031 0.925989 0.925925 0.925834 0.925695 0.925515 0.925308 0.925123 0.924997 0.92499 0.925462 0.925545 0.925132 0.924629 0.924165 0.924692 0.92338 0.923256 0.920202 0.92183 0.917158 0.895624 0.856965 0.867847 0.773751 0.752492 0.63312 0.544203 0.414874 0.293343 0.181281 0.0966544 0.0442181 0.0179777 0.00682507 0.00250842 0.00090853 0.000326571 0.000116762 4.15395e-05 1.46992e-05 5.17012e-06 1.80611e-06 6.26141e-07 2.15247e-07 7.33178e-08 2.47272e-08 8.25165e-09 2.72313e-09 8.88129e-10 2.86193e-10 9.09374e-11 2.8625e-11 8.89933e-12 2.89605e-12 7.87644e-13 1.32806e-13 1.01592e-13 -1.19763e-13 -1.2958e-13 -1.15972e-13 1.48059e-13 1.22183e-13 9.42006e-15 3.35792e-15 -9.28312e-14 -2.37383e-13 -1.06384e-14 -7.72245e-14 -1.68308e-13 1.55874e-13 -4.96893e-14 2.19318e-14 2.46069e-14 -3.8894e-14 -8.28798e-14 -1.09933e-14 7.21517e-15 6.22172e-14 2.445e-14 0 0 -2.1337e-16 1.49426e-15 3.13839e-15 4.42274e-15 3.86822e-16 1.72512e-15 8.76781e-16 4.72709e-15 1.79149e-15 -6.51656e-15 3.40043e-15 -5.47015e-15 3.78743e-15 3.21382e-15 -4.95866e-15 2.1511e-15 -6.5955e-15 1.23066e-14 -1.2232e-14 7.65532e-15 -1.37626e-14 1.19029e-14 -4.58809e-15 9.58326e-16 2.45615e-14 1.25993e-14 3.21922e-15 7.4217e-15 1.90759e-14 1.49765e-14 -3.65164e-14 2.78991e-14 -4.74869e-15 5.39242e-15 1.8269e-14 8.51878e-15 6.11347e-14 -1.11912e-14 -1.42131e-14 -8.18224e-15 3.4069e-14 2.77712e-14 6.75807e-15 2.24125e-14 2.40469e-15 3.57454e-14 7.94414e-14 1.68934e-13 1.44642e-13 1.96057e-13 5.2595e-13 4.16283e-12 3.20639e-11 2.18865e-10 1.40257e-09 8.4318e-09 4.74286e-08 2.48812e-07 1.21283e-06 5.46979e-06 2.2709e-05 8.62787e-05 0.000297861 0.000926682 0.00257439 0.00633028 0.0136961 0.0260784 0.0440751 0.0672044 0.0943408 0.124368 0.156522 0.190388 0.225781 0.26264 0.300969 0.340815 0.382246 0.425353 0.470244 0.517037 0.56586 0.616836 0.67006 0.725543 0.783072 0.841833 0.899318 0.947947 0.96628 0.954269 0.943862 0.935579 0.930758 0.928533 0.927572 0.927043 0.926634 0.926412 0.926476 0.926564 0.926728 0.926876 0.926814 0.926788 0.926726 0.926648 0.926555 0.926461 0.926368 0.926284 0.926214 0.926161 0.926126 0.926109 0.926106 0.926087 0.926065 0.926031 0.925989 0.925925 0.925834 0.925695 0.925515 0.925308 0.925123 0.924997 0.92499 0.925462 0.925545 0.925132 0.924629 0.924165 0.924692 0.92338 0.923256 0.920202 0.92183 0.917158 0.895624 0.856965 0.867847 0.773751 0.752492 0.63312 0.544203 0.414874 0.293343 0.181281 0.0966544 0.0442181 0.0179777 0.00682507 0.00250842 0.00090853 0.000326571 0.000116762 4.15395e-05 1.46992e-05 5.17012e-06 1.80611e-06 6.2614e-07 2.15248e-07 7.33179e-08 2.47272e-08 8.25159e-09 2.72301e-09 8.88287e-10 2.86056e-10 9.11994e-11 2.87466e-11 8.70474e-12 3.06338e-12 3.71548e-13 1.22579e-13 3.01867e-13 -1.35883e-14 1.1077e-13 -3.03731e-13 9.18118e-14 5.09795e-14 1.22006e-13 -1.29403e-13 1.79455e-14 -1.62016e-13 -1.41335e-13 -4.54005e-14 4.61692e-14 -3.07024e-14 -4.5456e-14 3.91009e-14 -7.27464e-14 -2.23766e-14 -3.08982e-14 1.04855e-13 1.24622e-13 -2.3091e-13 5.46586e-14 0 0 0 0 0 0 0 0 0 0 0 0 0 0 0 0 0 0 0 0 0 0 0 0 0 0 0 0 0 0 0 0 0 0 0 0 0 0 0 0 0 0 0 0 0 0 0 0 0 0 0 0 0 0 0 0 0 0 0 0 0 0 0 0 0 0 0 0 0 0 0 0 0 0 0 0 0 0 0 0 0 0 0 0 0 0 0 0 0 0 0 0 0 0 0 0 0 0 0 0 0 0 0 0 0 0 0 0 0 0 0 0 0 0 0 0 0 0 0 0 0 0 0 0 0 0 0 0 0 0 0 0 0 0 0 0 0 0 0 0 0 0 0 0 0 0 0 0 0 0 0 0 0 0 0 0 0 0 0 0 0 0 0 0 0 0 0 0 0 0 0 0 0 0 0 0 0 0 0 0 0 0 0 0 0 0 0 0 0 0 0 0 0 0 0 0 0 0 0 0 0 0
				</DataArray>
				<DataArray Name="VitesseY" type="Float32" format="ascii">
 0 0 0 0 0 0 0 0 0 0 0 0 0 0 0 0 0 0 0 0 0 0 0 0 0 0 0 0 0 0 0 0 0 0 0 0 0 0 0 0 0 0 0 0 0 0 0 0 0 0 0 0 0 0 0 0 0 0 0 0 0 0 0 0 0 0 0 0 0 0 0 0 0 0 0 0 0 0 0 0 0 0 0 0 0 0 0 0 0 0 0 0 0 0 0 0 0 0 0 0 0 0 0 0 0 0 0 0 0 0 0 0 0 0 0 0 0 0 0 0 0 0 0 0 0 0 0 0 0 0 0 0 0 0 0 0 0 0 0 0 0 0 0 0 0 0 0 0 0 0 0 0 0 0 0 0 0 0 0 0 0 0 0 0 0 0 0 0 0 0 0 0 0 0 0 0 0 0 0 0 0 0 0 0 0 0 0 0 0 0 0 0 0 0 0 0 0 0 0 0 0 0 1.4509e-15 1.18736e-15 7.99536e-16 2.62586e-15 3.24413e-15 6.47841e-16 -3.97182e-16 1.52876e-15 1.93365e-15 3.42131e-15 4.54184e-15 2.3871e-15 8.66919e-16 -5.50726e-16 -2.18547e-15 -5.14542e-16 1.89241e-15 4.45024e-15 9.22128e-16 -2.14242e-15 -4.17683e-15 -5.40348e-15 6.24019e-16 1.13318e-15 -4.66206e-15 -1.98374e-15 1.13732e-14 9.97497e-15 2.81149e-15 4.52244e-15 4.24428e-15 6.84604e-15 7.35759e-15 -7.52318e-16 -1.13704e-15 -6.87176e-15 -2.71874e-15 2.29132e-15 -8.12498e-15 -6.04942e-15 -3.58739e-15 -2.77736e-15 1.24352e-15 2.61354e-15 6.26533e-15 1.37022e-14 2.44434e-14 2.93626e-14 2.73829e-14 2.22955e-14 1.02377e-14 4.12745e-15 7.97091e-15 3.52291e-15 -3.9783e-15 -2.56948e-14 -3.99518e-14 -2.23719e-14 -3.76797e-14 -4.55128e-14 -1.3411e-14 3.5473e-15 -1.25296e-14 -3.21503e-14 -1.88801e-14 -9.76245e-15 -1.00947e-14 -2.46016e-14 -3.18757e-14 -3.06777e-14 -2.7651e-14 -2.55567e-14 3.55211e-15 -1.54978e-14 -7.90629e-14 -4.76321e-14 -2.3094e-14 -2.15966e-14 1.44322e-14 1.23897e-14 -2.84385e-14 -8.35303e-15 8.14022e-15 -2.78111e-15 2.90377e-14 5.68232e-15 -5.14399e-15 2.34701e-15 -8.31739e-15 -1.74596e-14 -1.07839e-14 2.13185e-14 3.38568e-15 -3.27588e-14 -7.8989e-14 -1.2832e-13 -1.50002e-13 -1.64882e-13 -1.7716e-13 -2.00726e-13 -3.70058e-13 -3.55785e-13 -3.34201e-13 -3.43094e-13 -3.78023e-13 -3.50824e-13 -2.73336e-13 -1.44063e-13 6.63318e-15 1.614e-13 2.57925e-13 2.71889e-13 2.39987e-13 2.08133e-13 1.66714e-13 1.16902e-13 7.69291e-14 3.63709e-14 4.87327e-15 -2.54402e-14 -4.13275e-14 -7.67471e-14 -1.1695e-13 -1.3967e-13 -1.53817e-13 -1.50433e-13 -1.96701e-13 -2.23606e-13 -2.3316e-13 -2.46281e-13 -2.48595e-13 -2.49121e-13 -2.19756e-13 -2.43461e-13 -2.7229e-13 -2.74916e-13 -3.01952e-13 -3.29355e-13 -3.20371e-13 -3.12649e-13 -3.27673e-13 -3.34963e-13 -3.24568e-13 -2.77599e-13 -2.34937e-13 -2.01584e-13 -1.68507e-13 -1.26304e-13 -8.64466e-14 -3.55849e-14 -2.29055e-14 -2.83053e-14 -4.00413e-14 -3.74417e-14 -3.55488e-14 -3.95985e-14 -4.09957e-14 -3.51181e-14 -3.45365e-14 -3.24295e-14 -3.37835e-14 -3.49289e-14 -3.53124e-14 -4.82897e-14 -3.59175e-14 -9.29535e-15 -6.77196e-17 -2.94394e-14 -7.0918e-14 -8.83773e-14 -6.14218e-14 -1.51624e-15 2.8974e-14 2.98148e-14 1.85565e-14 7.38632e-15 1.46721e-15 -5.51692e-15 2.8264e-15 1.60693e-14 4.50898e-15 -3.4101e-14 -8.03625e-14 -8.36932e-14 -7.39228e-14 -3.24397e-14 -1.14296e-15 -4.77865e-14 -3.16218e-14 -3.90395e-14 -9.03533e-14 -5.61212e-14 -1.22843e-14 -9.1509e-15 -3.50464e-14 -4.58347e-14 -4.88669e-15 1.83348e-14 -2.41182e-14 0 0 1.42903e-15 2.09214e-15 2.7538e-15 6.55871e-16 6.38281e-16 4.10076e-15 4.26115e-15 2.94655e-15 2.32013e-15 -1.05563e-15 -2.60076e-15 1.59752e-16 1.0865e-15 1.59936e-15 4.61393e-15 2.86344e-15 -3.43283e-15 -6.60085e-15 -1.60135e-15 -2.26429e-15 7.96199e-16 5.12821e-15 -2.46964e-16 -8.52094e-17 4.89476e-15 3.95879e-15 -1.10369e-14 -7.11947e-15 1.25815e-15 -1.71313e-15 5.29184e-16 -6.54107e-15 -5.58791e-15 8.76735e-15 -6.32438e-16 2.73208e-15 2.69235e-15 -5.45617e-15 4.10576e-15 2.99528e-16 -3.69572e-15 1.24171e-15 2.00502e-15 4.90155e-15 6.18122e-15 1.95185e-15 6.27372e-15 9.89307e-15 2.07846e-14 4.38986e-14 3.02709e-14 -1.01801e-14 -4.07407e-14 -5.50849e-14 -3.01587e-14 -4.01466e-15 -1.56618e-14 -3.05026e-14 -3.80447e-14 -1.50821e-14 7.11772e-15 -1.88362e-14 -2.25748e-14 -3.49752e-15 -9.58792e-15 -2.63694e-14 -4.04197e-14 -1.43284e-14 1.24495e-15 -2.67815e-14 -2.9272e-14 -1.98231e-15 -1.53073e-14 -1.6482e-14 1.3111e-14 -9.96147e-16 3.79185e-16 6.16381e-15 -2.98193e-14 -4.47227e-14 -2.07499e-14 -7.2299e-15 7.94847e-15 9.33977e-15 3.89056e-15 1.05403e-14 -1.22152e-14 1.16413e-14 8.33004e-15 -1.03651e-15 3.37701e-14 6.64679e-15 -2.1689e-14 -5.3955e-14 -1.33834e-13 -2.07547e-13 -2.48938e-13 -2.60973e-13 -2.88277e-13 -3.31814e-13 -5.0519e-13 -4.94496e-13 -5.30642e-13 -5.46796e-13 -5.44345e-13 -5.86174e-13 -5.34201e-13 -2.84033e-13 4.82385e-15 1.88577e-13 3.27821e-13 4.01099e-13 3.88956e-13 3.447e-13 2.93712e-13 2.24831e-13 1.21453e-13 5.16382e-14 -6.68761e-15 -7.154e-14 -1.05111e-13 -1.42071e-13 -1.79253e-13 -2.26989e-13 -2.93784e-13 -3.39379e-13 -3.21518e-13 -2.80863e-13 -2.97543e-13 -3.4808e-13 -3.44543e-13 -3.55093e-13 -4.55534e-13 -4.60686e-13 -4.77649e-13 -5.21109e-13 -4.95399e-13 -4.7437e-13 -4.90191e-13 -4.95571e-13 -4.74654e-13 -4.78086e-13 -5.04021e-13 -4.78643e-13 -4.19902e-13 -3.21765e-13 -2.17905e-13 -1.48917e-13 -1.18027e-13 -9.58055e-14 -6.77334e-14 -5.68384e-14 -4.09931e-14 -3.20991e-14 -4.79781e-14 -6.17059e-14 -6.54538e-14 -5.90853e-14 -4.20305e-14 -4.12597e-14 -5.71925e-14 -4.6621e-14 -3.00241e-14 -3.2112e-14 -5.53384e-14 -8.54567e-14 -8.28594e-14 -2.74188e-14 3.23423e-14 5.30983e-14 8.45183e-15 -5.72674e-14 -6.78976e-14 -4.3955e-14 1.55528e-14 5.59782e-14 1.82296e-14 -3.51993e-14 -9.76543e-14 -7.86422e-14 -3.57363e-14 -2.31487e-14 3.07057e-14 4.44661e-14 5.11668e-14 2.00982e-14 -2.68818e-14 1.78598e-14 -1.06722e-14 3.92511e-16 7.30193e-14 2.8041e-14 2.70059e-15 3.0022e-15 4.36737e-15 2.51485e-14 3.51418e-15 -1.72079e-14 1.58656e-14 0 0 4.8878e-15 4.40323e-15 4.01194e-15 4.94241e-15 4.24569e-15 3.00095e-15 5.40631e-15 5.85662e-15 4.71311e-15 6.32016e-15 6.96002e-15 5.13241e-15 4.30115e-15 3.21982e-15 -2.00984e-15 -3.36741e-15 -4.32596e-16 1.88029e-15 1.11573e-15 3.38168e-15 -9.42162e-16 -5.87199e-15 -1.09735e-15 -1.53606e-15 -4.19273e-15 -3.56264e-15 4.10429e-15 1.74848e-15 1.16868e-15 6.09118e-15 -4.13715e-15 1.05278e-15 4.73504e-15 -1.12823e-14 -5.49543e-15 -8.088e-15 -7.25071e-15 6.30236e-15 8.84777e-16 1.17625e-16 7.93451e-15 9.01662e-15 1.29215e-15 -5.45955e-15 -1.0192e-14 -7.4881e-15 -5.53586e-15 4.6754e-15 1.51294e-14 1.39678e-14 2.49031e-14 3.12043e-14 2.20677e-14 2.4205e-14 -1.06009e-15 -3.07659e-14 -3.53255e-14 -2.87046e-14 -5.91058e-15 -4.28932e-15 -2.97303e-14 -6.84804e-14 -5.94088e-14 -8.4382e-15 -8.47604e-16 4.36188e-16 2.21359e-15 -3.15773e-14 -5.1355e-14 -2.03416e-14 6.85362e-15 2.31333e-15 2.76839e-14 4.3671e-14 1.36172e-14 -7.56344e-16 -7.32224e-15 -1.46144e-14 -7.17175e-15 -4.34714e-15 -1.28941e-14 -3.15735e-14 -4.03252e-14 -3.94185e-14 -2.40979e-14 1.9954e-14 4.88374e-14 4.17195e-14 3.75559e-14 1.61596e-14 1.42941e-14 3.5183e-14 -2.52821e-15 -7.6596e-14 -1.42079e-13 -1.97409e-13 -2.41574e-13 -2.66941e-13 -2.76145e-13 -3.24477e-13 -5.55248e-13 -5.67593e-13 -5.41095e-13 -5.46257e-13 -5.80925e-13 -5.71555e-13 -4.41355e-13 -2.41171e-13 -4.85769e-14 2.06387e-13 3.94235e-13 4.10189e-13 3.39755e-13 2.80469e-13 2.32881e-13 1.52019e-13 8.41264e-14 4.70731e-14 1.34422e-15 -5.7006e-14 -1.36709e-13 -1.92392e-13 -1.84587e-13 -1.91886e-13 -2.10009e-13 -2.19575e-13 -2.54267e-13 -3.24585e-13 -3.54088e-13 -3.63425e-13 -4.41441e-13 -4.95525e-13 -4.28735e-13 -4.41308e-13 -4.63886e-13 -4.39909e-13 -5.00007e-13 -4.56069e-13 -3.82579e-13 -4.17215e-13 -4.39318e-13 -4.45886e-13 -4.41604e-13 -3.94666e-13 -3.79193e-13 -3.12337e-13 -2.59325e-13 -1.96146e-13 -1.2572e-13 -7.74949e-14 -8.70359e-14 -8.69087e-14 -8.20837e-14 -1.18129e-13 -1.07087e-13 -7.82581e-14 -7.48434e-14 -1.14032e-13 -1.2542e-13 -1.02823e-13 -8.59267e-14 -8.70817e-14 -1.02195e-13 -7.61208e-14 -6.51941e-14 -3.34261e-14 -1.71011e-14 -3.80113e-14 -5.278e-14 -5.48936e-14 -1.87462e-14 1.85268e-14 1.41023e-14 1.16693e-14 -4.94448e-14 -1.31114e-13 -5.20286e-14 4.21676e-14 8.18748e-14 -1.46723e-14 -6.74083e-14 1.70299e-14 3.40383e-14 6.44592e-14 6.44611e-14 9.31841e-15 9.04466e-15 -1.48624e-14 -1.2303e-14 4.27305e-15 -2.69317e-14 1.24189e-14 3.87213e-14 3.59632e-14 3.19233e-14 6.41125e-15 -9.42003e-15 1.32846e-14 3.32796e-14 0 0 7.85605e-15 8.51088e-15 9.84739e-15 1.11769e-14 1.25688e-14 1.21639e-14 7.67729e-15 7.14317e-15 1.03449e-14 7.93703e-15 7.0852e-15 7.23119e-15 4.82066e-15 5.32354e-15 7.39311e-15 7.44175e-15 5.35686e-15 3.39752e-15 1.22006e-15 2.21055e-16 2.5699e-15 4.91128e-15 8.01667e-16 -1.03174e-16 5.23022e-15 7.67439e-15 3.87991e-15 4.88257e-15 1.88947e-15 -2.59193e-15 5.68598e-15 4.11401e-15 -1.22158e-15 5.9911e-15 1.11561e-14 2.17235e-14 3.27367e-14 2.72892e-14 2.00276e-14 1.38128e-14 8.57342e-15 6.29514e-15 1.05858e-14 1.16451e-14 9.29472e-15 2.73813e-15 -5.26456e-15 7.59605e-15 2.16183e-14 2.2215e-14 4.40273e-14 3.21688e-14 1.28178e-14 7.43352e-15 3.70485e-15 1.18932e-14 1.06813e-14 -4.09427e-15 -3.24667e-14 -6.40185e-14 -7.72535e-14 -2.58634e-14 7.62949e-16 -3.44259e-14 -3.35192e-14 -3.39414e-14 -1.54609e-14 4.66573e-15 -7.38749e-15 -6.55721e-15 -1.89107e-14 -1.30711e-14 -4.33033e-14 -6.41039e-14 -2.03572e-14 -9.02335e-15 -1.06848e-14 1.96977e-14 2.57091e-14 1.58559e-14 5.40965e-16 -1.26896e-14 -8.56843e-15 1.43831e-14 1.26114e-14 -1.24118e-14 -1.5208e-14 -2.91438e-14 -2.17725e-14 2.98735e-14 4.65753e-14 2.61894e-14 7.35544e-15 -4.06313e-14 -9.02663e-14 -1.3198e-13 -1.5181e-13 -1.6814e-13 -1.94066e-13 -2.02392e-13 -3.35445e-13 -3.18303e-13 -3.45238e-13 -3.68011e-13 -3.58991e-13 -3.47065e-13 -3.5041e-13 -1.87499e-13 -2.67055e-14 6.64277e-14 1.81761e-13 1.55221e-13 1.80867e-13 2.34125e-13 1.40209e-13 6.3376e-14 4.06808e-14 -3.57367e-16 -4.41998e-14 -3.24194e-14 -2.0079e-14 -6.21972e-14 -1.3655e-13 -2.0388e-13 -2.22761e-13 -2.29753e-13 -2.32752e-13 -2.91298e-13 -2.86774e-13 -2.40192e-13 -2.27601e-13 -1.40026e-13 -1.83042e-13 -2.08787e-13 -2.30817e-13 -3.26415e-13 -2.97665e-13 -3.12799e-13 -4.06482e-13 -3.59811e-13 -3.09275e-13 -3.24017e-13 -2.5695e-13 -1.57972e-13 -1.13809e-13 -1.60281e-13 -1.35462e-13 -1.34461e-13 -1.291e-13 -1.01405e-13 -9.16423e-14 -4.08056e-14 -7.42867e-14 -7.03755e-14 -5.71673e-14 -5.85984e-14 -5.76818e-14 -3.11508e-14 -1.44989e-14 -3.55011e-14 -3.0271e-14 2.93062e-15 3.3722e-14 7.69723e-15 2.84839e-14 1.99569e-14 -7.87908e-15 -3.2035e-14 -8.95311e-15 -1.45718e-15 -6.02583e-15 5.2646e-14 3.88517e-14 3.46922e-14 3.36218e-14 8.70946e-15 -2.29199e-14 -4.04695e-14 6.56712e-15 1.16307e-13 1.07855e-13 -8.50262e-15 -1.52243e-14 -5.06096e-14 -5.61012e-14 4.54696e-14 3.18708e-14 3.11146e-14 8.999e-14 8.03567e-14 6.60806e-14 3.19211e-14 -1.43856e-14 -3.18388e-14 -1.07044e-14 5.68144e-14 1.30912e-13 6.43393e-14 -2.14438e-14 0 0 0 0 0 0 0 0 0 0 0 0 0 0 0 0 0 0 0 0 0 0 0 0 0 0 0 0 0 0 0 0 0 0 0 0 0 0 0 0 0 0 0 0 0 0 0 0 0 