<?xml version="1.0"?>
<VTKFile type="PolyData">
	<PolyData>
		<Piece NumberOfPoints="1206" NumberOfPolys="1000">
			<Points>
				<DataArray type="Float32" NumberOfComponents="3" format="ascii">
 0 0 0 0.005 0 0 0.01 0 0 0.015 0 0 0.02 0 0 0.025 0 0 0.03 0 0 0.035 0 0 0.04 0 0 0.045 0 0 0.05 0 0 0.055 0 0 0.06 0 0 0.065 0 0 0.07 0 0 0.075 0 0 0.08 0 0 0.085 0 0 0.09 0 0 0.095 0 0 0.1 0 0 0.105 0 0 0.11 0 0 0.115 0 0 0.12 0 0 0.125 0 0 0.13 0 0 0.135 0 0 0.14 0 0 0.145 0 0 0.15 0 0 0.155 0 0 0.16 0 0 0.165 0 0 0.17 0 0 0.175 0 0 0.18 0 0 0.185 0 0 0.19 0 0 0.195 0 0 0.2 0 0 0.205 0 0 0.21 0 0 0.215 0 0 0.22 0 0 0.225 0 0 0.23 0 0 0.235 0 0 0.24 0 0 0.245 0 0 0.25 0 0 0.255 0 0 0.26 0 0 0.265 0 0 0.27 0 0 0.275 0 0 0.28 0 0 0.285 0 0 0.29 0 0 0.295 0 0 0.3 0 0 0.305 0 0 0.31 0 0 0.315 0 0 0.32 0 0 0.325 0 0 0.33 0 0 0.335 0 0 0.34 0 0 0.345 0 0 0.35 0 0 0.355 0 0 0.36 0 0 0.365 0 0 0.37 0 0 0.375 0 0 0.38 0 0 0.385 0 0 0.39 0 0 0.395 0 0 0.4 0 0 0.405 0 0 0.41 0 0 0.415 0 0 0.420001 0 0 0.425006 0 0 0.430025 0 0 0.43509 0 0 0.440267 0 0 0.44565 0 0 0.451347 0 0 0.457465 0 0 0.464111 0 0 0.471415 0 0 0.479543 0 0 0.488714 0 0 0.499192 0 0 0.5111 0 0 0.523577 0 0 0.535663 0 0 0.547539 0 0 0.550161 0 0 0.552709 0 0 0.555213 0 0 0.557688 0 0 0.560142 0 0 0.562584 0 0 0.56502 0 0 0.567456 0 0 0.569897 0 0 0.572322 0 0 0.574739 0 0 0.577155 0 0 0.579613 0 0 0.582142 0 0 0.584777 0 0 0.587552 0 0 0.590542 0 0 0.593798 0 0 0.597391 0 0 0.60135 0 0 0.605667 0 0 0.610284 0 0 0.615105 0 0 0.620035 0 0 0.625011 0 0 0.630003 0 0 0.635001 0 0 0.64 0 0 0.645 0 0 0.65 0 0 0.655 0 0 0.66 0 0 0.665 0 0 0.67 0 0 0.675 0 0 0.68 0 0 0.685 0 0 0.69 0 0 0.695 0 0 0.7 0 0 0.705 0 0 0.71 0 0 0.715 0 0 0.72 0 0 0.725 0 0 0.73 0 0 0.735 0 0 0.74 0 0 0.745 0 0 0.75 0 0 0.755 0 0 0.76 0 0 0.765 0 0 0.77 0 0 0.775 0 0 0.78 0 0 0.785 0 0 0.79 0 0 0.795 0 0 0.8 0 0 0.805 0 0 0.81 0 0 0.815 0 0 0.82 0 0 0.825 0 0 0.83 0 0 0.835 0 0 0.84 0 0 0.845 0 0 0.85 0 0 0.855 0 0 0.86 0 0 0.865 0 0 0.87 0 0 0.875 0 0 0.88 0 0 0.885 0 0 0.89 0 0 0.895 0 0 0.9 0 0 0.905 0 0 0.91 0 0 0.915 0 0 0.92 0 0 0.925 0 0 0.93 0 0 0.935 0 0 0.94 0 0 0.945 0 0 0.95 0 0 0.955 0 0 0.96 0 0 0.965 0 0 0.97 0 0 0.975 0 0 0.98 0 0 0.985 0 0 0.99 0 0 0.995 0 0 1 0 0 0 0.02 0 0.005 0.02 0 0.01 0.02 0 0.015 0.02 0 0.02 0.02 0 0.025 0.02 0 0.03 0.02 0 0.035 0.02 0 0.04 0.02 0 0.045 0.02 0 0.05 0.02 0 0.055 0.02 0 0.06 0.02 0 0.065 0.02 0 0.07 0.02 0 0.075 0.02 0 0.08 0.02 0 0.085 0.02 0 0.09 0.02 0 0.095 0.02 0 0.1 0.02 0 0.105 0.02 0 0.11 0.02 0 0.115 0.02 0 0.12 0.02 0 0.125 0.02 0 0.13 0.02 0 0.135 0.02 0 0.14 0.02 0 0.145 0.02 0 0.15 0.02 0 0.155 0.02 0 0.16 0.02 0 0.165 0.02 0 0.17 0.02 0 0.175 0.02 0 0.18 0.02 0 0.185 0.02 0 0.19 0.02 0 0.195 0.02 0 0.2 0.02 0 0.205 0.02 0 0.21 0.02 0 0.215 0.02 0 0.22 0.02 0 0.225 0.02 0 0.23 0.02 0 0.235 0.02 0 0.24 0.02 0 0.245 0.02 0 0.25 0.02 0 0.255 0.02 0 0.26 0.02 0 0.265 0.02 0 0.27 0.02 0 0.275 0.02 0 0.28 0.02 0 0.285 0.02 0 0.29 0.02 0 0.295 0.02 0 0.3 0.02 0 0.305 0.02 0 0.31 0.02 0 0.315 0.02 0 0.32 0.02 0 0.325 0.02 0 0.33 0.02 0 0.335 0.02 0 0.34 0.02 0 0.345 0.02 0 0.35 0.02 0 0.355 0.02 0 0.36 0.02 0 0.365 0.02 0 0.37 0.02 0 0.375 0.02 0 0.38 0.02 0 0.385 0.02 0 0.39 0.02 0 0.395 0.02 0 0.4 0.02 0 0.405 0.02 0 0.41 0.02 0 0.415 0.02 0 0.420001 0.02 0 0.425006 0.02 0 0.430025 0.02 0 0.43509 0.02 0 0.440267 0.02 0 0.44565 0.02 0 0.451347 0.02 0 0.457465 0.02 0 0.464111 0.02 0 0.471415 0.02 0 0.479543 0.02 0 0.488714 0.02 0 0.499192 0.02 0 0.5111 0.02 0 0.523577 0.02 0 0.535663 0.02 0 0.547539 0.02 0 0.550161 0.02 0 0.552709 0.02 0 0.555213 0.02 0 0.557688 0.02 0 0.560142 0.02 0 0.562584 0.02 0 0.56502 0.02 0 0.567456 0.02 0 0.569897 0.02 0 0.572322 0.02 0 0.574739 0.02 0 0.577155 0.02 0 0.579613 0.02 0 0.582142 0.02 0 0.584777 0.02 0 0.587552 0.02 0 0.590542 0.02 0 0.593798 0.02 0 0.597391 0.02 0 0.60135 0.02 0 0.605667 0.02 0 0.610284 0.02 0 0.615105 0.02 0 0.620035 0.02 0 0.625011 0.02 0 0.630003 0.02 0 0.635001 0.02 0 0.64 0.02 0 0.645 0.02 0 0.65 0.02 0 0.655 0.02 0 0.66 0.02 0 0.665 0.02 0 0.67 0.02 0 0.675 0.02 0 0.68 0.02 0 0.685 0.02 0 0.69 0.02 0 0.695 0.02 0 0.7 0.02 0 0.705 0.02 0 0.71 0.02 0 0.715 0.02 0 0.72 0.02 0 0.725 0.02 0 0.73 0.02 0 0.735 0.02 0 0.74 0.02 0 0.745 0.02 0 0.75 0.02 0 0.755 0.02 0 0.76 0.02 0 0.765 0.02 0 0.77 0.02 0 0.775 0.02 0 0.78 0.02 0 0.785 0.02 0 0.79 0.02 0 0.795 0.02 0 0.8 0.02 0 0.805 0.02 0 0.81 0.02 0 0.815 0.02 0 0.82 0.02 0 0.825 0.02 0 0.83 0.02 0 0.835 0.02 0 0.84 0.02 0 0.845 0.02 0 0.85 0.02 0 0.855 0.02 0 0.86 0.02 0 0.865 0.02 0 0.87 0.02 0 0.875 0.02 0 0.88 0.02 0 0.885 0.02 0 0.89 0.02 0 0.895 0.02 0 0.9 0.02 0 0.905 0.02 0 0.91 0.02 0 0.915 0.02 0 0.92 0.02 0 0.925 0.02 0 0.93 0.02 0 0.935 0.02 0 0.94 0.02 0 0.945 0.02 0 0.95 0.02 0 0.955 0.02 0 0.96 0.02 0 0.965 0.02 0 0.97 0.02 0 0.975 0.02 0 0.98 0.02 0 0.985 0.02 0 0.99 0.02 0 0.995 0.02 0 1 0.02 0 0 0.04 0 0.005 0.04 0 0.01 0.04 0 0.015 0.04 0 0.02 0.04 0 0.025 0.04 0 0.03 0.04 0 0.035 0.04 0 0.04 0.04 0 0.045 0.04 0 0.05 0.04 0 0.055 0.04 0 0.06 0.04 0 0.065 0.04 0 0.07 0.04 0 0.075 0.04 0 0.08 0.04 0 0.085 0.04 0 0.09 0.04 0 0.095 0.04 0 0.1 0.04 0 0.105 0.04 0 0.11 0.04 0 0.115 0.04 0 0.12 0.04 0 0.125 0.04 0 0.13 0.04 0 0.135 0.04 0 0.14 0.04 0 0.145 0.04 0 0.15 0.04 0 0.155 0.04 0 0.16 0.04 0 0.165 0.04 0 0.17 0.04 0 0.175 0.04 0 0.18 0.04 0 0.185 0.04 0 0.19 0.04 0 0.195 0.04 0 0.2 0.04 0 0.205 0.04 0 0.21 0.04 0 0.215 0.04 0 0.22 0.04 0 0.225 0.04 0 0.23 0.04 0 0.235 0.04 0 0.24 0.04 0 0.245 0.04 0 0.25 0.04 0 0.255 0.04 0 0.26 0.04 0 0.265 0.04 0 0.27 0.04 0 0.275 0.04 0 0.28 0.04 0 0.285 0.04 0 0.29 0.04 0 0.295 0.04 0 0.3 0.04 0 0.305 0.04 0 0.31 0.04 0 0.315 0.04 0 0.32 0.04 0 0.325 0.04 0 0.33 0.04 0 0.335 0.04 0 0.34 0.04 0 0.345 0.04 0 0.35 0.04 0 0.355 0.04 0 0.36 0.04 0 0.365 0.04 0 0.37 0.04 0 0.375 0.04 0 0.38 0.04 0 0.385 0.04 0 0.39 0.04 0 0.395 0.04 0 0.4 0.04 0 0.405 0.04 0 0.41 0.04 0 0.415 0.04 0 0.420001 0.04 0 0.425006 0.04 0 0.430025 0.04 0 0.43509 0.04 0 0.440267 0.04 0 0.44565 0.04 0 0.451347 0.04 0 0.457465 0.04 0 0.464111 0.04 0 0.471415 0.04 0 0.479543 0.04 0 0.488714 0.04 0 0.499192 0.04 0 0.5111 0.04 0 0.523577 0.04 0 0.535663 0.04 0 0.547539 0.04 0 0.550161 0.04 0 0.552709 0.04 0 0.555213 0.04 0 0.557688 0.04 0 0.560142 0.04 0 0.562584 0.04 0 0.56502 0.04 0 0.567456 0.04 0 0.569897 0.04 0 0.572322 0.04 0 0.574739 0.04 0 0.577155 0.04 0 0.579613 0.04 0 0.582142 0.04 0 0.584777 0.04 0 0.587552 0.04 0 0.590542 0.04 0 0.593798 0.04 0 0.597391 0.04 0 0.60135 0.04 0 0.605667 0.04 0 0.610284 0.04 0 0.615105 0.04 0 0.620035 0.04 0 0.625011 0.04 0 0.630003 0.04 0 0.635001 0.04 0 0.64 0.04 0 0.645 0.04 0 0.65 0.04 0 0.655 0.04 0 0.66 0.04 0 0.665 0.04 0 0.67 0.04 0 0.675 0.04 0 0.68 0.04 0 0.685 0.04 0 0.69 0.04 0 0.695 0.04 0 0.7 0.04 0 0.705 0.04 0 0.71 0.04 0 0.715 0.04 0 0.72 0.04 0 0.725 0.04 0 0.73 0.04 0 0.735 0.04 0 0.74 0.04 0 0.745 0.04 0 0.75 0.04 0 0.755 0.04 0 0.76 0.04 0 0.765 0.04 0 0.77 0.04 0 0.775 0.04 0 0.78 0.04 0 0.785 0.04 0 0.79 0.04 0 0.795 0.04 0 0.8 0.04 0 0.805 0.04 0 0.81 0.04 0 0.815 0.04 0 0.82 0.04 0 0.825 0.04 0 0.83 0.04 0 0.835 0.04 0 0.84 0.04 0 0.845 0.04 0 0.85 0.04 0 0.855 0.04 0 0.86 0.04 0 0.865 0.04 0 0.87 0.04 0 0.875 0.04 0 0.88 0.04 0 0.885 0.04 0 0.89 0.04 0 0.895 0.04 0 0.9 0.04 0 0.905 0.04 0 0.91 0.04 0 0.915 0.04 0 0.92 0.04 0 0.925 0.04 0 0.93 0.04 0 0.935 0.04 0 0.94 0.04 0 0.945 0.04 0 0.95 0.04 0 0.955 0.04 0 0.96 0.04 0 0.965 0.04 0 0.97 0.04 0 0.975 0.04 0 0.98 0.04 0 0.985 0.04 0 0.99 0.04 0 0.995 0.04 0 1 0.04 0 0 0.06 0 0.005 0.06 0 0.01 0.06 0 0.015 0.06 0 0.02 0.06 0 0.025 0.06 0 0.03 0.06 0 0.035 0.06 0 0.04 0.06 0 0.045 0.06 0 0.05 0.06 0 0.055 0.06 0 0.06 0.06 0 0.065 0.06 0 0.07 0.06 0 0.075 0.06 0 0.08 0.06 0 0.085 0.06 0 0.09 0.06 0 0.095 0.06 0 0.1 0.06 0 0.105 0.06 0 0.11 0.06 0 0.115 0.06 0 0.12 0.06 0 0.125 0.06 0 0.13 0.06 0 0.135 0.06 0 0.14 0.06 0 0.145 0.06 0 0.15 0.06 0 0.155 0.06 0 0.16 0.06 0 0.165 0.06 0 0.17 0.06 0 0.175 0.06 0 0.18 0.06 0 0.185 0.06 0 0.19 0.06 0 0.195 0.06 0 0.2 0.06 0 0.205 0.06 0 0.21 0.06 0 0.215 0.06 0 0.22 0.06 0 0.225 0.06 0 0.23 0.06 0 0.235 0.06 0 0.24 0.06 0 0.245 0.06 0 0.25 0.06 0 0.255 0.06 0 0.26 0.06 0 0.265 0.06 0 0.27 0.06 0 0.275 0.06 0 0.28 0.06 0 0.285 0.06 0 0.29 0.06 0 0.295 0.06 0 0.3 0.06 0 0.305 0.06 0 0.31 0.06 0 0.315 0.06 0 0.32 0.06 0 0.325 0.06 0 0.33 0.06 0 0.335 0.06 0 0.34 0.06 0 0.345 0.06 0 0.35 0.06 0 0.355 0.06 0 0.36 0.06 0 0.365 0.06 0 0.37 0.06 0 0.375 0.06 0 0.38 0.06 0 0.385 0.06 0 0.39 0.06 0 0.395 0.06 0 0.4 0.06 0 0.405 0.06 0 0.41 0.06 0 0.415 0.06 0 0.420001 0.06 0 0.425006 0.06 0 0.430025 0.06 0 0.43509 0.06 0 0.440267 0.06 0 0.44565 0.06 0 0.451347 0.06 0 0.457465 0.06 0 0.464111 0.06 0 0.471415 0.06 0 0.479543 0.06 0 0.488714 0.06 0 0.499192 0.06 0 0.5111 0.06 0 0.523577 0.06 0 0.535663 0.06 0 0.547539 0.06 0 0.550161 0.06 0 0.552709 0.06 0 0.555213 0.06 0 0.557688 0.06 0 0.560142 0.06 0 0.562584 0.06 0 0.56502 0.06 0 0.567456 0.06 0 0.569897 0.06 0 0.572322 0.06 0 0.574739 0.06 0 0.577155 0.06 0 0.579613 0.06 0 0.582142 0.06 0 0.584777 0.06 0 0.587552 0.06 0 0.590542 0.06 0 0.593798 0.06 0 0.597391 0.06 0 0.60135 0.06 0 0.605667 0.06 0 0.610284 0.06 0 0.615105 0.06 0 0.620035 0.06 0 0.625011 0.06 0 0.630003 0.06 0 0.635001 0.06 0 0.64 0.06 0 0.645 0.06 0 0.65 0.06 0 0.655 0.06 0 0.66 0.06 0 0.665 0.06 0 0.67 0.06 0 0.675 0.06 0 0.68 0.06 0 0.685 0.06 0 0.69 0.06 0 0.695 0.06 0 0.7 0.06 0 0.705 0.06 0 0.71 0.06 0 0.715 0.06 0 0.72 0.06 0 0.725 0.06 0 0.73 0.06 0 0.735 0.06 0 0.74 0.06 0 0.745 0.06 0 0.75 0.06 0 0.755 0.06 0 0.76 0.06 0 0.765 0.06 0 0.77 0.06 0 0.775 0.06 0 0.78 0.06 0 0.785 0.06 0 0.79 0.06 0 0.795 0.06 0 0.8 0.06 0 0.805 0.06 0 0.81 0.06 0 0.815 0.06 0 0.82 0.06 0 0.825 0.06 0 0.83 0.06 0 0.835 0.06 0 0.84 0.06 0 0.845 0.06 0 0.85 0.06 0 0.855 0.06 0 0.86 0.06 0 0.865 0.06 0 0.87 0.06 0 0.875 0.06 0 0.88 0.06 0 0.885 0.06 0 0.89 0.06 0 0.895 0.06 0 0.9 0.06 0 0.905 0.06 0 0.91 0.06 0 0.915 0.06 0 0.92 0.06 0 0.925 0.06 0 0.93
[...]
			<PointData Scalars="VitesseX">
				<DataArray Name="VitesseX" type="Float32" format="ascii">
 0 1.89983e-15 2.9494e-15 1.51048e-15 -2.09728e-15 -1.8469e-15 -1.21821e-15 3.74167e-15 -4.74403e-15 4.55767e-15 -2.05532e-15 -4.64063e-15 7.69559e-16 -3.90978e-15 1.26199e-14 -1.20377e-14 5.72855e-15 -3.93632e-15 6.11559e-15 9.83674e-15 -1.24374e-14 8.04063e-15 -6.95084e-15 -3.70095e-15 1.08717e-14 1.9951e-14 -2.44951e-14 2.00233e-14 -1.13604e-14 1.55291e-15 -1.08439e-14 2.07373e-14 -2.55972e-14 2.39844e-14 2.14594e-14 -1.29724e-14 -2.47254e-14 3.34836e-14 -2.07315e-14 -1.70867e-14 1.04048e-14 3.148e-15 6.8492e-15 -2.48483e-14 1.05029e-14 9.50469e-15 -2.49452e-14 1.44163e-14 -1.03916e-14 2.49475e-14 1.13994e-14 1.17021e-14 -2.79716e-14 3.08884e-14 -2.46369e-14 4.62031e-14 -2.29376e-14 2.45511e-14 1.91153e-14 3.01247e-14 -2.76217e-14 -3.0982e-14 3.08407e-14 2.36528e-15 2.04871e-14 5.72613e-15 -1.53868e-14 3.41494e-14 -3.19554e-14 -3.70209e-15 1.00753e-14 4.37104e-15 -2.11733e-14 -2.79029e-14 1.51294e-13 3.60776e-13 7.31952e-12 1.04365e-10 1.34428e-09 1.54918e-08 1.58587e-07 1.42976e-06 1.12347e-05 7.59572e-05 0.00043473 0.00206362 0.0079345 0.0242051 0.0583145 0.113523 0.187029 0.2744 0.373275 0.483411 0.605483 0.739304 0.877925 0.981178 0.959956 0.938071 0.927833 0.927471 0.927279 0.927128 0.926928 0.926468 0.925958 0.925158 0.924086 0.922949 0.915712 0.916634 0.896892 0.885375 0.857759 0.818763 0.741831 0.669194 0.551356 0.429185 0.296596 0.178514 0.0896746 0.0373645 0.0133937 0.00436764 0.00134439 0.000396934 0.000113029 3.10891e-05 8.2618e-06 2.12097e-06 5.2589e-07 1.25911e-07 2.91059e-08 6.49545e-09 1.39938e-09 2.91082e-10 5.8457e-11 1.14213e-11 2.11632e-12 3.51387e-13 1.92973e-15 1.20338e-13 -7.75926e-14 5.06617e-14 3.82882e-14 -2.65965e-14 2.28857e-16 1.75825e-14 -4.42915e-14 -3.71906e-14 9.79641e-14 -7.18546e-14 1.00365e-13 4.31518e-14 7.69358e-14 6.1764e-14 -4.25041e-14 -2.46293e-14 -3.93401e-15 -5.33994e-14 4.11817e-14 5.17383e-14 -1.30942e-13 1.00081e-13 8.55391e-14 -5.75455e-14 -1.01836e-13 -6.6941e-14 7.88412e-14 -8.14237e-14 1.23425e-13 -7.65087e-14 -3.5173e-15 -4.46964e-14 1.88796e-14 -1.13564e-13 4.59533e-14 -1.34078e-13 -1.14961e-14 1.04698e-13 -4.81533e-14 -3.5213e-14 1.15129e-13 -6.98226e-14 5.77515e-15 -5.55082e-14 -1.8667e-14 -7.09375e-14 -8.73652e-14 1.09333e-13 -3.34439e-15 5.99719e-15 -8.63731e-15 -2.64124e-14 -9.40256e-14 7.19408e-14 4.56037e-14 -3.42539e-14 0 0 -7.29875e-16 1.1722e-15 -1.38769e-15 -1.55483e-15 -7.51962e-16 1.12807e-15 2.65349e-15 3.03018e-15 -5.32665e-15 6.46817e-15 -6.05703e-15 4.15128e-15 7.00011e-15 -1.16183e-14 7.90268e-15 -3.06816e-16 4.76591e-15 -1.35508e-14 3.97858e-15 -1.47683e-15 1.26635e-14 -1.68634e-14 2.02954e-14 5.31492e-15 -7.21545e-16 -2.93872e-15 -4.90165e-16 5.022e-15 -1.67965e-14 -9.08271e-16 5.54538e-15 5.25262e-16 -1.16402e-15 1.82156e-14 1.47653e-15 4.65875e-15 -7.06251e-16 -1.73447e-14 1.78665e-15 -1.30761e-14 1.89192e-14 -2.15256e-15 -2.57437e-15 -2.64571e-14 2.36074e-14 7.6031e-15 -2.00024e-14 1.55126e-14 -2.70784e-14 3.50568e-14 1.89108e-14 -6.49591e-15 5.61692e-15 -4.68925e-15 1.93089e-14 -4.59858e-15 4.13863e-14 -2.28928e-14 3.65331e-14 -5.17712e-14 3.16255e-14 6.8583e-15 -1.08642e-14 3.1397e-14 -2.33895e-14 1.92458e-14 3.47444e-14 1.45846e-14 -5.93903e-14 3.23106e-14 -2.62096e-14 3.38301e-15 5.64757e-14 3.19855e-14 4.52407e-13 7.2375e-12 1.04387e-10 1.3443e-09 1.54917e-08 1.58587e-07 1.42976e-06 1.12347e-05 7.59572e-05 0.00043473 0.00206362 0.0079345 0.0242051 0.0583145 0.113523 0.187029 0.2744 0.373275 0.483411 0.605483 0.739304 0.877925 0.981178 0.959956 0.938071 0.927833 0.927471 0.927279 0.927128 0.926928 0.926468 0.925958 0.925158 0.924086 0.922949 0.915712 0.916634 0.896892 0.885375 0.857759 0.818763 0.741831 0.669194 0.551356 0.429185 0.296596 0.178514 0.0896746 0.0373645 0.0133937 0.00436764 0.00134439 0.000396934 0.000113029 3.10891e-05 8.2618e-06 2.12097e-06 5.2589e-07 1.25911e-07 2.91059e-08 6.49546e-09 1.39946e-09 2.91093e-10 5.851e-11 1.13213e-11 2.09614e-12 4.49911e-13 -2.70862e-15 -3.8981e-14 6.75949e-14 1.01316e-13 -4.52978e-14 -6.66969e-14 6.00514e-14 -2.0111e-14 -6.44109e-14 3.90317e-14 3.19984e-14 -1.83335e-14 5.29878e-14 6.76588e-14 6.78098e-14 3.60371e-14 -1.62526e-14 -3.03706e-14 5.9197e-14 -1.03677e-13 3.50768e-14 7.36529e-14 -5.37978e-14 -3.36613e-14 -2.3924e-14 9.46457e-14 -5.85688e-14 -1.15452e-13 5.51686e-14 1.00555e-13 -1.16737e-13 5.149e-14 -4.67547e-14 -2.00574e-14 -2.8844e-14 -6.29497e-14 1.41387e-14 -9.3278e-14 3.78789e-14 -9.37692e-14 1.47921e-13 -1.03698e-13 4.267e-14 5.52185e-14 -9.64327e-14 1.74662e-14 -8.4013e-14 -8.30857e-14 5.12899e-14 2.45414e-15 3.28522e-14 -9.73412e-14 3.98159e-14 -6.65864e-15 -6.07843e-14 3.84171e-14 -1.34562e-14 8.93127e-14 0 0 -8.46151e-16 -9.94794e-16 7.38258e-16 1.9e-15 2.11736e-15 -3.87635e-15 1.70557e-15 -1.08531e-15 1.27023e-15 8.76235e-16 -2.49172e-15 5.76048e-15 1.10581e-14 -9.19751e-15 6.99297e-15 -4.16336e-15 1.56103e-14 -1.23265e-14 -6.94625e-15 2.32478e-16 1.1104e-15 6.54099e-15 1.90883e-14 -9.81817e-15 -3.74676e-15 1.97094e-14 -1.36301e-14 2.26561e-15 -1.90753e-14 -1.33338e-16 8.49549e-16 1.32498e-14 6.69566e-15 -1.50964e-14 1.59552e-14 2.26753e-14 -1.27747e-14 -1.16665e-14 2.73493e-15 -1.43014e-14 2.45988e-14 -2.15409e-14 1.04233e-15 -1.22761e-15 1.19832e-14 2.28593e-14 -2.10599e-14 -1.594e-14 3.15588e-15 -1.51904e-14 2.07634e-14 6.03436e-14 -7.12183e-15 -3.21492e-14 9.12285e-15 3.75037e-14 2.81323e-15 -2.43761e-14 6.41902e-15 1.4391e-14 6.44538e-15 2.23069e-14 2.02517e-14 -4.46247e-14 4.18468e-15 -3.20041e-14 2.65755e-14 5.89624e-14 9.4973e-15 3.85286e-14 -2.17804e-14 3.68595e-15 2.94262e-14 3.56184e-14 4.1939e-13 7.24705e-12 1.04378e-10 1.34433e-09 1.54917e-08 1.58587e-07 1.42975e-06 1.12347e-05 7.59572e-05 0.00043473 0.00206362 0.0079345 0.0242051 0.0583145 0.113523 0.187029 0.2744 0.373275 0.483411 0.605483 0.739304 0.877925 0.981178 0.959956 0.938071 0.927833 0.927471 0.927279 0.927128 0.926928 0.926468 0.925958 0.925158 0.924086 0.922949 0.915712 0.916634 0.896892 0.885375 0.857759 0.818763 0.741831 0.669194 0.551356 0.429185 0.296596 0.178514 0.0896746 0.0373645 0.0133937 0.00436764 0.00134439 0.000396934 0.000113029 3.10891e-05 8.2618e-06 2.12097e-06 5.2589e-07 1.25911e-07 2.91059e-08 6.49549e-09 1.39946e-09 2.91195e-10 5.84253e-11 1.1338e-11 2.07344e-12 3.98594e-13 1.26435e-13 -7.67123e-14 7.3167e-14 3.86856e-14 3.90917e-14 -6.07149e-14 5.0715e-14 1.32323e-14 -8.60017e-14 6.53937e-14 -3.89049e-14 -1.96287e-14 3.92811e-14 5.63851e-14 -7.17173e-14 8.47379e-14 -1.96297e-14 1.58501e-13 -5.75441e-14 -4.2411e-14 3.54232e-14 1.34514e-13 -3.9089e-14 -5.75572e-14 -1.24974e-13 9.84428e-14 -3.04732e-14 -5.32125e-14 -3.91998e-14 2.73955e-14 -1.11257e-13 8.22455e-14 5.79735e-14 -3.53457e-14 -1.12773e-13 8.27138e-14 2.53228e-14 -7.18607e-14 -3.60712e-14 -1.30527e-13 1.32637e-13 -1.52678e-13 1.0127e-13 4.81453e-14 -1.1165e-13 -6.34011e-15 -1.3336e-13 6.37854e-14 5.26533e-14 -9.75488e-14 4.16854e-14 -7.37876e-14 -3.52364e-15 -2.57212e-14 -3.16578e-15 5.80902e-14 -8.86122e-14 1.10662e-13 0 0 2.45557e-15 -2.79439e-16 1.76441e-15 2.22632e-15 3.42475e-15 -2.53773e-15 -6.00835e-15 -4.17565e-15 6.90735e-15 -1.19865e-15 -6.93994e-16 3.62766e-15 5.2957e-15 4.98925e-15 -4.85567e-15 8.07951e-15 9.0509e-15 -6.10963e-15 -1.03646e-14 4.52852e-15 1.07289e-15 9.7231e-15 -3.26956e-15 -1.81535e-14 2.72095e-14 2.9901e-14 -8.31553e-15 -3.6049e-14 1.69227e-14 -1.44404e-14 4.85858e-15 -2.39902e-16 2.74787e-14 -2.82457e-14 8.60659e-15 1.65317e-14 -8.13064e-15 -9.22898e-15 -1.22871e-14 1.27894e-14 -9.43676e-15 1.29188e-15 3.81132e-15 1.5527e-14 1.14248e-14 5.74483e-15 1.06025e-14 -2.3299e-14 3.18e-14 -3.63723e-14 -2.97559e-14 6.16739e-14 5.72238e-14 -4.34424e-14 -4.82482e-14 1.22914e-13 -5.36318e-14 -1.95414e-14 6.44672e-15 2.67849e-14 -3.66126e-14 4.13533e-14 4.05332e-14 -4.65989e-14 -2.2109e-14 -7.35868e-15 4.96465e-14 5.37244e-14 9.23043e-14 -2.265e-14 6.02595e-14 -5.83299e-14 -5.16779e-14 3.43597e-14 4.53444e-13 7.28752e-12 1.04362e-10 1.34427e-09 1.54917e-08 1.58587e-07 1.42976e-06 1.12347e-05 7.59572e-05 0.00043473 0.00206362 0.0079345 0.0242051 0.0583145 0.113523 0.187029 0.2744 0.373275 0.483411 0.605483 0.739304 0.877925 0.981178 0.959956 0.938071 0.927833 0.927471 0.927279 0.927128 0.926928 0.926468 0.925958 0.925158 0.924086 0.922949 0.915712 0.916634 0.896892 0.885375 0.857759 0.818763 0.741831 0.669194 0.551356 0.429185 0.296596 0.178514 0.0896746 0.0373645 0.0133937 0.00436764 0.00134439 0.000396934 0.000113029 3.10891e-05 8.2618e-06 2.12097e-06 5.2589e-07 1.25911e-07 2.91059e-08 6.49542e-09 1.39942e-09 2.91287e-10 5.84656e-11 1.1346e-11 2.18204e-12 3.34341e-13 3.9173e-14 1.51687e-16 -4.63197e-14 1.15586e-13 -2.63296e-14 7.40738e-14 3.29181e-15 -1.65222e-14 1.82746e-14 -2.09969e-14 -8.5082e-15 -3.13896e-14 7.59328e-14 1.35799e-13 -7.88885e-15 -3.27574e-14 -6.83326e-15 1.35299e-13 -1.18394e-13 2.0784e-14 -1.1066e-13 2.88833e-13 -8.06554e-14 -1.34274e-14 -3.01302e-14 -1.16892e-14 -1.74933e-13 1.11288e-13 -2.08179e-13 -1.64388e-14 -1.00789e-14 6.77085e-14 -3.18186e-14 -1.42082e-15 -1.11927e-13 2.37861e-13 8.78668e-14 -1.42356e-13 -1.43e-13 -1.87771e-14 -1.09454e-13 -7.2285e-14 7.90885e-14 1.37589e-14 -5.55129e-14 5.21019e-15 -1.61914e-14 1.40928e-14 -5.1124e-14 8.28746e-15 -1.92186e-14 -6.35141e-14 -4.26579e-14 -1.186e-14 6.86839e-15 5.33225e-14 8.08991e-14 -1.17342e-13 0 0 7.66199e-16 9.19244e-16 -8.09662e-16 1.80426e-15 5.07936e-15 2.67456e-15 -7.31735e-15 -1.21807e-15 7.8116e-15 4.9448e-15 -7.9106e-15 5.52438e-15 4.18225e-15 -2.0608e-15 4.78147e-15 5.40605e-15 1.09402e-14 -2.97613e-15 -1.58203e-14 4.88877e-15 -8.3898e-15 -4.89723e-15 2.75648e-15 1.15394e-14 1.58091e-14 1.03419e-14 3.77591e-15 -1.66961e-14 1.65562e-14 -1.92373e-15 -1.14288e-14 2.29682e-14 -1.32467e-14 -2.45104e-14 3.35952e-15 1.10246e-14 -1.99567e-14 1.30334e-14 -1.7126e-14 1.73827e-14 -2.61383e-14 2.39987e-14 2.27216e-14 -6.90678e-16 1.9225e-14 3.58128e-15 -2.62415e-14 1.69453e-14 7.52235e-16 2.89456e-14 -4.51945e-14 2.16676e-14 4.90646e-14 -8.42401e-15 -3.12726e-14 8.67677e-14 -4.31629e-14 -3.59029e-14 4.3591e-14 -4.72377e-14 1.18581e-14 5.48928e-15 1.90374e-14 -3.90508e-16 1.4627e-15 4.5692e-14 6.95201e-14 1.0902e-13 -1.0733e-15 -7.43867e-15 7.76706e-14 -5.63029e-14 -2.33031e-14 -5.26519e-15 4.53143e-13 7.33019e-12 1.04271e-10 1.34418e-09 1.54917e-08 1.58587e-07 1.42975e-06 1.12347e-05 7.59572e-05 0.00043473 0.00206362 0.0079345 0.0242051 0.0583145 0.113523 0.187029 0.2744 0.373275 0.483411 0.605483 0.739304 0.877925 0.981178 0.959956 0.938071 0.927833 0.927471 0.927279 0.927128 0.926928 0.926468 0.925958 0.925158 0.924086 0.922949 0.915712 0.916634 0.896892 0.885375 0.857759 0.818763 0.741831 0.669194 0.551356 0.429185 0.296596 0.178514 0.0896746 0.0373645 0.0133937 0.00436764 0.00134439 0.000396934 0.000113029 3.10891e-05 8.2618e-06 2.12097e-06 5.2589e-07 1.25911e-07 2.9106e-08 6.49529e-09 1.39957e-09 2.91136e-10 5.85642e-11 1.14304e-11 2.09335e-12 5.89162e-13 -8.92982e-14 6.42126e-14 -2.23281e-13 7.39163e-14 -1.62797e-13 1.28908e-13 5.14714e-14 -3.90517e-14 4.86235e-14 4.11666e-14 5.46803e-15 -1.75213e-14 2.0957e-13 -7.15323e-15 1.0512e-13 -1.06882e-13 9.69045e-14 -9.32444e-15 -9.29278e-14 -1.46302e-13 -5.45207e-14 1.25634e-13 4.31669e-14 8.46834e-14 -4.36211e-14 -1.94519e-14 -3.31768e-13 -4.87434e-14 6.71481e-14 2.81795e-14 1.56642e-13 -7.48441e-14 -1.4184e-13 -3.89498e-14 -3.10554e-14 5.52815e-14 1.9659e-13 -1.11073e-13 -3.78649e-14 -4.39164e-14 -8.47486e-14 1.46364e-14 -4.10811e-14 1.34595e-13 -1.69569e-13 -4.21313e-14 2.78165e-14 2.23805e-14 -5.88649e-14 1.61374e-14 6.80338e-15 -1.12908e-13 -8.55112e-16 -4.18232e-14 -7.22691e-15 -5.88724e-15 1.23124e-13 -6.44487e-14 0 0 -1.71147e-15 1.01278e-15 6.14242e-16 3.96827e-15 7.20096e-15 -8.02476e-16 -7.72188e-16 -7.05985e-15 1.95599e-14 -9.52283e-16 -1.19432e-14 7.78139e-15 1.97927e-15 3.36134e-15 5.41714e-15 -7.33143e-15 2.15312e-14 1.48312e-14 -2.29244e-14 -8.29831e-15 -3.39911e-14 1.06172e-14 5.93684e-15 3.99913e-14 -8.90012e-15 -1.8317e-14 1.79262e-14 2.18326e-14 -3.7378e-15 1.57392e-14 -2.12292e-14 4.62682e-14 -4.1747e-14 -3.7694e-14 5.49079e-15 2.9363e-16 -1.43054e-14 3.51498e-14 -2.48679e-14 1.71407e-14 -1.88957e-14 1.34862e-14 2.02057e-14 2.85264e-14 1.8568e-15 1.24009e-15 -6.13865e-14 7.19172e-15 2.33207e-14 4.15406e-14 -1.54699e-14 2.56948e-14 -1.09075e-14 -9.51995e-15 5.9782e-14 -1.10251e-14 -3.16573e-14 -1.65744e-14 4.41851e-14 -4.33426e-14 1.55992e-14 -9.99018e-15 2.16054e-14 -3.91396e-14 1.08018e-13 -1.17853e-14 5.75587e-14 1.67392e-13 -5.26821e-14 5.29339e-14 4.80517e-14 -1.65134e-14 -2.52523e-14 7.93102e-14 2.94141e-13 7.42396e-12 1.04163e-10 1.34417e-09 1.54917e-08 1.58587e-07 1.42975e-06 1.12347e-05 7.59572e-05 0.00043473 0.00206362 0.0079345 0.0242051 0.0583145 0.113523 0.187029 0.2744 0.373275 0.483411 0.605483 0.739304 0.877925 0.981178 0.959956 0.938071 0.927833 0.927471 0.927279 0.927128 0.926928 0.926468 0.925958 0.925158 0.924086 0.922949 0.915712 0.916634 0.896892 0.885375 0.857759 0.818763 0.741831 0.669194 0.551356 0.429185 0.296596 0.178514 0.0896746 0.0373645 0.0133937 0.00436764 0.00134439 0.000396934 0.000113029 3.10891e-05 8.2618e-06 2.12097e-06 5.2589e-07 1.25911e-07 2.91061e-08 6.49525e-09 1.39969e-09 2.90986e-10 5.84852e-11 1.16236e-11 1.89332e-12 7.58229e-13 3.1787e-15 1.72541e-13 -4.20729e-13 -1.58222e-13 -6.62451e-14 9.51798e-14 7.80827e-14 3.92128e-14 -2.63845e-14 1.40215e-13 -1.60153e-14 -4.70604e-14 3.39909e-13 -2.65561e-13 2.33884e-14 1.05825e-14 1.58234e-13 6.38945e-14 -1.86323e-13 -2.65182e-13 1.54162e-13 -1.52529e-13 1.46082e-13 2.48221e-13 -1.43996e-13 -6.56087e-14 -3.5882e-13 -2.62292e-13 4.40985e-13 -1.38286e-13 4.67479e-13 -3.00549e-13 -1.40296e-14 -1.49913e-13 1.2932e-14 -1.87576e-13 2.85712e-13 -2.85762e-14 5.03959e-14 -1.97122e-14 -2.94973e-14 4.06948e-14 -7.62345e-15 1.5826e-13 -2.52689e-13 -1.98363e-13 -2.94648e-14 2.39743e-13 -1.00116e-13 -7.49323e-14 6.63496e-14 -4.57382e-14 -1.18166e-14 -1.24395e-13 -6.45325e-15 -7.07976e-15 -2.06213e-14 1.13931e-13 0
				</DataArray>
				<DataArray Name="VitesseY" type="Float32" format="ascii">