<?xml version="1.0"?>
<VTKFile type="PolyData">
	<PolyData>
		<Piece NumberOfPoints="1206" NumberOfPolys="1000">
			<Points>
				<DataArray type="Float32" NumberOfComponents="3" format="ascii">
 0 0 0 0.005 0 0 0.01 0 0 0.015 0 0 0.02 0 0 0.025 0 0 0.03 0 0 0.035 0 0 0.04 0 0 0.045 0 0 0.05 0 0 0.055 0 0 0.06 0 0 0.065 0 0 0.07 0 0 0.075 0 0 0.08 0 0 0.085 0 0 0.09 0 0 0.095 0 0 0.1 0 0 0.105 0 0 0.11 0 0 0.115 0 0 0.12 0 0 0.125 0 0 0.13 0 0 0.135 0 0 0.14 0 0 0.145 0 0 0.15 0 0 0.155 0 0 0.16 0 0 0.165 0 0 0.17 0 0 0.175 0 0 0.18 0 0 0.185 0 0 0.19 0 0 0.195 0 0 0.2 0 0 0.205 0 0 0.21 0 0 0.215 0 0 0.22 0 0 0.225 0 0 0.23 0 0 0.235 0 0 0.24 0 0 0.245 0 0 0.25 0 0 0.255 0 0 0.26 0 0 0.265 0 0 0.27 0 0 0.275 0 0 0.28 0 0 0.285 0 0 0.29 0 0 0.295 0 0 0.3 0 0 0.305 0 0 0.31 0 0 0.315 0 0 0.32 0 0 0.325 0 0 0.330002 0 0 0.335006 0 0 0.340018 0 0 0.345047 0 0 0.350112 0 0 0.355237 0 0 0.360451 0 0 0.365781 0 0 0.37125 0 0 0.376878 0 0 0.382682 0 0 0.388678 0 0 0.394884 0 0 0.401319 0 0 0.408003 0 0 0.41496 0 0 0.422216 0 0 0.429801 0 0 0.437749 0 0 0.446099 0 0 0.454899 0 0 0.464199 0 0 0.474059 0 0 0.48454 0 0 0.495691 0 0 0.507495 0 0 0.519708 0 0 0.531858 0 0 0.543866 0 0 0.555746 0 0 0.567546 0 0 0.579306 0 0 0.591051 0 0 0.602793 0 0 0.614544 0 0 0.617154 0 0 0.61969 0 0 0.622181 0 0 0.624642 0 0 0.627081 0 0 0.629505 0 0 0.631919 0 0 0.634333 0 0 0.636747 0 0 0.639146 0 0 0.641535 0 0 0.643917 0 0 0.646296 0 0 0.648673 0 0 0.651047 0 0 0.653418 0 0 0.655788 0 0 0.658156 0 0 0.660521 0 0 0.662884 0 0 0.665247 0 0 0.667611 0 0 0.669976 0 0 0.672341 0 0 0.674705 0 0 0.67707 0 0 0.679433 0 0 0.681797 0 0 0.684164 0 0 0.686532 0 0 0.688899 0 0 0.691265 0 0 0.693628 0 0 0.695987 0 0 0.698354 0 0 0.700732 0 0 0.70315 0 0 0.705583 0 0 0.708089 0 0 0.7107 0 0 0.713438 0 0 0.716371 0 0 0.719533 0 0 0.72301 0 0 0.726829 0 0 0.730999 0 0 0.735485 0 0 0.740209 0 0 0.745083 0 0 0.750031 0 0 0.755011 0 0 0.760004 0 0 0.765001 0 0 0.770001 0 0 0.775 0 0 0.78 0 0 0.785 0 0 0.79 0 0 0.795 0 0 0.8 0 0 0.805 0 0 0.81 0 0 0.815 0 0 0.82 0 0 0.825 0 0 0.83 0 0 0.835 0 0 0.84 0 0 0.845 0 0 0.85 0 0 0.855 0 0 0.86 0 0 0.865 0 0 0.87 0 0 0.875 0 0 0.88 0 0 0.885 0 0 0.89 0 0 0.895 0 0 0.9 0 0 0.905 0 0 0.91 0 0 0.915 0 0 0.92 0 0 0.925 0 0 0.93 0 0 0.935 0 0 0.94 0 0 0.945 0 0 0.95 0 0 0.955 0 0 0.96 0 0 0.965 0 0 0.97 0 0 0.975 0 0 0.98 0 0 0.985 0 0 0.99 0 0 0.995 0 0 1 0 0 0 0.02 0 0.005 0.02 0 0.01 0.02 0 0.015 0.02 0 0.02 0.02 0 0.025 0.02 0 0.03 0.02 0 0.035 0.02 0 0.04 0.02 0 0.045 0.02 0 0.05 0.02 0 0.055 0.02 0 0.06 0.02 0 0.065 0.02 0 0.07 0.02 0 0.075 0.02 0 0.08 0.02 0 0.085 0.02 0 0.09 0.02 0 0.095 0.02 0 0.1 0.02 0 0.105 0.02 0 0.11 0.02 0 0.115 0.02 0 0.12 0.02 0 0.125 0.02 0 0.13 0.02 0 0.135 0.02 0 0.14 0.02 0 0.145 0.02 0 0.15 0.02 0 0.155 0.02 0 0.16 0.02 0 0.165 0.02 0 0.17 0.02 0 0.175 0.02 0 0.18 0.02 0 0.185 0.02 0 0.19 0.02 0 0.195 0.02 0 0.2 0.02 0 0.205 0.02 0 0.21 0.02 0 0.215 0.02 0 0.22 0.02 0 0.225 0.02 0 0.23 0.02 0 0.235 0.02 0 0.24 0.02 0 0.245 0.02 0 0.25 0.02 0 0.255 0.02 0 0.26 0.02 0 0.265 0.02 0 0.27 0.02 0 0.275 0.02 0 0.28 0.02 0 0.285 0.02 0 0.29 0.02 0 0.295 0.02 0 0.3 0.02 0 0.305 0.02 0 0.31 0.02 0 0.315 0.02 0 0.32 0.02 0 0.325 0.02 0 0.330002 0.02 0 0.335006 0.02 0 0.340018 0.02 0 0.345047 0.02 0 0.350112 0.02 0 0.355237 0.02 0 0.360451 0.02 0 0.365781 0.02 0 0.37125 0.02 0 0.376878 0.02 0 0.382682 0.02 0 0.388678 0.02 0 0.394884 0.02 0 0.401319 0.02 0 0.408003 0.02 0 0.41496 0.02 0 0.422216 0.02 0 0.429801 0.02 0 0.437749 0.02 0 0.446099 0.02 0 0.454899 0.02 0 0.464199 0.02 0 0.474059 0.02 0 0.48454 0.02 0 0.495691 0.02 0 0.507495 0.02 0 0.519708 0.02 0 0.531858 0.02 0 0.543866 0.02 0 0.555746 0.02 0 0.567546 0.02 0 0.579306 0.02 0 0.591051 0.02 0 0.602793 0.02 0 0.614544 0.02 0 0.617154 0.02 0 0.61969 0.02 0 0.622181 0.02 0 0.624642 0.02 0 0.627081 0.02 0 0.629505 0.02 0 0.631919 0.02 0 0.634333 0.02 0 0.636747 0.02 0 0.639146 0.02 0 0.641535 0.02 0 0.643917 0.02 0 0.646296 0.02 0 0.648673 0.02 0 0.651047 0.02 0 0.653418 0.02 0 0.655788 0.02 0 0.658156 0.02 0 0.660521 0.02 0 0.662884 0.02 0 0.665247 0.02 0 0.667611 0.02 0 0.669976 0.02 0 0.672341 0.02 0 0.674705 0.02 0 0.67707 0.02 0 0.679433 0.02 0 0.681797 0.02 0 0.684164 0.02 0 0.686532 0.02 0 0.688899 0.02 0 0.691265 0.02 0 0.693628 0.02 0 0.695987 0.02 0 0.698354 0.02 0 0.700732 0.02 0 0.70315 0.02 0 0.705583 0.02 0 0.708089 0.02 0 0.7107 0.02 0 0.713438 0.02 0 0.716371 0.02 0 0.719533 0.02 0 0.72301 0.02 0 0.726829 0.02 0 0.730999 0.02 0 0.735485 0.02 0 0.740209 0.02 0 0.745083 0.02 0 0.750031 0.02 0 0.755011 0.02 0 0.760004 0.02 0 0.765001 0.02 0 0.770001 0.02 0 0.775 0.02 0 0.78 0.02 0 0.785 0.02 0 0.79 0.02 0 0.795 0.02 0 0.8 0.02 0 0.805 0.02 0 0.81 0.02 0 0.815 0.02 0 0.82 0.02 0 0.825 0.02 0 0.83 0.02 0 0.835 0.02 0 0.84 0.02 0 0.845 0.02 0 0.85 0.02 0 0.855 0.02 0 0.86 0.02 0 0.865 0.02 0 0.87 0.02 0 0.875 0.02 0 0.88 0.02 0 0.885 0.02 0 0.89 0.02 0 0.895 0.02 0 0.9 0.02 0 0.905 0.02 0 0.91 0.02 0 0.915 0.02 0 0.92 0.02 0 0.925 0.02 0 0.93 0.02 0 0.935 0.02 0 0.94 0.02 0 0.945 0.02 0 0.95 0.02 0 0.955 0.02 0 0.96 0.02 0 0.965 0.02 0 0.97 0.02 0 0.975 0.02 0 0.98 0.02 0 0.985 0.02 0 0.99 0.02 0 0.995 0.02 0 1 0.02 0 0 0.04 0 0.005 0.04 0 0.01 0.04 0 0.015 0.04 0 0.02 0.04 0 0.025 0.04 0 0.03 0.04 0 0.035 0.04 0 0.04 0.04 0 0.045 0.04 0 0.05 0.04 0 0.055 0.04 0 0.06 0.04 0 0.065 0.04 0 0.07 0.04 0 0.075 0.04 0 0.08 0.04 0 0.085 0.04 0 0.09 0.04 0 0.095 0.04 0 0.1 0.04 0 0.105 0.04 0 0.11 0.04 0 0.115 0.04 0 0.12 0.04 0 0.125 0.04 0 0.13 0.04 0 0.135 0.04 0 0.14 0.04 0 0.145 0.04 0 0.15 0.04 0 0.155 0.04 0 0.16 0.04 0 0.165 0.04 0 0.17 0.04 0 0.175 0.04 0 0.18 0.04 0 0.185 0.04 0 0.19 0.04 0 0.195 0.04 0 0.2 0.04 0 0.205 0.04 0 0.21 0.04 0 0.215 0.04 0 0.22 0.04 0 0.225 0.04 0 0.23 0.04 0 0.235 0.04 0 0.24 0.04 0 0.245 0.04 0 0.25 0.04 0 0.255 0.04 0 0.26 0.04 0 0.265 0.04 0 0.27 0.04 0 0.275 0.04 0 0.28 0.04 0 0.285 0.04 0 0.29 0.04 0 0.295 0.04 0 0.3 0.04 0 0.305 0.04 0 0.31 0.04 0 0.315 0.04 0 0.32 0.04 0 0.325 0.04 0 0.330002 0.04 0 0.335006 0.04 0 0.340018 0.04 0 0.345047 0.04 0 0.350112 0.04 0 0.355237 0.04 0 0.360451 0.04 0 0.365781 0.04 0 0.37125 0.04 0 0.376878 0.04 0 0.382682 0.04 0 0.388678 0.04 0 0.394884 0.04 0 0.401319 0.04 0 0.408003 0.04 0 0.41496 0.04 0 0.422216 0.04 0 0.429801 0.04 0 0.437749 0.04 0 0.446099 0.04 0 0.454899 0.04 0 0.464199 0.04 0 0.474059 0.04 0 0.48454 0.04 0 0.495691 0.04 0 0.507495 0.04 0 0.519708 0.04 0 0.531858 0.04 0 0.543866 0.04 0 0.555746 0.04 0 0.567546 0.04 0 0.579306 0.04 0 0.591051 0.04 0 0.602793 0.04 0 0.614544 0.04 0 0.617154 0.04 0 0.61969 0.04 0 0.622181 0.04 0 0.624642 0.04 0 0.627081 0.04 0 0.629505 0.04 0 0.631919 0.04 0 0.634333 0.04 0 0.636747 0.04 0 0.639146 0.04 0 0.641535 0.04 0 0.643917 0.04 0 0.646296 0.04 0 0.648673 0.04 0 0.651047 0.04 0 0.653418 0.04 0 0.655788 0.04 0 0.658156 0.04 0 0.660521 0.04 0 0.662884 0.04 0 0.665247 0.04 0 0.667611 0.04 0 0.669976 0.04 0 0.672341 0.04 0 0.674705 0.04 0 0.67707 0.04 0 0.679433 0.04 0 0.681797 0.04 0 0.684164 0.04 0 0.686532 0.04 0 0.688899 0.04 0 0.691265 0.04 0 0.693628 0.04 0 0.695987 0.04 0 0.698354 0.04 0 0.700732 0.04 0 0.70315 0.04 0 0.705583 0.04 0 0.708089 0.04 0 0.7107 0.04 0 0.713438 0.04 0 0.716371 0.04 0 0.719533 0.04 0 0.72301 0.04 0 0.726829 0.04 0 0.730999 0.04 0 0.735485 0.04 0 0.740209 0.04 0 0.745083 0.04 0 0.750031 0.04 0 0.755011 0.04 0 0.760004 0.04 0 0.765001 0.04 0 0.770001 0.04 0 0.775 0.04 0 0.78 0.04 0 0.785 0.04 0 0.79 0.04 0 0.795 0.04 0 0.8 0.04 0 0.805 0.04 0 0.81 0.04 0 0.815 0.04 0 0.82 0.04 0 0.825 0.04 0 0.83 0.04 0 0.835 0.04 0 0.84 0.04 0 0.845 0.04 0 0.85 0.04 0 0.855 0.04 0 0.86 0.04 0 0.865 0.04 0 0.87 0.04 0 0.875 0.04 0 0.88 0.04 0 0.885 0.04 0 0.89 0.04 0 0.895 0.04 0 0.9 0.04 0 0.905 0.04 0 0.91 0.04 0 0.915 0.04 0 0.92 0.04 0 0.925 0.04 0 0.93 0.04 0 0.935 0.04 0 0.94 0.04 0 0.945 0.04 0 0.95 0.04 0 0.955 0.04 0 0.96 0.04 0 0.965 0.04 0 0.97 0.04 0 0.975 0.04 0 0.98 0.04 0 0.985 0.04 0 0.99 0.04 0 0.995 0.04 0 1 0.04 0 0 0.06 0 0.005 0.06 0 0.01 0.06 0 0.015 0.06 0 0.02 0.06 0 0.025 0.06 0 0.03 0.06 0 0.035 0.06 0 0.04 0.06 0 0.045 0.06 0 0.05 0.06 0 0.055 0.06 0 0.06 0.06 0 0.065 0.06 0 0.07 0.06 0 0.075 0.06 0 0.08 0.06 0 0.085 0.06 0 0.09 0.06 0 0.095 0.06 0 0.1 0.06 0 0.105 0.06 0 0.11 0.06 0 0.115 0.06 0 0.12 0.06 0 0.125 0.06 0 0.13 0.06 0 0.135 0.06 0 0.14 0.06 0 0.145 0.06 0 0.15 0.06 0 0.155 0.06 0 0.16 0.06 0 0.165 0.06 0 0.17 0.06 0 0.175 0.06 0 0.18 0.06 0 0.185 0.06 0 0.19 0.06 0 0.195 0.06 0 0.2 0.06 0 0.205 0.06 0 0.21 0.06 0 0.215 0.06 0 0.22 0.06 0 0.225 0.06 0 0.23 0.06 0 0.235 0.06 0 0.24 0.06 0 0.245 0.06 0 0.25 0.06 0 0.255 0.06 0 0.26 0.06 0 0.265 0.06 0 0.27 0.06 0 0.275 0.06 0 0.28 0.06 0 0.285 0.06 0 0.29 0.06 0 0.295 0.06 0 0.3 0.06 0 0.305 0.06 0 0.31 0.06 0 0.315 0.06 0 0.32 0.06 0 0.325 0.06 0 0.330002 0.06 0 0.335006 0.06 0 0.340018 0.06 0 0.345047 0.06 0 0.350112 0.06 0 0.355237 0.06 0 0.360451 0.06 0 0.365781 0.06 0 0.37125 0.06 0 0.376878 0.06 0 0.382682 0.06 0 0.388678 0.06 0 0.394884 0.06 0 0.401319 0.06 0 0.408003 0.06 0 0.41496 0.06 0 0.422216 0.06 0 0.429801 0.06 0 0.437749 0.06 0 0.446099 0.06 0 0.454899 0.06 0 0.464199 0.06 0 0.474059 0.06 0 0.48454 0.06 0 0.495691 0.06 0 0.507495 0.06 0 0.519708 0.06 0 0.531858 0.06 0 0.543866 0.06 0 0.555746 0.06 0 0.567546 0.06 0 0.579306 0.06 0 0.591051 0.06 0 0.602793 0.06 0 0.614544 0.06 0 0.617154 0.06 0 0.61969 0.06 0 0.622181 0.06 0 0.624642 0.06 0 0.627081 0.06 0 0.629505 0.06 0 0.631919 0.06 0 0.634333 0.06 0 0.636747 0.06 0 0.639146 0.06 0 0.641535 0.06 0 0.643917 0.06 0 0.646296 0.06 0 0.648673 0.06 0 0.651047 0.06 0 0.653418 0.06 0 0.655788 0.06 0 0.658156 0.06 0 0.660521 0.06 0 0.662884 0.06 0 0.665247 0.06 0 0.667611 0.06 0 0.669976 0.06 0 0.672341 0.06 0 0.674705 0.06 0 0.67707 0.06 0 0.679433 0.06 0 0.681797 0.06 0 0.684164 0.06 0 0.686532 0.06 0 0.688899 0.06 0 0.691265 0.06 0 0.693628 0.06 0 0.695987 0.06 0 0.698354 0.06 0 0.700732 0.06 0 0.70315 0.06 0 0.705583 0.06 0 0.708089 0.06 0
[...]
			<PointData Scalars="VitesseX">
				<DataArray Name="VitesseX" type="Float32" format="ascii">
 0 0 0 0 0 0 0 0 0 0 0 0 0 0 0 0 0 0 0 0 0 0 0 0 0 0 0 0 0 0 0 0 0 0 0 0 0 0 0 0 0 0 0 0 0 0 0 0 0 0 0 0 0 0 0 0 0 0 0 0 0 0 0 0 0 0 0 0 0 0 0 0 0 0 0 0 0 0 0 0 0 0 0 0 0 0 0 0 0 0 0 0 0 0 0 0 0 0 0 0 0 0 0 0 0 0 0 0 0 0 0 0 0 0 0 0 0 0 0 0 0 0 0 0 0 0 0 0 0 0 0 0 0 0 0 0 0 0 0 0 0 0 0 0 0 0 0 0 0 0 0 0 0 0 0 0 0 0 0 0 0 0 0 0 0 0 0 0 0 0 0 0 0 0 0 0 0 0 0 0 0 0 0 0 0 0 0 0 0 0 0 0 0 0 0 0 0 0 0 0 0 0 9.48024e-16 5.7609e-16 -1.724e-15 2.86708e-15 3.41531e-16 1.07999e-15 -5.6292e-15 6.57844e-15 5.44758e-15 -3.00262e-15 5.48097e-15 5.16768e-15 7.48719e-15 2.70354e-15 1.06009e-14 1.14845e-14 4.20623e-15 4.97924e-15 -4.61056e-15 -5.83857e-15 -1.72924e-15 -7.45215e-17 1.33758e-14 -8.12718e-15 -5.73283e-15 2.16092e-14 5.60434e-15 -7.0062e-15 -9.12101e-16 1.71473e-14 -4.59121e-15 2.27905e-14 2.20863e-14 -2.17424e-14 1.00596e-14 2.84893e-14 -1.26309e-14 8.89334e-15 -9.51366e-15 1.48098e-14 1.13032e-14 1.93256e-14 1.66626e-15 1.64566e-14 -1.25579e-14 3.01154e-14 1.8563e-14 2.83732e-14 2.27836e-14 3.34044e-14 2.45822e-14 5.75575e-14 1.07718e-13 8.06676e-13 6.01708e-12 4.56685e-11 3.23153e-10 2.14629e-09 1.33224e-08 7.70591e-08 4.13828e-07 2.05474e-06 9.38692e-06 3.92306e-05 0.000148966 0.00050976 0.00155724 0.00420453 0.00994831 0.0205524 0.0372466 0.0600501 0.0879215 0.119522 0.15382 0.190222 0.228457 0.268433 0.310153 0.353674 0.399088 0.446512 0.496087 0.547962 0.60229 0.659194 0.718703 0.780575 0.843813 0.905214 0.954743 0.965932 0.952466 0.94139 0.933744 0.92977 0.928102 0.927378 0.926895 0.926387 0.926358 0.926343 0.926337 0.926336 0.926339 0.926343 0.92637 0.926502 0.926705 0.926714 0.926627 0.926514 0.92638 0.926262 0.926138 0.926026 0.925922 0.925835 0.92577 0.925729 0.925723 0.925755 0.925976 0.925686 0.925496 0.925169 0.924973 0.924865 0.925564 0.925301 0.924292 0.923382 0.922036 0.92198 0.924191 0.914085 0.915921 0.873199 0.863237 0.817655 0.738013 0.696969 0.573621 0.466932 0.338981 0.221904 0.125533 0.0607693 0.0256561 0.00991747 0.00366676 0.0013283 0.000476189 0.000169501 5.99458e-05 2.1056e-05 7.34011e-06 2.53725e-06 8.6891e-07 2.94554e-07 9.87618e-08 3.27285e-08 1.07124e-08 3.46121e-09 1.10332e-09 3.46955e-10 1.07558e-10 3.28326e-11 9.85458e-12 2.97389e-12 9.73171e-13 1.81235e-13 8.31338e-14 1.13875e-14 -9.53623e-14 -7.5265e-14 -3.75165e-14 9.69717e-14 3.06981e-14 -1.2326e-14 -1.09186e-14 -1.47518e-13 -4.57166e-14 -1.40438e-13 9.67135e-14 -8.64923e-14 -4.81597e-14 -1.07297e-13 -3.70769e-14 2.05326e-14 -1.56337e-14 -9.80663e-14 -6.15938e-14 -5.13228e-14 -4.87317e-14 6.76868e-14 1.53086e-14 -1.34656e-14 -8.34439e-14 0 0 5.12066e-17 1.32766e-15 3.42075e-16 4.4634e-16 8.76024e-16 3.4477e-15 -3.15519e-15 7.84479e-16 9.76496e-15 -5.39095e-16 5.88839e-16 6.65424e-15 7.84916e-15 6.95753e-15 -5.32959e-15 1.05071e-14 -5.52357e-16 1.04555e-14 6.96537e-16 -1.30471e-14 2.1704e-15 9.44092e-15 7.44145e-15 9.08283e-15 5.8587e-15 9.03308e-15 -1.96696e-14 5.17833e-15 8.36749e-15 1.23658e-14 1.68252e-14 1.62346e-14 1.46281e-14 -2.21599e-14 -2.03719e-14 4.11262e-14 -1.53039e-14 -1.75986e-15 2.46078e-14 -1.76448e-14 3.72771e-14 1.97935e-14 -7.15149e-15 2.37753e-14 -1.5262e-14 4.01147e-14 3.87287e-14 3.18776e-14 2.58816e-14 4.57262e-14 7.30462e-14 7.40401e-14 9.20294e-14 7.5727e-13 5.92631e-12 4.56641e-11 3.23143e-10 2.14622e-09 1.33225e-08 7.7059e-08 4.13828e-07 2.05474e-06 9.38692e-06 3.92306e-05 0.000148966 0.00050976 0.00155724 0.00420453 0.00994831 0.0205524 0.0372466 0.0600501 0.0879215 0.119522 0.15382 0.190222 0.228457 0.268433 0.310153 0.353674 0.399088 0.446512 0.496087 0.547962 0.60229 0.659194 0.718703 0.780575 0.843813 0.905214 0.954743 0.965932 0.952466 0.94139 0.933744 0.92977 0.928102 0.927378 0.926895 0.926387 0.926358 0.926343 0.926337 0.926336 0.926339 0.926343 0.92637 0.926502 0.926705 0.926714 0.926627 0.926514 0.92638 0.926262 0.926138 0.926026 0.925922 0.925835 0.92577 0.925729 0.925723 0.925755 0.925976 0.925686 0.925496 0.925169 0.924973 0.924865 0.925564 0.925301 0.924292 0.923382 0.922036 0.92198 0.924191 0.914085 0.915921 0.873199 0.863237 0.817655 0.738013 0.696969 0.573621 0.466932 0.338981 0.221904 0.125533 0.0607693 0.0256561 0.00991747 0.00366676 0.0013283 0.000476189 0.000169501 5.99458e-05 2.1056e-05 7.34011e-06 2.53725e-06 8.6891e-07 2.94554e-07 9.87618e-08 3.27285e-08 1.07125e-08 3.46115e-09 1.1034e-09 3.46819e-10 1.07586e-10 3.28005e-11 9.96326e-12 3.00409e-12 8.42323e-13 3.21323e-13 3.35133e-14 1.33487e-13 -2.80791e-14 -1.02309e-13 -6.54155e-14 -2.20849e-14 6.67489e-14 -1.77289e-13 3.30577e-14 -9.2682e-14 -1.41264e-13 -5.46233e-14 4.78894e-14 -1.52746e-13 8.04346e-14 -7.42945e-14 -8.86541e-14 6.61726e-14 -4.15808e-15 -1.48027e-13 -1.04244e-14 -4.39751e-14 -4.02137e-14 9.14364e-14 -7.39568e-14 7.95306e-14 -1.07282e-13 0 0 -2.90362e-16 -8.30072e-16 2.80751e-17 4.34575e-16 -1.87889e-15 8.74474e-16 6.97265e-15 -2.13964e-16 2.44359e-15 8.15157e-15 4.06238e-15 -5.90614e-15 1.15704e-14 1.22403e-14 -1.00407e-14 1.47639e-15 2.2494e-15 -1.20063e-15 -2.68545e-15 3.78098e-15 -7.37545e-15 1.39773e-14 -3.54367e-15 2.24359e-14 2.44489e-14 -1.34873e-14 -1.91033e-14 2.01329e-14 -9.3961e-15 1.74089e-14 2.72618e-14 -1.2916e-14 -7.48999e-15 3.1328e-15 2.00534e-14 -1.44775e-14 -9.01239e-15 1.78838e-14 1.58074e-14 1.38977e-15 3.15104e-14 1.01117e-14 5.52353e-15 -5.89185e-15 6.69083e-14 1.44457e-14 2.38376e-14 3.66029e-14 2.3817e-14 6.00054e-14 1.02074e-13 1.37652e-13 1.58562e-13 5.68533e-13 5.96002e-12 4.55592e-11 3.23218e-10 2.14617e-09 1.33225e-08 7.70589e-08 4.13828e-07 2.05474e-06 9.38692e-06 3.92306e-05 0.000148966 0.00050976 0.00155724 0.00420453 0.00994831 0.0205524 0.0372466 0.0600501 0.0879215 0.119522 0.15382 0.190222 0.228457 0.268433 0.310153 0.353674 0.399088 0.446512 0.496087 0.547962 0.60229 0.659194 0.718703 0.780575 0.843813 0.905214 0.954743 0.965932 0.952466 0.94139 0.933744 0.92977 0.928102 0.927378 0.926895 0.926387 0.926358 0.926343 0.926337 0.926336 0.926339 0.926343 0.92637 0.926502 0.926705 0.926714 0.926627 0.926514 0.92638 0.926262 0.926138 0.926026 0.925922 0.925835 0.92577 0.925729 0.925723 0.925755 0.925976 0.925686 0.925496 0.925169 0.924973 0.924865 0.925564 0.925301 0.924292 0.923382 0.922036 0.92198 0.924191 0.914085 0.915921 0.873199 0.863237 0.817655 0.738013 0.696969 0.573621 0.466932 0.338981 0.221904 0.125533 0.0607693 0.0256561 0.00991747 0.00366676 0.0013283 0.000476189 0.000169501 5.99458e-05 2.1056e-05 7.34011e-06 2.53725e-06 8.6891e-07 2.94555e-07 9.87618e-08 3.27285e-08 1.07126e-08 3.46112e-09 1.10339e-09 3.4691e-10 1.07607e-10 3.28514e-11 1.00312e-11 2.98265e-12 9.70252e-13 2.1556e-13 -5.42366e-14 -9.27363e-15 1.02311e-14 2.43996e-14 -1.37647e-13 4.14877e-14 2.96638e-14 -1.18999e-13 2.09126e-14 -8.4495e-14 4.59482e-14 -9.85359e-14 -9.08723e-14 -7.18134e-14 -1.99416e-14 4.19182e-14 -3.01225e-14 -2.07622e-13 5.59037e-16 2.44412e-14 -4.29414e-14 9.60067e-14 5.44303e-14 -1.57386e-13 4.28699e-14 1.36073e-13 -1.23558e-13 0 0 -1.10812e-15 -2.09271e-15 -2.16106e-15 4.91329e-15 -1.60613e-16 4.49615e-15 8.71518e-15 -4.65693e-15 1.23552e-16 1.18558e-15 -9.77989e-16 5.76795e-15 1.02662e-14 2.45874e-15 3.87999e-15 -9.48325e-15 4.8152e-15 -1.04184e-14 -7.23349e-15 6.27161e-15 -6.99385e-15 3.20374e-15 4.22634e-16 -5.53169e-15 1.36714e-14 1.41922e-14 1.86203e-14 -1.08149e-14 3.50434e-16 2.28271e-14 -7.57325e-16 -2.66011e-15 -8.03469e-15 7.98456e-15 3.67655e-14 -2.22183e-14 -1.30807e-14 1.3664e-14 -5.19855e-16 2.05802e-14 2.38398e-14 5.24319e-15 1.84301e-14 1.35806e-14 2.99439e-14 2.28839e-14 4.00603e-14 2.78945e-14 7.30815e-14 3.9314e-14 7.95561e-14 2.0773e-13 1.36462e-13 5.75946e-13 5.96657e-12 4.55177e-11 3.23136e-10 2.14623e-09 1.33223e-08 7.7059e-08 4.13828e-07 2.05474e-06 9.38692e-06 3.92306e-05 0.000148966 0.00050976 0.00155724 0.00420453 0.00994831 0.0205524 0.0372466 0.0600501 0.0879215 0.119522 0.15382 0.190222 0.228457 0.268433 0.310153 0.353674 0.399088 0.446512 0.496087 0.547962 0.60229 0.659194 0.718703 0.780575 0.843813 0.905214 0.954743 0.965932 0.952466 0.94139 0.933744 0.92977 0.928102 0.927378 0.926895 0.926387 0.926358 0.926343 0.926337 0.926336 0.926339 0.926343 0.92637 0.926502 0.926705 0.926714 0.926627 0.926514 0.92638 0.926262 0.926138 0.926026 0.925922 0.925835 0.92577 0.925729 0.925723 0.925755 0.925976 0.925686 0.925496 0.925169 0.924973 0.924865 0.925564 0.925301 0.924292 0.923382 0.922036 0.92198 0.924191 0.914085 0.915921 0.873199 0.863237 0.817655 0.738013 0.696969 0.573621 0.466932 0.338981 0.221904 0.125533 0.0607693 0.0256561 0.00991747 0.00366676 0.0013283 0.000476189 0.000169501 5.99458e-05 2.1056e-05 7.34011e-06 2.53725e-06 8.6891e-07 2.94555e-07 9.87618e-08 3.27286e-08 1.07125e-08 3.46129e-09 1.10351e-09 3.469e-10 1.07569e-10 3.29719e-11 9.96394e-12 3.08928e-12 9.9454e-13 3.59392e-14 8.94852e-15 -2.16944e-13 3.59345e-15 3.5303e-14 -2.21223e-13 1.10228e-13 1.44977e-13 1.96309e-14 -1.00322e-15 -1.81616e-13 -2.46684e-14 -4.59227e-14 -1.30953e-13 1.1451e-13 2.89489e-14 -2.43856e-14 4.48825e-15 -2.9903e-13 1.30561e-14 -8.65424e-14 -2.54802e-14 5.30135e-14 1.36715e-13 -2.04682e-13 1.0294e-13 1.4057e-13 -1.52198e-13 0 0 0 0 0 0 0 0 0 0 0 0 0 0 0 0 0 0 0 0 0 0 0 0 0 0 0 0 0 0 0 0 0 0 0 0 0 0 0 0 0 0 0 0 0 0 0 0 0 0 0 0 0 0 0 0 0 0 0 0 0 0 0 0 0 0 0 0 0 0 0 0 0 0 0 0 0 0 0 0 0 0 0 0 0 0 0 0 0 0 0 0 0 0 0 0 0 0 0 0 0 0 0 0 0 0 0 0 0 0 0 0 0 0 0 0 0 0 0 0 0 0 0 0 0 0 0 0 0 0 0 0 0 0 0 0 0 0 0 0 0 0 0 0 0 0 0 0 0 0 0 0 0 0 0 0 0 0 0 0 0 0 0 0 0 0 0 0 0 0 0 0 0 0 0 0 0 0 0 0 0 0 0 0 0 0 0 0 0 0 0 0 0 0 0 0 0 0 0 0 0 0
				</DataArray>
				<DataArray Name="VitesseY" type="Float32" format="ascii">
 0 0 0 0 0 0 0 0 0 0 0 0 0 0 0 0 0 0 0 0 0 0 0 0 0 0 0 0 0 0 0 0 0 0 0 0 0 0 0 0 0 0 0 0 0 0 0 0 0 0 0 0 0 0 0 0 0 0 0 0 0 0 0 0 0 0 0 0 0 0 0 0 0 0 0 0 0 0 0 0 0 0 0 0 0 0 0 0 0 0 0 0 0 0 0 0 0 0 0 0 0 0 0 0 0 0 0 0 0 0 0 0 0 0 0 0 0 0 0 0 0 0 0 0 0 0 0 0 0 0 0 0 0 0 0 0 0 0 0 0 0 0 0 0 0 0 0 0 0 0 0 0 0 0 0 0 0 0 0 0 0 0 0 0 0 0 0 0 0 0 0 0 0 0 0 0 0 0 0 0 0 0 0 0 0 0 0 0 0 0 0 0 0 0 0 0 0 0 0 0 0 0 2.36677e-16 6.8371e-16 7.2652e-16 9.0098e-16 1.95474e-15 2.86709e-15 6.68695e-16 -8.90327e-16 1.51481e-15 2.36211e-15 1.67202e-16 1.49567e-15 2.89096e-15 -1.29197e-15 -3.12671e-15 -1.84191e-15 4.47537e-16 2.16796e-15 1.6236e-15 -1.99893e-15 -6.24856e-15 -4.36644e-15 2.61815e-16 2.35688e-15 -3.39423e-15 -3.09497e-15 5.02247e-15 -5.95047e-16 -3.05754e-15 5.5368e-15 1.13287e-15 3.99139e-15 1.45609e-14 8.53744e-15 -4.81241e-16 3.49951e-16 -1.62761e-15 -8.32153e-15 -9.52424e-15 -9.71273e-15 -4.77953e-15 9.71015e-16 -4.38634e-15 -1.35233e-15 -2.6274e-15 -1.40131e-14 -9.72867e-15 5.12046e-15 1.20647e-14 1.55973e-14 2.34278e-14 2.09347e-14 1.18288e-14 9.15304e-15 1.27726e-14 1.42965e-14 -8.42603e-15 -2.46855e-14 -1.87745e-14 -3.04296e-14 -5.25422e-14 -4.94999e-14 -1.27315e-14 -6.76417e-15 -3.35778e-14 -5.32408e-14 -4.00668e-14 -1.50109e-14 -2.69955e-14 -2.74566e-14 -3.28901e-14 -3.22553e-14 -2.51773e-14 -2.68218e-14 -3.12866e-14 -3.35395e-14 -1.91008e-15 -2.34596e-15 -2.7087e-14 -1.65741e-14 -3.68607e-15 -2.25856e-14 -2.16152e-14 1.04386e-14 -5.47794e-15 -2.15998e-14 1.38538e-14 -1.02819e-15 1.31169e-15 -1.41623e-14 -2.46179e-14 2.39951e-14 2.63849e-14 7.36827e-15 -3.70557e-14 -9.62039e-14 -1.38525e-13 -1.73922e-13 -2.00602e-13 -2.29816e-13 -3.99383e-13 -3.90498e-13 -4.19223e-13 -4.28939e-13 -4.07227e-13 -4.09102e-13 -3.96919e-13 -2.53814e-13 -5.83887e-14 8.42487e-14 1.72873e-13 1.94552e-13 1.8313e-13 1.64851e-13 1.30255e-13 8.73161e-14 4.10355e-14 -5.04094e-15 -4.88772e-14 -9.0548e-14 -1.28428e-13 -1.39581e-13 -1.37758e-13 -1.58532e-13 -2.04014e-13 -2.3171e-13 -2.19328e-13 -2.17845e-13 -2.36954e-13 -2.22731e-13 -2.3963e-13 -2.45497e-13 -2.62165e-13 -2.76503e-13 -2.83938e-13 -3.0503e-13 -2.90424e-13 -3.03476e-13 -2.89517e-13 -2.34327e-13 -1.78789e-13 -1.57583e-13 -1.51639e-13 -1.11075e-13 -5.53126e-14 -2.1114e-14 -2.05416e-14 -1.85209e-14 -1.31824e-14 -8.49017e-15 -3.09721e-15 -7.83029e-15 -1.67584e-14 -2.5039e-14 -1.45051e-14 4.33264e-15 -1.06981e-14 -4.54224e-14 -4.53532e-14 -1.15875e-14 -7.35996e-15 -1.4764e-14 -2.07368e-14 -3.76941e-14 -2.54854e-14 -1.22822e-14 -1.0428e-14 2.16356e-15 -8.20238e-15 -4.466e-14 -3.47919e-14 2.33594e-14 3.57251e-14 6.85763e-14 7.88622e-14 3.35882e-14 6.91417e-15 3.65646e-14 8.1409e-14 4.76252e-14 2.73765e-14 -2.36891e-14 -9.07352e-14 -1.0825e-13 -7.55729e-14 -1.6834e-14 1.79641e-15 -2.35778e-14 -2.97859e-14 1.94064e-14 4.08798e-14 2.29822e-14 2.02431e-14 -7.70122e-15 -4.60185e-14 6.57474e-16 5.42421e-14 3.36253e-14 -5.11928e-14 0 0 9.0664e-16 6.35554e-16 1.23139e-15 9.05289e-16 -6.89128e-16 -7.49271e-16 2.61853e-15 3.35355e-15 6.02336e-16 1.54694e-15 3.087e-15 9.31581e-16 -1.44545e-16 5.11729e-15 3.88928e-15 -1.27826e-15 -5.05647e-15 -6.47377e-15 -3.35214e-15 -3.06268e-16 3.27e-15 4.76174e-15 9.24704e-16 1.7526e-15 1.45814e-14 1.40767e-14 -3.56997e-15 -1.06568e-15 6.70887e-15 -8.04249e-16 7.81753e-15 8.6544e-15 -5.44266e-15 -1.3081e-15 -4.94206e-17 -5.28978e-15 -8.87762e-16 2.50535e-15 9.49403e-15 1.00715e-14 3.56446e-15 4.4981e-15 7.666e-15 4.34752e-15 6.81391e-15 2.00339e-14 2.32221e-14 1.42532e-14 8.96992e-15 9.33235e-15 1.66557e-14 3.54237e-14 4.47028e-14 3.11e-14 -7.64251e-15 -3.28824e-14 -1.37764e-14 -1.80751e-14 -1.98495e-14 -1.12589e-14 -2.24899e-14 -1.65103e-14 -1.91221e-14 -1.04287e-14 7.25005e-15 3.08186e-14 2.58932e-14 -2.29918e-14 -3.92008e-14 -4.31085e-14 -4.65501e-14 -2.26101e-14 -2.40619e-14 -2.55156e-14 8.10616e-15 -1.46548e-14 -4.89914e-14 -2.37528e-14 -1.32212e-14 -1.51536e-14 -1.42235e-14 -5.69548e-16 8.89603e-15 -1.63704e-14 -1.88007e-14 4.08973e-15 -9.21878e-15 2.80879e-15 -1.01283e-14 -1.12442e-14 1.41691e-14 1.01119e-14 2.45611e-14 1.5238e-15 -6.65115e-14 -1.52196e-13 -2.32382e-13 -2.76443e-13 -3.24852e-13 -3.9363e-13 -6.82187e-13 -6.42832e-13 -6.36588e-13 -6.60409e-13 -6.75311e-13 -6.58952e-13 -5.59795e-13 -3.62307e-13 -1.34549e-13 1.03217e-13 2.68281e-13 2.96569e-13 3.15803e-13 2.81016e-13 1.92186e-13 1.4114e-13 9.3184e-14 4.33215e-14 -2.24823e-14 -8.0423e-14 -1.48062e-13 -2.20182e-13 -2.74302e-13 -3.03484e-13 -3.11225e-13 -3.45221e-13 -4.09485e-13 -4.17964e-13 -4.1699e-13 -4.52911e-13 -4.30888e-13 -4.16313e-13 -4.03129e-13 -4.24052e-13 -4.37123e-13 -3.95759e-13 -4.0375e-13 -3.80976e-13 -3.43108e-13 -2.97996e-13 -2.5106e-13 -2.5054e-13 -2.27442e-13 -1.64443e-13 -1.21087e-13 -6.56434e-14 -3.71447e-14 -3.99265e-14 -3.49432e-14 -5.14944e-14 -5.73481e-14 -3.93167e-14 -2.58178e-14 -2.63927e-14 -5.06225e-14 -8.10706e-14 -7.21494e-14 -1.8191e-14 2.30739e-15 -2.61795e-14 -2.20769e-14 -5.97941e-15 1.81228e-14 3.79626e-14 2.96959e-14 2.4718e-15 -2.62714e-14 -3.98644e-14 -1.02124e-14 6.09311e-14 2.58817e-14 -2.98513e-14 -1.98264e-14 -3.45457e-14 2.52202e-15 5.79639e-14 7.06837e-14 4.28667e-15 -6.13182e-14 -5.97035e-14 -6.96986e-14 5.9432e-15 6.29312e-14 7.78606e-14 5.43287e-14 -3.3056e-14 -3.61899e-14 2.94736e-14 3.11892e-14 -1.9349e-14 -2.64438e-14 -1.82467e-14 -1.53589e-14 2.73624e-14 6.96148e-14 3.09153e-14 -3.89317e-14 -1.73616e-14 8.4505e-14 0 0 5.58439e-15 5.13735e-15 3.81647e-15 4.07879e-15 5.02912e-15 3.76804e-15 2.30766e-15 3.76941e-15 4.53652e-15 4.05918e-15 5.51796e-15 5.33002e-15 4.19052e-15 1.09986e-15 2.1788e-15 4.52047e-15 6.77548e-15 5.80772e-15 -1.21901e-15 -9.62544e-16 -2.54459e-15 -5.2416e-15 -3.23456e-15 -3.35194e-15 -8.25626e-15 -8.59743e-15 3.50098e-15 4.83381e-15 -3.65746e-15 7.13343e-16 -4.09962e-15 -9.54361e-15 -8.29488e-15 -1.15747e-14 3.55737e-15 5.07756e-15 -1.16746e-14 -8.59986e-15 -1.29412e-14 -1.10181e-14 -1.12858e-15 -5.86693e-15 -8.30465e-15 -9.25293e-15 1.39321e-15 2.30482e-15 -1.10283e-14 -4.62794e-15 1.32951e-15 3.89109e-15 7.5238e-15 1.18716e-14 3.50875e-14 1.82137e-14 1.81344e-14 2.56049e-14 -8.53454e-16 1.06543e-14 -8.58322e-16 -3.44168e-14 -4.12291e-14 -2.45939e-14 -2.91203e-14 -5.05714e-14 -3.63525e-14 -3.52729e-14 -3.42602e-14 -4.25579e-14 -3.16485e-14 9.60007e-15 1.5109e-14 -5.86012e-15 1.7302e-15 2.15485e-14 -5.85215e-15 1.29881e-16 1.24647e-16 -2.75529e-14 9.51731e-15 -4.57672e-15 -2.55188e-14 -2.30839e-14 -5.65579e-14 -2.1811e-14 2.06895e-14 1.45198e-14 3.26375e-14 3.43072e-14 1.08713e-14 4.11349e-15 2.61052e-14 4.8285e-14 2.91946e-14 -3.8708e-15 -6.52664e-14 -1.56225e-13 -2.28354e-13 -2.86235e-13 -3.2274e-13 -3.7871e-13 -6.08924e-13 -6.20481e-13 -6.66245e-13 -6.6133e-13 -6.31602e-13 -6.27398e-13 -5.52982e-13 -3.28217e-13 -4.86271e-14 1.67607e-13 3.21818e-13 3.77519e-13 2.88835e-13 2.15215e-13 2.16229e-13 1.41294e-13 6.57074e-14 -3.04323e-14 -1.30535e-13 -1.70384e-13 -2.02376e-13 -2.56606e-13 -3.44787e-13 -4.11908e-13 -4.59243e-13 -4.42925e-13 -4.25269e-13 -4.59118e-13 -4.76243e-13 -4.31608e-13 -4.39496e-13 -4.78389e-13 -5.01845e-13 -4.78569e-13 -4.8184e-13 -5.257e-13 -4.98165e-13 -4.58578e-13 -4.02179e-13 -3.75544e-13 -3.27667e-13 -2.23197e-13 -1.27665e-13 -7.0305e-14 -1.01793e-13 -1.01456e-13 -6.54398e-14 -5.48585e-14 -5.29064e-14 -4.30982e-14 -4.61689e-14 -5.79842e-14 -6.20182e-14 -7.73095e-14 -7.20574e-14 -7.22093e-14 -6.09427e-14 -6.80765e-14 -1.09481e-13 -9.83703e-14 -8.29795e-14 -8.84692e-14 -9.94718e-14 -1.15819e-13 -1.17052e-13 -6.88958e-14 -1.20712e-14 1.96388e-14 1.9703e-14 -3.98117e-14 2.19441e-14 8.30741e-14 2.44802e-14 -1.81769e-14 -8.13289e-14 -9.53493e-14 -9.47021e-14 -3.04336e-14 4.18169e-14 4.54707e-14 6.71253e-14 -9.51696e-15 -1.77042e-14 3.28338e-15 -1.87703e-14 5.43378e-14 5.23888e-14 -9.2327e-15 3.2697e-14 2.93504e-14 -3.07355e-14 5.35515e-15 3.73703e-14 2.16917e-14 3.80814e-14 3.82104e-14 7.50835e-14 9.69104e-14 5.19535e-15 0 0 7.81366e-15 7.56255e-15 8.04471e-15 8.32007e-15 9.00176e-15 1.15288e-14 1.42967e-14 1.22215e-14 9.74249e-15 7.95554e-15 3.50046e-15 5.32179e-15 9.08251e-15 9.36877e-15 9.13419e-15 7.96667e-15 3.60351e-15 2.78071e-15 6.31013e-15 5.45678e-15 7.80339e-15 7.98497e-15 4.07851e-15 -1.59922e-15 -6.49412e-15 -1.77636e-15 2.4313e-15 2.79544e-15 5.99478e-15 5.30093e-15 4.34628e-15 5.55042e-15 6.62167e-15 1.10342e-14 1.28588e-15 2.04388e-15 1.58337e-14 1.07104e-14 9.79768e-15 8.66343e-15 1.61584e-15 3.29634e-15 7.72445e-15 1.67877e-14 1.71765e-15 -6.38571e-15 1.32195e-14 8.68394e-15 1.28285e-14 1.72494e-14 3.04641e-15 1.03862e-14 -7.71335e-16 1.24774e-14 1.61254e-14 -1.98081e-16 -4.49523e-15 -2.34522e-14 -3.3304e-14 -1.00752e-14 2.84462e-14 8.54006e-15 -1.14478e-14 -1.69087e-14 -5.30864e-14 -4.31971e-14 -3.76025e-14 -9.43119e-15 1.55395e-14 -2.09874e-14 -1.71486e-14 -2.04596e-15 2.3439e-15 -1.09119e-14 -1.55231e-14 -9.40375e-15 5.00312e-15 6.79502e-15 -2.44789e-14 -9.71164e-15 3.22612e-15 -1.59328e-14 -4.88954e-15 6.26005e-15 3.23803e-14 2.63612e-14 -5.74502e-15 -3.63283e-14 -1.30492e-14 4.06589e-14 3.06045e-14 6.80716e-15 7.41634e-15 -1.27758e-14 -5.04083e-14 -9.40449e-14 -1.45738e-13 -1.80559e-13 -2.0914e-13 -2.29384e-13 -3.64947e-13 -3.62827e-13 -3.39524e-13 -3.75274e-13 -4.20954e-13 -3.89051e-13 -3.5353e-13 -2.34178e-13 -8.33081e-14 4.05289e-14 1.36405e-13 1.63242e-13 1.70752e-13 1.77747e-13 9.40157e-14 3.05037e-14 -1.59734e-15 -4.46519e-14 -9.75881e-14 -1.15238e-13 -1.77686e-13 -2.56338e-13 -2.3397e-13 -2.02848e-13 -1.97736e-13 -2.03154e-13 -1.92139e-13 -1.85338e-13 -1.92477e-13 -2.42399e-13 -3.01337e-13 -2.79709e-13 -2.45904e-13 -2.6776e-13 -2.24988e-13 -2.0912e-13 -2.56137e-13 -2.42703e-13 -1.89794e-13 -1.17297e-13 -3.71534e-14 -5.85123e-14 -5.61903e-14 -7.77874e-14 -7.89203e-14 -4.01276e-14 -4.92326e-14 -1.71881e-14 -4.42776e-14 -8.45612e-14 -6.82643e-14 -6.8495e-14 -8.794e-14 -6.04603e-14 -4.99552e-14 -3.95358e-14 -3.48589e-14 -7.17574e-14 -5.82268e-14 -1.85689e-14 -2.32573e-14 -5.41661e-15 1.36373e-14 5.47646e-14 1.28289e-13 1.07092e-13 3.81772e-14 2.7084e-14 4.02227e-14 1.09572e-13 8.07028e-14 -1.91912e-14 1.03689e-14 1.70922e-14 2.66993e-14 4.18161e-14 2.29493e-14 -4.49865e-14 -7.10968e-14 -1.12268e-14 -3.87924e-15 4.29214e-14 9.11998e-15 -1.63126e-14 8.93718e-15 -2.77296e-14 3.29619e-14 9.03109e-14 4.0322e-14 2.94043e-14 6.9884e-14 9.05226e-15 -4.63372e-14 -3.70368e-14 -4.36363e-14 -3.49358e-14 -6.86506e-14 -7.42878e-14 1.13305e-14 0 0 0 0 