<?xml version="1.0"?>
<VTKFile type="PolyData">
	<PolyData>
		<Piece NumberOfPoints="1206" NumberOfPolys="1000">
			<Points>
				<DataArray type="Float32" NumberOfComponents="3" format="ascii">
 0 0 0 0.005 0 0 0.01 0 0 0.015 0 0 0.02 0 0 0.025 0 0 0.03 0 0 0.035 0 0 0.04 0 0 0.045 0 0 0.05 0 0 0.055 0 0 0.06 0 0 0.065 0 0 0.07 0 0 0.075 0 0 0.08 0 0 0.085 0 0 0.09 0 0 0.095 0 0 0.1 0 0 0.105 0 0 0.11 0 0 0.115 0 0 0.12 0 0 0.125 0 0 0.13 0 0 0.135 0 0 0.14 0 0 0.145 0 0 0.15 0 0 0.155 0 0 0.16 0 0 0.165 0 0 0.17 0 0 0.175 0 0 0.18 0 0 0.185 0 0 0.19 0 0 0.195 0 0 0.2 0 0 0.205 0 0 0.21 0 0 0.215 0 0 0.22 0 0 0.225 0 0 0.23 0 0 0.235 0 0 0.24 0 0 0.245 0 0 0.25 0 0 0.255 0 0 0.26 0 0 0.265 0 0 0.27 0 0 0.275 0 0 0.28 0 0 0.285 0 0 0.29 0 0 0.295 0 0 0.3 0 0 0.305 0 0 0.31 0 0 0.315 0 0 0.32 0 0 0.325 0 0 0.33 0 0 0.335 0 0 0.34 0 0 0.345 0 0 0.35 0 0 0.355 0 0 0.36 0 0 0.365 0 0 0.37 0 0 0.375 0 0 0.38 0 0 0.385 0 0 0.39 0 0 0.395 0 0 0.4 0 0 0.405 0 0 0.41 0 0 0.415 0 0 0.42 0 0 0.425 0 0 0.43 0 0 0.435002 0 0 0.44001 0 0 0.445046 0 0 0.450167 0 0 0.455484 0 0 0.461144 0 0 0.467308 0 0 0.474149 0 0 0.481882 0 0 0.490802 0 0 0.501285 0 0 0.513457 0 0 0.525905 0 0 0.537917 0 0 0.540555 0 0 0.543117 0 0 0.545633 0 0 0.548119 0 0 0.550585 0 0 0.553039 0 0 0.555489 0 0 0.557942 0 0 0.560418 0 0 0.562929 0 0 0.5655 0 0 0.568203 0 0 0.571086 0 0 0.574237 0 0 0.57771 0 0 0.581557 0 0 0.585779 0 0 0.590332 0 0 0.595119 0 0 0.600038 0 0 0.605011 0 0 0.610003 0 0 0.615001 0 0 0.62 0 0 0.625 0 0 0.63 0 0 0.635 0 0 0.64 0 0 0.645 0 0 0.65 0 0 0.655 0 0 0.66 0 0 0.665 0 0 0.67 0 0 0.675 0 0 0.68 0 0 0.685 0 0 0.69 0 0 0.695 0 0 0.7 0 0 0.705 0 0 0.71 0 0 0.715 0 0 0.72 0 0 0.725 0 0 0.73 0 0 0.735 0 0 0.74 0 0 0.745 0 0 0.75 0 0 0.755 0 0 0.76 0 0 0.765 0 0 0.77 0 0 0.775 0 0 0.78 0 0 0.785 0 0 0.79 0 0 0.795 0 0 0.8 0 0 0.805 0 0 0.81 0 0 0.815 0 0 0.82 0 0 0.825 0 0 0.83 0 0 0.835 0 0 0.84 0 0 0.845 0 0 0.85 0 0 0.855 0 0 0.86 0 0 0.865 0 0 0.87 0 0 0.875 0 0 0.88 0 0 0.885 0 0 0.89 0 0 0.895 0 0 0.9 0 0 0.905 0 0 0.91 0 0 0.915 0 0 0.92 0 0 0.925 0 0 0.93 0 0 0.935 0 0 0.94 0 0 0.945 0 0 0.95 0 0 0.955 0 0 0.96 0 0 0.965 0 0 0.97 0 0 0.975 0 0 0.98 0 0 0.985 0 0 0.99 0 0 0.995 0 0 1 0 0 0 0.02 0 0.005 0.02 0 0.01 0.02 0 0.015 0.02 0 0.02 0.02 0 0.025 0.02 0 0.03 0.02 0 0.035 0.02 0 0.04 0.02 0 0.045 0.02 0 0.05 0.02 0 0.055 0.02 0 0.06 0.02 0 0.065 0.02 0 0.07 0.02 0 0.075 0.02 0 0.08 0.02 0 0.085 0.02 0 0.09 0.02 0 0.095 0.02 0 0.1 0.02 0 0.105 0.02 0 0.11 0.02 0 0.115 0.02 0 0.12 0.02 0 0.125 0.02 0 0.13 0.02 0 0.135 0.02 0 0.14 0.02 0 0.145 0.02 0 0.15 0.02 0 0.155 0.02 0 0.16 0.02 0 0.165 0.02 0 0.17 0.02 0 0.175 0.02 0 0.18 0.02 0 0.185 0.02 0 0.19 0.02 0 0.195 0.02 0 0.2 0.02 0 0.205 0.02 0 0.21 0.02 0 0.215 0.02 0 0.22 0.02 0 0.225 0.02 0 0.23 0.02 0 0.235 0.02 0 0.24 0.02 0 0.245 0.02 0 0.25 0.02 0 0.255 0.02 0 0.26 0.02 0 0.265 0.02 0 0.27 0.02 0 0.275 0.02 0 0.28 0.02 0 0.285 0.02 0 0.29 0.02 0 0.295 0.02 0 0.3 0.02 0 0.305 0.02 0 0.31 0.02 0 0.315 0.02 0 0.32 0.02 0 0.325 0.02 0 0.33 0.02 0 0.335 0.02 0 0.34 0.02 0 0.345 0.02 0 0.35 0.02 0 0.355 0.02 0 0.36 0.02 0 0.365 0.02 0 0.37 0.02 0 0.375 0.02 0 0.38 0.02 0 0.385 0.02 0 0.39 0.02 0 0.395 0.02 0 0.4 0.02 0 0.405 0.02 0 0.41 0.02 0 0.415 0.02 0 0.42 0.02 0 0.425 0.02 0 0.43 0.02 0 0.435002 0.02 0 0.44001 0.02 0 0.445046 0.02 0 0.450167 0.02 0 0.455484 0.02 0 0.461144 0.02 0 0.467308 0.02 0 0.474149 0.02 0 0.481882 0.02 0 0.490802 0.02 0 0.501285 0.02 0 0.513457 0.02 0 0.525905 0.02 0 0.537917 0.02 0 0.540555 0.02 0 0.543117 0.02 0 0.545633 0.02 0 0.548119 0.02 0 0.550585 0.02 0 0.553039 0.02 0 0.555489 0.02 0 0.557942 0.02 0 0.560418 0.02 0 0.562929 0.02 0 0.5655 0.02 0 0.568203 0.02 0 0.571086 0.02 0 0.574237 0.02 0 0.57771 0.02 0 0.581557 0.02 0 0.585779 0.02 0 0.590332 0.02 0 0.595119 0.02 0 0.600038 0.02 0 0.605011 0.02 0 0.610003 0.02 0 0.615001 0.02 0 0.62 0.02 0 0.625 0.02 0 0.63 0.02 0 0.635 0.02 0 0.64 0.02 0 0.645 0.02 0 0.65 0.02 0 0.655 0.02 0 0.66 0.02 0 0.665 0.02 0 0.67 0.02 0 0.675 0.02 0 0.68 0.02 0 0.685 0.02 0 0.69 0.02 0 0.695 0.02 0 0.7 0.02 0 0.705 0.02 0 0.71 0.02 0 0.715 0.02 0 0.72 0.02 0 0.725 0.02 0 0.73 0.02 0 0.735 0.02 0 0.74 0.02 0 0.745 0.02 0 0.75 0.02 0 0.755 0.02 0 0.76 0.02 0 0.765 0.02 0 0.77 0.02 0 0.775 0.02 0 0.78 0.02 0 0.785 0.02 0 0.79 0.02 0 0.795 0.02 0 0.8 0.02 0 0.805 0.02 0 0.81 0.02 0 0.815 0.02 0 0.82 0.02 0 0.825 0.02 0 0.83 0.02 0 0.835 0.02 0 0.84 0.02 0 0.845 0.02 0 0.85 0.02 0 0.855 0.02 0 0.86 0.02 0 0.865 0.02 0 0.87 0.02 0 0.875 0.02 0 0.88 0.02 0 0.885 0.02 0 0.89 0.02 0 0.895 0.02 0 0.9 0.02 0 0.905 0.02 0 0.91 0.02 0 0.915 0.02 0 0.92 0.02 0 0.925 0.02 0 0.93 0.02 0 0.935 0.02 0 0.94 0.02 0 0.945 0.02 0 0.95 0.02 0 0.955 0.02 0 0.96 0.02 0 0.965 0.02 0 0.97 0.02 0 0.975 0.02 0 0.98 0.02 0 0.985 0.02 0 0.99 0.02 0 0.995 0.02 0 1 0.02 0 0 0.04 0 0.005 0.04 0 0.01 0.04 0 0.015 0.04 0 0.02 0.04 0 0.025 0.04 0 0.03 0.04 0 0.035 0.04 0 0.04 0.04 0 0.045 0.04 0 0.05 0.04 0 0.055 0.04 0 0.06 0.04 0 0.065 0.04 0 0.07 0.04 0 0.075 0.04 0 0.08 0.04 0 0.085 0.04 0 0.09 0.04 0 0.095 0.04 0 0.1 0.04 0 0.105 0.04 0 0.11 0.04 0 0.115 0.04 0 0.12 0.04 0 0.125 0.04 0 0.13 0.04 0 0.135 0.04 0 0.14 0.04 0 0.145 0.04 0 0.15 0.04 0 0.155 0.04 0 0.16 0.04 0 0.165 0.04 0 0.17 0.04 0 0.175 0.04 0 0.18 0.04 0 0.185 0.04 0 0.19 0.04 0 0.195 0.04 0 0.2 0.04 0 0.205 0.04 0 0.21 0.04 0 0.215 0.04 0 0.22 0.04 0 0.225 0.04 0 0.23 0.04 0 0.235 0.04 0 0.24 0.04 0 0.245 0.04 0 0.25 0.04 0 0.255 0.04 0 0.26 0.04 0 0.265 0.04 0 0.27 0.04 0 0.275 0.04 0 0.28 0.04 0 0.285 0.04 0 0.29 0.04 0 0.295 0.04 0 0.3 0.04 0 0.305 0.04 0 0.31 0.04 0 0.315 0.04 0 0.32 0.04 0 0.325 0.04 0 0.33 0.04 0 0.335 0.04 0 0.34 0.04 0 0.345 0.04 0 0.35 0.04 0 0.355 0.04 0 0.36 0.04 0 0.365 0.04 0 0.37 0.04 0 0.375 0.04 0 0.38 0.04 0 0.385 0.04 0 0.39 0.04 0 0.395 0.04 0 0.4 0.04 0 0.405 0.04 0 0.41 0.04 0 0.415 0.04 0 0.42 0.04 0 0.425 0.04 0 0.43 0.04 0 0.435002 0.04 0 0.44001 0.04 0 0.445046 0.04 0 0.450167 0.04 0 0.455484 0.04 0 0.461144 0.04 0 0.467308 0.04 0 0.474149 0.04 0 0.481882 0.04 0 0.490802 0.04 0 0.501285 0.04 0 0.513457 0.04 0 0.525905 0.04 0 0.537917 0.04 0 0.540555 0.04 0 0.543117 0.04 0 0.545633 0.04 0 0.548119 0.04 0 0.550585 0.04 0 0.553039 0.04 0 0.555489 0.04 0 0.557942 0.04 0 0.560418 0.04 0 0.562929 0.04 0 0.5655 0.04 0 0.568203 0.04 0 0.571086 0.04 0 0.574237 0.04 0 0.57771 0.04 0 0.581557 0.04 0 0.585779 0.04 0 0.590332 0.04 0 0.595119 0.04 0 0.600038 0.04 0 0.605011 0.04 0 0.610003 0.04 0 0.615001 0.04 0 0.62 0.04 0 0.625 0.04 0 0.63 0.04 0 0.635 0.04 0 0.64 0.04 0 0.645 0.04 0 0.65 0.04 0 0.655 0.04 0 0.66 0.04 0 0.665 0.04 0 0.67 0.04 0 0.675 0.04 0 0.68 0.04 0 0.685 0.04 0 0.69 0.04 0 0.695 0.04 0 0.7 0.04 0 0.705 0.04 0 0.71 0.04 0 0.715 0.04 0 0.72 0.04 0 0.725 0.04 0 0.73 0.04 0 0.735 0.04 0 0.74 0.04 0 0.745 0.04 0 0.75 0.04 0 0.755 0.04 0 0.76 0.04 0 0.765 0.04 0 0.77 0.04 0 0.775 0.04 0 0.78 0.04 0 0.785 0.04 0 0.79 0.04 0 0.795 0.04 0 0.8 0.04 0 0.805 0.04 0 0.81 0.04 0 0.815 0.04 0 0.82 0.04 0 0.825 0.04 0 0.83 0.04 0 0.835 0.04 0 0.84 0.04 0 0.845 0.04 0 0.85 0.04 0 0.855 0.04 0 0.86 0.04 0 0.865 0.04 0 0.87 0.04 0 0.875 0.04 0 0.88 0.04 0 0.885 0.04 0 0.89 0.04 0 0.895 0.04 0 0.9 0.04 0 0.905 0.04 0 0.91 0.04 0 0.915 0.04 0 0.92 0.04 0 0.925 0.04 0 0.93 0.04 0 0.935 0.04 0 0.94 0.04 0 0.945 0.04 0 0.95 0.04 0 0.955 0.04 0 0.96 0.04 0 0.965 0.04 0 0.97 0.04 0 0.975 0.04 0 0.98 0.04 0 0.985 0.04 0 0.99 0.04 0 0.995 0.04 0 1 0.04 0 0 0.06 0 0.005 0.06 0 0.01 0.06 0 0.015 0.06 0 0.02 0.06 0 0.025 0.06 0 0.03 0.06 0 0.035 0.06 0 0.04 0.06 0 0.045 0.06 0 0.05 0.06 0 0.055 0.06 0 0.06 0.06 0 0.065 0.06 0 0.07 0.06 0 0.075 0.06 0 0.08 0.06 0 0.085 0.06 0 0.09 0.06 0 0.095 0.06 0 0.1 0.06 0 0.105 0.06 0 0.11 0.06 0 0.115 0.06 0 0.12 0.06 0 0.125 0.06 0 0.13 0.06 0 0.135 0.06 0 0.14 0.06 0 0.145 0.06 0 0.15 0.06 0 0.155 0.06 0 0.16 0.06 0 0.165 0.06 0 0.17 0.06 0 0.175 0.06 0 0.18 0.06 0 0.185 0.06 0 0.19 0.06 0 0.195 0.06 0 0.2 0.06 0 0.205 0.06 0 0.21 0.06 0 0.215 0.06 0 0.22 0.06 0 0.225 0.06 0 0.23 0.06 0 0.235 0.06 0 0.24 0.06 0 0.245 0.06 0 0.25 0.06 0 0.255 0.06 0 0.26 0.06 0 0.265 0.06 0 0.27 0.06 0 0.275 0.06 0 0.28 0.06 0 0.285 0.06 0 0.29 0.06 0 0.295 0.06 0 0.3 0.06 0 0.305 0.06 0 0.31 0.06 0 0.315 0.06 0 0.32 0.06 0 0.325 0.06 0 0.33 0.06 0 0.335 0.06 0 0.34 0.06 0 0.345 0.06 0 0.35 0.06 0 0.355 0.06 0 0.36 0.06 0 0.365 0.06 0 0.37 0.06 0 0.375 0.06 0 0.38 0.06 0 0.385 0.06 0 0.39 0.06 0 0.395 0.06 0 0.4 0.06 0 0.405 0.06 0 0.41 0.06 0 0.415 0.06 0 0.42 0.06 0 0.425 0.06 0 0.43 0.06 0 0.435002 0.06 0 0.44001 0.06 0 0.445046 0.06 0 0.450167 0.06 0 0.455484 0.06 0 0.461144 0.06 0 0.467308 0.06 0 0.474149 0.06 0 0.481882 0.06 0 0.490802 0.06 0 0.501285 0.06 0 0.513457 0.06 0 0.525905 0.06 0 0.537917 0.06 0 0.540555 0.06 0 0.543117 0.06 0 0.545633 0.06 0 0.548119 0.06 0 0.550585 0.06 0 0.553039 0.06 0 0.555489 0.06 0 0.557942 0.06 0 0.560418 0.06 0 0.562929 0.06 0 0.5655 0.06 0 0.568203 0.06 0 0.571086 0.06 0 0.574237 0.06 0 0.57771 0.06 0 0.581557 0.06 0 0.585779 0.06 0 0.590332 0.06 0 0.595119 0.06 0 0.600038 0.06 0 0.605011 0.06 0 0.610003 0.06 0 0.615001 0.06 0 0.62 0.06 0 0.625 0.06 0 0.63 0.06 0 0.635 0.06 0 0.64 0.06 0 0.645 0.06 0 0.65 0.06 0 0.655 0.06 0 0.66 0.06 0 0.665 0.06 0 0.67 0.06 0 0.675 0.06 0 0.68 0.06 0 0.685 0.06 0 0.69 0.06 0 0.695 0.06 0 0.7 0.06 0 0.705 0.06 0 0.71 0.06 0 0.715 0.06 0 0.72 0.06 0 0.725 0.06 0 0.73 0.06 0 0.735 0.06 0 0.74 0.06 0 0.745 0.06 0 0.75 0.06 0 0.755 0.06 0 0.76 0.06 0 0.765 0.06 0 0.77 0.06 0 0.775 0.06 0 0.78 0.06 0 0.785 0.06 0 0.79 0.06 0 0.795 0.06 0 0.8 0.06 0 0.805 0.06 0 0.81 0.06 0 0.815 0.06 0 0.82 0.06 0 0.825 0.06 0 0.83 0.06 0 0.835 0.06 0 0.84 0.06 0 0.845 0.06 0 0.85 0.06 0 0.855 0.06 0 0.86 0.06 0 0.865 0.06 0 0.87 0.06 0 0.875 0.06 0 0.88 0.06 0 0.885 0.06 0 0.89 0.06 0 0.895 0.06 0 0.9 0.06 0 0.905 0.06 0 0.91 0.06 0 0.915 0.06 0 0.92 0.06 0 0.925 0.06 0 0.93 0.06 0 0.935 0.06 0 0.94 0.06 0 0.945 0.06 0 0.95 0.06 0 0.955 0.06 0 0.96 0.06 0 0.965 0.0
[...]
			<PointData Scalars="VitesseX">
				<DataArray Name="VitesseX" type="Float32" format="ascii">
 0 1.50252e-15 -2.85375e-16 9.7929e-16 2.34883e-17 1.57405e-16 -1.21821e-15 5.03186e-16 4.41872e-16 -2.66032e-16 -4.82839e-15 2.47656e-15 -5.37025e-16 -1.17859e-15 5.41492e-15 -5.30347e-15 -2.51988e-15 1.14982e-14 -1.21095e-14 1.04534e-14 -6.87794e-15 1.00558e-14 -2.7874e-15 -1.03087e-14 9.78633e-15 -9.54048e-15 1.66614e-14 4.62871e-16 -1.96484e-14 2.47543e-14 -2.04986e-14 3.04528e-14 -1.11644e-14 -6.09909e-15 4.18946e-15 -6.23518e-15 1.76613e-14 -1.5251e-14 2.2711e-14 -1.40205e-14 1.63274e-14 -3.5355e-14 -2.88188e-14 1.99844e-14 1.60643e-14 5.99545e-15 -1.98152e-14 1.01749e-14 -4.41184e-15 -5.79944e-16 4.27861e-14 -1.02618e-14 -3.66056e-14 4.2564e-14 -4.89021e-14 1.05997e-14 2.76135e-14 -2.25549e-14 5.68149e-14 -2.17693e-14 -3.10934e-14 4.61088e-14 6.72895e-16 -1.0681e-14 3.80162e-14 -3.4497e-15 2.32301e-14 -3.97848e-14 3.35253e-14 -6.01818e-14 6.91635e-15 3.2441e-14 1.92927e-14 -1.7111e-14 -4.22982e-14 2.61088e-14 3.83392e-14 6.20608e-14 1.70228e-13 3.29005e-12 5.99139e-11 9.51416e-10 1.33326e-08 1.63426e-07 1.73386e-06 1.5717e-05 0.000119755 0.00075103 0.00377467 0.0147607 0.043995 0.100771 0.185562 0.292742 0.418341 0.561866 0.723209 0.891682 0.991744 0.947055 0.931537 0.929305 0.926395 0.922902 0.919226 0.916038 0.914508 0.914018 0.912703 0.901119 0.889784 0.841355 0.800817 0.705741 0.609119 0.47644 0.340713 0.210568 0.108532 0.0452352 0.0156454 0.00478701 0.00136144 0.000367899 9.51281e-05 2.35737e-05 5.59895e-06 1.2743e-06 2.77907e-07 5.80823e-08 1.1636e-08 2.23521e-09 4.1189e-10 7.28536e-11 1.23465e-11 1.9986e-12 3.79236e-13 -3.1888e-14 -1.27011e-14 -2.3283e-14 6.68464e-14 4.04102e-14 -1.89586e-15 -1.28556e-13 6.00492e-14 5.22966e-14 -6.85949e-14 4.10563e-14 -4.40652e-15 4.75092e-14 -2.04484e-14 -3.45168e-14 5.16288e-14 -7.20392e-14 3.06335e-14 7.92125e-14 5.81963e-14 3.71096e-14 -9.97177e-14 3.78283e-14 -6.24862e-14 1.18784e-13 1.36251e-15 -2.36895e-14 -5.35767e-14 6.61141e-14 -2.94379e-14 -3.07955e-14 -2.46404e-14 5.10977e-14 -9.95457e-14 1.00156e-13 -1.024e-13 7.73737e-14 -5.11074e-14 3.78737e-15 -6.67493e-15 -8.86422e-14 -2.98736e-14 6.73842e-15 6.86158e-14 -5.46327e-14 -3.0334e-14 4.56892e-14 1.58532e-14 -4.68156e-14 -7.38898e-15 -9.42994e-15 -3.18409e-14 -3.21779e-14 1.75866e-14 -5.25393e-14 3.63623e-14 -8.13729e-14 2.93504e-14 4.90466e-14 4.81844e-14 -3.22234e-14 -2.36986e-14 2.32023e-15 0 0 -6.07023e-16 -1.08807e-15 -1.79421e-15 -1.72401e-15 1.33615e-15 6.18639e-16 5.35601e-15 -5.81715e-16 -4.51194e-15 1.44651e-15 3.74641e-16 -4.4967e-15 8.54895e-15 -2.95024e-15 7.01946e-15 -1.10257e-14 -1.76223e-15 9.08237e-15 -1.25271e-14 6.52756e-15 7.72305e-15 3.46311e-15 -8.3946e-15 -5.81319e-15 2.92051e-15 2.90067e-14 -2.33136e-14 -1.16747e-15 9.05645e-15 1.07369e-14 -1.0398e-14 3.17293e-15 -4.79809e-15 5.39557e-15 6.29358e-15 3.90826e-15 -5.46218e-15 -6.72919e-15 1.03542e-14 -2.12949e-14 1.56973e-14 -2.82762e-14 2.96989e-15 2.44695e-15 1.43399e-14 1.08011e-14 -1.24711e-14 -1.90614e-14 -4.12468e-15 4.01772e-14 -1.73384e-14 2.97274e-14 -3.02592e-14 4.2119e-14 -3.3912e-14 2.21483e-14 2.26077e-14 -1.19671e-14 -1.10837e-14 2.69051e-14 -7.50086e-15 -5.94418e-15 2.58755e-14 6.72724e-15 1.43456e-14 2.24435e-14 -4.66451e-14 -1.35009e-14 1.5811e-14 8.70279e-15 -1.26705e-14 9.16534e-15 2.14579e-14 -1.54644e-14 1.13801e-14 5.33719e-14 -7.26225e-16 1.46097e-13 3.35005e-12 5.98915e-11 9.51387e-10 1.33326e-08 1.63426e-07 1.73386e-06 1.5717e-05 0.000119755 0.00075103 0.00377467 0.0147607 0.043995 0.100771 0.185562 0.292742 0.418341 0.561866 0.723209 0.891682 0.991744 0.947055 0.931537 0.929305 0.926395 0.922902 0.919226 0.916038 0.914508 0.914018 0.912703 0.901119 0.889784 0.841355 0.800817 0.705741 0.609119 0.47644 0.340713 0.210568 0.108532 0.0452352 0.0156454 0.00478701 0.00136144 0.000367899 9.51281e-05 2.35737e-05 5.59895e-06 1.2743e-06 2.77907e-07 5.80822e-08 1.1636e-08 2.23519e-09 4.11885e-10 7.28716e-11 1.23656e-11 2.0332e-12 2.79184e-13 4.53368e-14 3.91734e-15 -4.89383e-14 1.99034e-14 1.02008e-13 -5.34526e-14 -5.99138e-14 -7.04681e-15 7.84355e-14 -2.9486e-14 -2.96387e-14 6.2654e-14 -1.56386e-14 -5.06494e-14 6.08841e-14 -4.38639e-14 2.81001e-14 3.05317e-14 9.67303e-14 4.15972e-14 3.87096e-14 -1.12453e-14 -9.41355e-14 2.59118e-14 2.07218e-14 1.5562e-15 3.09149e-14 5.57332e-15 -8.82591e-14 -7.90896e-14 2.69836e-14 2.10034e-14 2.26111e-14 -4.84811e-14 8.23691e-14 -1.44807e-13 1.31133e-13 -9.24728e-14 4.40688e-14 -7.96357e-14 -4.61482e-14 -6.93079e-14 -1.83539e-14 8.01868e-14 4.54989e-14 -1.03899e-13 1.02313e-13 -6.87666e-14 3.0772e-14 1.63054e-14 -9.95178e-14 6.5788e-14 -4.8454e-14 4.18711e-15 -1.29873e-13 5.84981e-14 -6.61808e-14 1.21702e-14 4.16755e-14 5.69747e-14 -1.20416e-14 2.76244e-14 -6.88998e-14 0 0 -1.0347e-15 -1.71305e-15 -1.37979e-15 -1.14435e-16 2.25741e-15 2.34919e-15 1.88339e-15 -4.62157e-15 4.02146e-15 -5.74457e-15 7.39911e-16 -3.52408e-15 1.0204e-14 1.03428e-15 5.78785e-15 -7.42849e-15 -1.44855e-14 1.32471e-14 -2.69524e-15 9.23344e-15 5.20086e-15 -1.89614e-15 -1.60412e-14 4.71518e-15 2.53769e-14 -9.97678e-15 -3.90772e-15 -2.05271e-15 1.6647e-14 1.57873e-14 -2.48008e-14 -1.62826e-14 1.84112e-14 -3.91455e-15 2.33939e-14 -1.11464e-14 -6.08206e-15 -1.41026e-14 3.57313e-15 -7.76953e-15 1.23843e-14 5.76608e-15 -1.07523e-14 5.94429e-15 -1.88206e-14 -1.72784e-15 1.16145e-14 -8.781e-15 1.6618e-14 -2.06268e-14 4.30961e-14 -1.48643e-14 -3.90843e-15 5.62767e-14 -2.63656e-14 1.93525e-14 1.46353e-14 -3.74093e-14 9.65331e-15 1.47348e-14 3.96133e-15 -7.93767e-15 3.16292e-14 9.24998e-15 5.2296e-15 -1.1809e-14 3.21128e-14 -3.63927e-14 2.98289e-14 -2.70038e-14 4.23758e-15 2.16447e-14 -2.33203e-14 4.98084e-14 8.91742e-15 5.08772e-14 -3.98874e-14 1.14696e-13 3.39853e-12 5.98623e-11 9.514e-10 1.33326e-08 1.63426e-07 1.73386e-06 1.5717e-05 0.000119755 0.00075103 0.00377467 0.0147607 0.043995 0.100771 0.185562 0.292742 0.418341 0.561866 0.723209 0.891682 0.991744 0.947055 0.931537 0.929305 0.926395 0.922902 0.919226 0.916038 0.914508 0.914018 0.912703 0.901119 0.889784 0.841355 0.800817 0.705741 0.609119 0.47644 0.340713 0.210568 0.108532 0.0452352 0.0156454 0.00478701 0.00136144 0.000367899 9.51281e-05 2.35737e-05 5.59895e-06 1.2743e-06 2.77907e-07 5.80822e-08 1.16361e-08 2.2352e-09 4.11898e-10 7.28658e-11 1.24052e-11 2.01838e-12 2.29876e-13 1.84053e-14 1.04884e-13 4.55466e-14 -2.18148e-14 3.37611e-14 -1.52727e-13 9.43787e-14 -5.74193e-14 9.68287e-14 -2.29623e-15 -6.69204e-14 4.56959e-14 -1.5649e-14 -5.67041e-14 1.87434e-14 2.58586e-14 3.1801e-14 2.59978e-14 2.03193e-14 3.85209e-14 9.50239e-14 -6.44311e-15 -9.75666e-14 7.6077e-14 3.61343e-14 -7.01531e-14 -3.09937e-14 -1.11775e-14 -7.1086e-14 -1.56723e-14 -8.39341e-14 7.40961e-14 3.52757e-14 -3.9545e-15 3.58033e-15 -1.88851e-14 1.45304e-14 -3.23147e-14 2.46873e-14 -2.52496e-14 -3.37005e-14 -1.33898e-13 -2.00366e-14 1.88177e-14 6.32718e-14 -8.83158e-14 1.12417e-14 6.49599e-14 -4.64598e-14 6.96342e-14 -1.37873e-13 6.45873e-14 6.05974e-14 -1.32414e-13 -6.51011e-14 7.20229e-14 -9.52944e-15 -6.6209e-14 4.25509e-14 -2.09662e-14 3.3592e-14 7.78727e-14 -1.46284e-13 0 0 -1.55391e-15 -4.20926e-16 -8.43936e-16 2.13883e-15 -1.71773e-15 3.21879e-15 1.28708e-15 -4.20727e-15 1.69624e-15 -6.00408e-15 5.43764e-15 -7.07823e-15 1.1191e-14 1.11228e-15 -1.0478e-15 6.92263e-15 -1.2851e-14 1.46741e-14 5.59564e-15 5.4932e-15 2.25664e-15 -2.53878e-14 -7.6502e-15 2.62163e-14 8.13528e-15 -2.42308e-14 2.45754e-14 2.89888e-15 -1.5796e-15 1.72058e-14 -2.15524e-14 -2.80469e-14 7.70605e-15 1.37514e-14 2.15299e-14 -2.25204e-14 1.21396e-14 2.11767e-15 -2.14999e-14 1.66037e-14 -6.45614e-15 2.6115e-15 1.26429e-14 -1.85283e-14 1.70777e-14 -2.8784e-14 1.82887e-14 2.57363e-14 -6.9602e-15 -3.9822e-14 5.28858e-14 -6.51823e-14 4.08197e-14 4.44921e-14 2.17706e-14 -5.26037e-14 4.26976e-14 -5.31647e-14 3.87844e-14 -2.66848e-14 3.59126e-14 1.69754e-14 -3.49512e-14 5.17236e-14 -1.12295e-14 -1.34761e-14 6.78069e-14 -5.3178e-14 -3.57241e-15 2.30302e-14 9.71042e-15 3.81438e-14 -7.25838e-15 4.65895e-14 -3.36193e-14 2.4791e-15 2.28497e-14 1.99137e-13 3.34067e-12 5.98569e-11 9.51352e-10 1.33327e-08 1.63426e-07 1.73386e-06 1.5717e-05 0.000119755 0.00075103 0.00377467 0.0147607 0.043995 0.100771 0.185562 0.292742 0.418341 0.561866 0.723209 0.891682 0.991744 0.947055 0.931537 0.929305 0.926395 0.922902 0.919226 0.916038 0.914508 0.914018 0.912703 0.901119 0.889784 0.841355 0.800817 0.705741 0.609119 0.47644 0.340713 0.210568 0.108532 0.0452352 0.0156454 0.00478701 0.00136144 0.000367899 9.51281e-05 2.35737e-05 5.59895e-06 1.2743e-06 2.77907e-07 5.80822e-08 1.1636e-08 2.23524e-09 4.11913e-10 7.28275e-11 1.23513e-11 2.07137e-12 3.34125e-13 -7.98068e-14 1.15739e-13 2.80562e-14 7.53593e-14 -3.77699e-16 -1.32672e-13 -4.96028e-14 -1.10001e-14 -8.82529e-15 3.1302e-14 3.14309e-14 2.5656e-14 4.16421e-14 -3.10606e-14 -5.88823e-14 1.50551e-13 -3.19902e-14 -1.71014e-15 1.90068e-14 5.16944e-14 8.71163e-14 3.90327e-14 -2.07082e-14 9.54102e-15 1.5826e-13 -1.86879e-13 -1.71817e-13 1.55874e-14 2.3893e-14 1.10031e-13 -9.4382e-14 4.10548e-14 -1.18303e-13 1.60842e-14 1.22799e-14 -4.68127e-14 2.35101e-14 -6.63141e-14 6.09931e-14 1.90311e-16 3.96768e-15 -1.61681e-13 -6.18779e-15 6.3972e-14 -1.60249e-13 1.21437e-13 -8.94433e-15 6.51861e-14 -8.64588e-14 8.4051e-15 -7.90525e-14 2.49265e-14 4.98703e-14 -9.27771e-14 6.09614e-15 -4.12043e-14 -8.48173e-15 -9.58876e-15 6.74677e-14 -6.44548e-14 -7.32769e-14 3.4327e-14 5.13958e-14 0 0 -6.79902e-16 -1.39685e-15 -1.24251e-15 1.30057e-16 -1.3901e-15 2.52152e-15 5.27888e-15 -2.08283e-15 -1.83668e-15 4.41911e-15 -3.03759e-15 -6.98078e-15 1.17578e-14 -4.3384e-16 6.83014e-15 4.09891e-15 -1.17242e-14 1.67348e-14 -5.06727e-15 1.43885e-14 -1.75079e-14 -4.81986e-15 8.7633e-15 5.14708e-15 -1.76087e-14 1.28611e-14 7.02252e-15 -5.36815e-15 -1.25195e-14 3.69312e-14 -1.24923e-14 -1.1302e-14 -1.35975e-14 2.58116e-14 5.68848e-15 -1.46114e-14 -4.03437e-15 -5.38594e-15 -6.45902e-15 1.71179e-14 1.3333e-14 1.81057e-14 6.89447e-16 -2.64694e-14 3.22124e-14 1.21743e-14 -5.63949e-14 1.99064e-14 -1.31458e-14 4.32998e-15 1.51778e-15 4.96624e-14 -4.8341e-15 3.68154e-14 -5.10992e-15 -5.54093e-14 5.36963e-14 -6.49034e-14 8.1656e-15 2.60331e-14 -1.96609e-14 3.98023e-14 -3.81389e-14 2.6031e-14 6.0687e-15 -1.80803e-14 -6.09849e-15 -1.75373e-14 4.3753e-14 1.35203e-13 -4.5786e-14 -2.62423e-14 9.58568e-14 -4.19084e-14 -5.53694e-14 -3.12456e-14 9.66436e-14 3.81321e-13 3.22689e-12 5.98148e-11 9.51246e-10 1.33328e-08 1.63426e-07 1.73386e-06 1.5717e-05 0.000119755 0.00075103 0.00377467 0.0147607 0.043995 0.100771 0.185562 0.292742 0.418341 0.561866 0.723209 0.891682 0.991744 0.947055 0.931537 0.929305 0.926395 0.922902 0.919226 0.916038 0.914508 0.914018 0.912703 0.901119 0.889784 0.841355 0.800817 0.705741 0.609119 0.47644 0.340713 0.210568 0.108532 0.0452352 0.0156454 0.00478701 0.00136144 0.000367899 9.51281e-05 2.35737e-05 5.59895e-06 1.2743e-06 2.77907e-07 5.80822e-08 1.1636e-08 2.23527e-09 4.11842e-10 7.29233e-11 1.2295e-11 2.17566e-12 2.52574e-13 2.9725e-14 -2.94127e-14 -9.64079e-14 1.20118e-13 9.85402e-14 7.06454e-15 -1.81191e-13 -9.47423e-15 -2.69994e-14 -7.91226e-14 7.83654e-14 6.49266e-14 8.66799e-14 7.22897e-15 -4.05055e-15 1.74777e-14 -6.23808e-14 3.27282e-14 2.20156e-13 -6.6395e-14 -1.95683e-14 2.18725e-13 -1.00355e-13 1.31415e-14 1.64002e-13 -3.61569e-13 -3.53029e-14 1.19059e-13 -1.70686e-13 2.01115e-13 2.80015e-14 -3.82668e-14 -4.48817e-14 -3.09128e-14 -8.38782e-14 -1.10336e-13 1.36659e-13 -9.81848e-14 1.99132e-14 -2.4973e-14 5.06368e-14 -1.65682e-13 -2.611e-14 1.22652e-13 -8.02807e-14 2.06822e-14 1.48458e-13 -1.2372e-13 1.29661e-14 -6.30967e-14 -2.03026e-14 -1.15694e-14 -2.02315e-14 3.69145e-14 -5.7083e-14 -1.00359e-13 -5.71779e-14 2.88766e-14 -1.31867e-14 5.95466e-14 2.79344e-14 -7.45974e-14 5.80126e-14 0 0 2.39518e-15 -3.48717e-15 1.01099e-15 -7.74919e-16 2.65517e-15 8.48336e-16 1.54156e-15 -3.38896e-15 9.73494e-15 1.63582e-15 -1.37434e-14 1.60313e-15 3.26524e-15 1.02917e-14 7.9892e-15 -9.72972e-16 -1.16949e-14 3.41421e-16 8.79142e-15 1.63243e-14 -3.45177e-14 2.763e-14 7.2251e-15 -1.12955e-14 -1.61157e-14 1.28782e-14 4.16886e-15 -3.7953e-14 1.80556e-14 2.90531e-14 1.97676e-14 -1.65856e-14 -2.28772e-15 9.68956e-15 -3.71726e-15 3.37009e-15 -4.88387e-14 -7.04311e-15 2.49911e-15 4.44066e-14 -2.4026e-15 7.02542e-14 -3.13669e-14 7.17681e-15 -3.00561e-14 3.70436e-14 -9.1021e-14 4.48913e-15 2.85343e-14 9.48206e-15 7.87122e-15 1.03901e-13 3.958e-15 -3.59401e-14 -2.80685e-14 1.64107e-14 -1.65021e-14 -1.75467e-14 -4.15329e-14 5.00016e-14 -4.21139e-14 4.23399e-14 -5.54912e-15 -8.32369e-15 1.29148e-14 -5.44835e-14 -3.00799e-14 5.90231e-14 6.25049e-14 1.59848e-13 -4.47358e-14 -8.45207e-14 9.95629e-14 -8.87483e-14 -2.23167e-14 -3.40996e-14 1.31326e-13 4.71794e-13 3.15943e-12 5.97713e-11 9.5123e-10 1.33327e-08 1.63426e-07 1.73386e-06 1.5717e-05 0.000119755 0.00075103 0.00377467 0.0147607 0.043995 0.100771 0.185562 0.292742 0.418341 0.561866 0.723209 0.891682 0.991744 0.947055 0.931537 0.929305 0.926395 0.922902 0.919226 0.916038 0.914508 0.914018 0.912703 0.901119 0.889784 0.841355 0.800817 0.705741 0.609119 0.47644 0.340713 0.210568 0.108532 0.0452352 0.0156454 0.00478701 0.00136144 0.000367899 9.51281e-05 2.35737e-05 5.59895e-06 1.2743e-06 2.77907e-07 5.80822e-08 1.16361e-08 2.23527e-09 4.11775e-10 7.30333e-11 1.23131e-11 2.17762e-12 1.17427e-13 1.33391e-13 -1.0094e-13 -8.3293e-14 7.27591e-14 1.01644e-13 7.8912e-14 -8.34699e-14 -3.78518e-14 5.24142e-14 -2.3548e-13 6.03922e-14 4.03862e-14 1.377e-13 4.4204e-14 -9.08306e-15 -7.51417e-14 -1.25601e-13 9.02026e-14 3.28484e-13 -1.84608e-13 -6.39082e-14 2.69326e-13 -1.28339e-13 4.5187e-14 1.61004e-13 -4.91465e-13 1.25797e-13 1.19864e-13 -2.88931e-13 2.79188e-13 -7.95796e-15 -7.67361e-14 2.23295e-13 -1.04468e-13 -2.49442e-13 2.22348e-14 7.01714e-14 5.5047e-15 -1.16963e-13 5.19367e-14 2.95252e-14 -1.67186e-13 -3.65031e-14 6.28528e-14 1.40346e-13 -2.00825e-13 1.78528e-13 -9.39865e-14 -1.75874e-15 -4.36151e-14 3.08188e-14 -1.07279e-13 4.61027e-14 3.71569e-15 -4.94075e-14 -5.49327e-14 -6.55544e-14 -5.06206e-14 -1.10481e-13 1.40604e-13 2.61443e-13 -1.41376e-13 -1.39496e-13 0
				</DataArray>
				<DataArray Name="VitesseY" type="Float32" format="ascii">