<?xml version="1.0"?>
<VTKFile type="PolyData">
	<PolyData>
		<Piece NumberOfPoints="1206" NumberOfPolys="1000">
			<Points>
				<DataArray type="Float32" NumberOfComponents="3" format="ascii">
 0 0 0 0.005 0 0 0.01 0 0 0.015 0 0 0.02 0 0 0.025 0 0 0.03 0 0 0.035 0 0 0.04 0 0 0.045 0 0 0.05 0 0 0.055 0 0 0.06 0 0 0.065 0 0 0.07 0 0 0.075 0 0 0.08 0 0 0.085 0 0 0.09 0 0 0.095 0 0 0.1 0 0 0.105 0 0 0.11 0 0 0.115 0 0 0.12 0 0 0.125 0 0 0.13 0 0 0.135 0 0 0.14 0 0 0.145 0 0 0.15 0 0 0.155 0 0 0.16 0 0 0.165 0 0 0.17 0 0 0.175 0 0 0.18 0 0 0.185 0 0 0.19 0 0 0.195 0 0 0.2 0 0 0.205 0 0 0.21 0 0 0.215 0 0 0.22 0 0 0.225 0 0 0.23 0 0 0.235 0 0 0.24 0 0 0.245 0 0 0.25 0 0 0.255 0 0 0.26 0 0 0.265 0 0 0.27 0 0 0.275 0 0 0.28 0 0 0.285 0 0 0.29 0 0 0.295 0 0 0.3 0 0 0.305 0 0 0.31 0 0 0.315 0 0 0.32 0 0 0.325 0 0 0.33 0 0 0.335 0 0 0.34 0 0 0.345 0 0 0.35 0 0 0.355 0 0 0.36 0 0 0.365 0 0 0.37 0 0 0.375 0 0 0.38 0 0 0.385 0 0 0.39 0 0 0.395 0 0 0.4 0 0 0.405001 0 0 0.410003 0 0 0.415014 0 0 0.42005 0 0 0.425151 0 0 0.430381 0 0 0.43582 0 0 0.441545 0 0 0.447629 0 0 0.454148 0 0 0.461187 0 0 0.468851 0 0 0.477273 0 0 0.486625 0 0 0.497101 0 0 0.50881 0 0 0.521238 0 0 0.533405 0 0 0.545323 0 0 0.557139 0 0 0.559761 0 0 0.562309 0 0 0.56481 0 0 0.567281 0 0 0.569729 0 0 0.57216 0 0 0.574582 0 0 0.577003 0 0 0.579426 0 0 0.581835 0 0 0.584236 0 0 0.586633 0 0 0.589031 0 0 0.591433 0 0 0.593845 0 0 0.596264 0 0 0.598743 0 0 0.601312 0 0 0.603997 0 0 0.606856 0 0 0.609939 0 0 0.613317 0 0 0.617036 0 0 0.621119 0 0 0.625539 0 0 0.630226 0 0 0.635084 0 0 0.640029 0 0 0.645009 0 0 0.650003 0 0 0.655001 0 0 0.66 0 0 0.665 0 0 0.67 0 0 0.675 0 0 0.68 0 0 0.685 0 0 0.69 0 0 0.695 0 0 0.7 0 0 0.705 0 0 0.71 0 0 0.715 0 0 0.72 0 0 0.725 0 0 0.73 0 0 0.735 0 0 0.74 0 0 0.745 0 0 0.75 0 0 0.755 0 0 0.76 0 0 0.765 0 0 0.77 0 0 0.775 0 0 0.78 0 0 0.785 0 0 0.79 0 0 0.795 0 0 0.8 0 0 0.805 0 0 0.81 0 0 0.815 0 0 0.82 0 0 0.825 0 0 0.83 0 0 0.835 0 0 0.84 0 0 0.845 0 0 0.85 0 0 0.855 0 0 0.86 0 0 0.865 0 0 0.87 0 0 0.875 0 0 0.88 0 0 0.885 0 0 0.89 0 0 0.895 0 0 0.9 0 0 0.905 0 0 0.91 0 0 0.915 0 0 0.92 0 0 0.925 0 0 0.93 0 0 0.935 0 0 0.94 0 0 0.945 0 0 0.95 0 0 0.955 0 0 0.96 0 0 0.965 0 0 0.97 0 0 0.975 0 0 0.98 0 0 0.985 0 0 0.99 0 0 0.995 0 0 1 0 0 0 0.02 0 0.005 0.02 0 0.01 0.02 0 0.015 0.02 0 0.02 0.02 0 0.025 0.02 0 0.03 0.02 0 0.035 0.02 0 0.04 0.02 0 0.045 0.02 0 0.05 0.02 0 0.055 0.02 0 0.06 0.02 0 0.065 0.02 0 0.07 0.02 0 0.075 0.02 0 0.08 0.02 0 0.085 0.02 0 0.09 0.02 0 0.095 0.02 0 0.1 0.02 0 0.105 0.02 0 0.11 0.02 0 0.115 0.02 0 0.12 0.02 0 0.125 0.02 0 0.13 0.02 0 0.135 0.02 0 0.14 0.02 0 0.145 0.02 0 0.15 0.02 0 0.155 0.02 0 0.16 0.02 0 0.165 0.02 0 0.17 0.02 0 0.175 0.02 0 0.18 0.02 0 0.185 0.02 0 0.19 0.02 0 0.195 0.02 0 0.2 0.02 0 0.205 0.02 0 0.21 0.02 0 0.215 0.02 0 0.22 0.02 0 0.225 0.02 0 0.23 0.02 0 0.235 0.02 0 0.24 0.02 0 0.245 0.02 0 0.25 0.02 0 0.255 0.02 0 0.26 0.02 0 0.265 0.02 0 0.27 0.02 0 0.275 0.02 0 0.28 0.02 0 0.285 0.02 0 0.29 0.02 0 0.295 0.02 0 0.3 0.02 0 0.305 0.02 0 0.31 0.02 0 0.315 0.02 0 0.32 0.02 0 0.325 0.02 0 0.33 0.02 0 0.335 0.02 0 0.34 0.02 0 0.345 0.02 0 0.35 0.02 0 0.355 0.02 0 0.36 0.02 0 0.365 0.02 0 0.37 0.02 0 0.375 0.02 0 0.38 0.02 0 0.385 0.02 0 0.39 0.02 0 0.395 0.02 0 0.4 0.02 0 0.405001 0.02 0 0.410003 0.02 0 0.415014 0.02 0 0.42005 0.02 0 0.425151 0.02 0 0.430381 0.02 0 0.43582 0.02 0 0.441545 0.02 0 0.447629 0.02 0 0.454148 0.02 0 0.461187 0.02 0 0.468851 0.02 0 0.477273 0.02 0 0.486625 0.02 0 0.497101 0.02 0 0.50881 0.02 0 0.521238 0.02 0 0.533405 0.02 0 0.545323 0.02 0 0.557139 0.02 0 0.559761 0.02 0 0.562309 0.02 0 0.56481 0.02 0 0.567281 0.02 0 0.569729 0.02 0 0.57216 0.02 0 0.574582 0.02 0 0.577003 0.02 0 0.579426 0.02 0 0.581835 0.02 0 0.584236 0.02 0 0.586633 0.02 0 0.589031 0.02 0 0.591433 0.02 0 0.593845 0.02 0 0.596264 0.02 0 0.598743 0.02 0 0.601312 0.02 0 0.603997 0.02 0 0.606856 0.02 0 0.609939 0.02 0 0.613317 0.02 0 0.617036 0.02 0 0.621119 0.02 0 0.625539 0.02 0 0.630226 0.02 0 0.635084 0.02 0 0.640029 0.02 0 0.645009 0.02 0 0.650003 0.02 0 0.655001 0.02 0 0.66 0.02 0 0.665 0.02 0 0.67 0.02 0 0.675 0.02 0 0.68 0.02 0 0.685 0.02 0 0.69 0.02 0 0.695 0.02 0 0.7 0.02 0 0.705 0.02 0 0.71 0.02 0 0.715 0.02 0 0.72 0.02 0 0.725 0.02 0 0.73 0.02 0 0.735 0.02 0 0.74 0.02 0 0.745 0.02 0 0.75 0.02 0 0.755 0.02 0 0.76 0.02 0 0.765 0.02 0 0.77 0.02 0 0.775 0.02 0 0.78 0.02 0 0.785 0.02 0 0.79 0.02 0 0.795 0.02 0 0.8 0.02 0 0.805 0.02 0 0.81 0.02 0 0.815 0.02 0 0.82 0.02 0 0.825 0.02 0 0.83 0.02 0 0.835 0.02 0 0.84 0.02 0 0.845 0.02 0 0.85 0.02 0 0.855 0.02 0 0.86 0.02 0 0.865 0.02 0 0.87 0.02 0 0.875 0.02 0 0.88 0.02 0 0.885 0.02 0 0.89 0.02 0 0.895 0.02 0 0.9 0.02 0 0.905 0.02 0 0.91 0.02 0 0.915 0.02 0 0.92 0.02 0 0.925 0.02 0 0.93 0.02 0 0.935 0.02 0 0.94 0.02 0 0.945 0.02 0 0.95 0.02 0 0.955 0.02 0 0.96 0.02 0 0.965 0.02 0 0.97 0.02 0 0.975 0.02 0 0.98 0.02 0 0.985 0.02 0 0.99 0.02 0 0.995 0.02 0 1 0.02 0 0 0.04 0 0.005 0.04 0 0.01 0.04 0 0.015 0.04 0 0.02 0.04 0 0.025 0.04 0 0.03 0.04 0 0.035 0.04 0 0.04 0.04 0 0.045 0.04 0 0.05 0.04 0 0.055 0.04 0 0.06 0.04 0 0.065 0.04 0 0.07 0.04 0 0.075 0.04 0 0.08 0.04 0 0.085 0.04 0 0.09 0.04 0 0.095 0.04 0 0.1 0.04 0 0.105 0.04 0 0.11 0.04 0 0.115 0.04 0 0.12 0.04 0 0.125 0.04 0 0.13 0.04 0 0.135 0.04 0 0.14 0.04 0 0.145 0.04 0 0.15 0.04 0 0.155 0.04 0 0.16 0.04 0 0.165 0.04 0 0.17 0.04 0 0.175 0.04 0 0.18 0.04 0 0.185 0.04 0 0.19 0.04 0 0.195 0.04 0 0.2 0.04 0 0.205 0.04 0 0.21 0.04 0 0.215 0.04 0 0.22 0.04 0 0.225 0.04 0 0.23 0.04 0 0.235 0.04 0 0.24 0.04 0 0.245 0.04 0 0.25 0.04 0 0.255 0.04 0 0.26 0.04 0 0.265 0.04 0 0.27 0.04 0 0.275 0.04 0 0.28 0.04 0 0.285 0.04 0 0.29 0.04 0 0.295 0.04 0 0.3 0.04 0 0.305 0.04 0 0.31 0.04 0 0.315 0.04 0 0.32 0.04 0 0.325 0.04 0 0.33 0.04 0 0.335 0.04 0 0.34 0.04 0 0.345 0.04 0 0.35 0.04 0 0.355 0.04 0 0.36 0.04 0 0.365 0.04 0 0.37 0.04 0 0.375 0.04 0 0.38 0.04 0 0.385 0.04 0 0.39 0.04 0 0.395 0.04 0 0.4 0.04 0 0.405001 0.04 0 0.410003 0.04 0 0.415014 0.04 0 0.42005 0.04 0 0.425151 0.04 0 0.430381 0.04 0 0.43582 0.04 0 0.441545 0.04 0 0.447629 0.04 0 0.454148 0.04 0 0.461187 0.04 0 0.468851 0.04 0 0.477273 0.04 0 0.486625 0.04 0 0.497101 0.04 0 0.50881 0.04 0 0.521238 0.04 0 0.533405 0.04 0 0.545323 0.04 0 0.557139 0.04 0 0.559761 0.04 0 0.562309 0.04 0 0.56481 0.04 0 0.567281 0.04 0 0.569729 0.04 0 0.57216 0.04 0 0.574582 0.04 0 0.577003 0.04 0 0.579426 0.04 0 0.581835 0.04 0 0.584236 0.04 0 0.586633 0.04 0 0.589031 0.04 0 0.591433 0.04 0 0.593845 0.04 0 0.596264 0.04 0 0.598743 0.04 0 0.601312 0.04 0 0.603997 0.04 0 0.606856 0.04 0 0.609939 0.04 0 0.613317 0.04 0 0.617036 0.04 0 0.621119 0.04 0 0.625539 0.04 0 0.630226 0.04 0 0.635084 0.04 0 0.640029 0.04 0 0.645009 0.04 0 0.650003 0.04 0 0.655001 0.04 0 0.66 0.04 0 0.665 0.04 0 0.67 0.04 0 0.675 0.04 0 0.68 0.04 0 0.685 0.04 0 0.69 0.04 0 0.695 0.04 0 0.7 0.04 0 0.705 0.04 0 0.71 0.04 0 0.715 0.04 0 0.72 0.04 0 0.725 0.04 0 0.73 0.04 0 0.735 0.04 0 0.74 0.04 0 0.745 0.04 0 0.75 0.04 0 0.755 0.04 0 0.76 0.04 0 0.765 0.04 0 0.77 0.04 0 0.775 0.04 0 0.78 0.04 0 0.785 0.04 0 0.79 0.04 0 0.795 0.04 0 0.8 0.04 0 0.805 0.04 0 0.81 0.04 0 0.815 0.04 0 0.82 0.04 0 0.825 0.04 0 0.83 0.04 0 0.835 0.04 0 0.84 0.04 0 0.845 0.04 0 0.85 0.04 0 0.855 0.04 0 0.86 0.04 0 0.865 0.04 0 0.87 0.04 0 0.875 0.04 0 0.88 0.04 0 0.885 0.04 0 0.89 0.04 0 0.895 0.04 0 0.9 0.04 0 0.905 0.04 0 0.91 0.04 0 0.915 0.04 0 0.92 0.04 0 0.925 0.04 0 0.93 0.04 0 0.935 0.04 0 0.94 0.04 0 0.945 0.04 0 0.95 0.04 0 0.955 0.04 0 0.96 0.04 0 0.965 0.04 0 0.97 0.04 0 0.975 0.04 0 0.98 0.04 0 0.985 0.04 0 0.99 0.04 0 0.995 0.04 0 1 0.04 0 0 0.06 0 0.005 0.06 0 0.01 0.06 0 0.015 0.06 0 0.02 0.06 0 0.025 0.06 0 0.03 0.06 0 0.035 0.06 0 0.04 0.06 0 0.045 0.06 0 0.05 0.06 0 0.055 0.06 0 0.06 0.06 0 0.065 0.06 0 0.07 0.06 0 0.075 0.06 0 0.08 0.06 0 0.085 0.06 0 0.09 0.06 0 0.095 0.06 0 0.1 0.06 0 0.105 0.06 0 0.11 0.06 0 0.115 0.06 0 0.12 0.06 0 0.125 0.06 0 0.13 0.06 0 0.135 0.06 0 0.14 0.06 0 0.145 0.06 0 0.15 0.06 0 0.155 0.06 0 0.16 0.06 0 0.165 0.06 0 0.17 0.06 0 0.175 0.06 0 0.18 0.06 0 0.185 0.06 0 0.19 0.06 0 0.195 0.06 0 0.2 0.06 0 0.205 0.06 0 0.21 0.06 0 0.215 0.06 0 0.22 0.06 0 0.225 0.06 0 0.23 0.06 0 0.235 0.06 0 0.24 0.06 0 0.245 0.06 0 0.25 0.06 0 0.255 0.06 0 0.26 0.06 0 0.265 0.06 0 0.27 0.06 0 0.275 0.06 0 0.28 0.06 0 0.285 0.06 0 0.29 0.06 0 0.295 0.06 0 0.3 0.06 0 0.305 0.06 0 0.31 0.06 0 0.315 0.06 0 0.32 0.06 0 0.325 0.06 0 0.33 0.06 0 0.335 0.06 0 0.34 0.06 0 0.345 0.06 0 0.35 0.06 0 0.355 0.06 0 0.36 0.06 0 0.365 0.06 0 0.37 0.06 0 0.375 0.06 0 0.38 0.06 0 0.385 0.06 0 0.39 0.06 0 0.395 0.06 0 0.4 0.06 0 0.405001 0.06 0 0.410003 0.06 0 0.415014 0.06 0 0.42005 0.06 0 0.425151 0.06 0 0.430381 0.06 0 0.43582 0.06 0 0.441545 0.06 0 0.447629 0.06 0 0.454148 0.06 0 0.461187 0.06 0 0.468851 0.06 0 0.477273 0.06 0 0.486625 0.06 0 0.497101 0.06 0 0.50881 0.06 0 0.521238 0.06 0 0.533405 0.06 0 0.545323 0.06 0 0.557139 0.06 0 0.559761 0.06 0 0.562309 0.06 0 0.56481 0.06 0 0.567281 0.06 0 0.569729 0.06 0 0.57216 0.06 0 0.574582 0.06 0 0.577003 0.06 0 0.579426 0.06 0 0.581835 0.06 0 0.584236 0.06 0 0.586633 0.06 0 0.589031 0.06 0 0.591433 0.06 0 0.593845 0.06 0 0.596264 0.06 0 0.598743 0.06 0 0.601312 0.06 0 0.603997 0.06 0 0.606856 0.06 0 0.609939 0.06 0 0.613317 0.06 0 0.617036 0.06 0 0.621119 0.06 0 0.625539 0.06 0 0.630226 0.06 0 0.635084 0.06 0 0.640029 0.06 0 0.645009 0.06 0 0.650003 0.06 0 0.655001 0.06 0 0.66 0.06 0 0.665 0.06 0 0.67 0.06 0 0.675 0.06 0 0.68 0.06 0 0.685 0.06 0 0.69 0.06 0 0.695 0.06 0 0.7 0.06 0 0.705 0.06 0 0.71 0.06 0 0.715 0.06 0 0.72 0.06 0 0.725 0.06 0 0.73 0.06 0 0.735 0.06 0 0.74 0.06 0 0.745 0.06 0 0.75 0.06 0 0.755 0.06 0 0.76 0.06 0 0.765 0.06 0 0.77 0.06 0 0.775 0.06 0 0.78 0.06 0 0.785 0.06 0 0.79 0.06 0 0.795 0.06 0 0.8 0.06 0 0.805 0.06 0 0.81 0.06 0 0.815 0.06 0 0.82 0.06 0 0.825 0.06 0 0.83 0.06 0 0.835 0.06 0 0.84 0.06 0 0.845 0.06 0 0.85 0.06 0 0.855 0.06 0 0.86 0.06 0 0.865 0.06 0 0.87 0.06 0 0.875 0.06 0 0.88 0.06 0 0.885 0.06 0 0.8
[...]
			<PointData Scalars="VitesseX">
				<DataArray Name="VitesseX" type="Float32" format="ascii">
 0 0 0 0 0 0 0 0 0 0 0 0 0 0 0 0 0 0 0 0 0 0 0 0 0 0 0 0 0 0 0 0 0 0 0 0 0 0 0 0 0 0 0 0 0 0 0 0 0 0 0 0 0 0 0 0 0 0 0 0 0 0 0 0 0 0 0 0 0 0 0 0 0 0 0 0 0 0 0 0 0 0 0 0 0 0 0 0 0 0 0 0 0 0 0 0 0 0 0 0 0 0 0 0 0 0 0 0 0 0 0 0 0 0 0 0 0 0 0 0 0 0 0 0 0 0 0 0 0 0 0 0 0 0 0 0 0 0 0 0 0 0 0 0 0 0 0 0 0 0 0 0 0 0 0 0 0 0 0 0 0 0 0 0 0 0 0 0 0 0 0 0 0 0 0 0 0 0 0 0 0 0 0 0 0 0 0 0 0 0 0 0 0 0 0 0 0 0 0 0 0 0 -5.97654e-16 2.09038e-16 -9.62719e-16 2.01676e-16 -2.12159e-15 1.15645e-15 1.16177e-15 3.56892e-15 9.51401e-16 -6.22377e-16 5.62475e-16 5.33101e-15 -3.43283e-15 -8.17329e-15 4.93808e-15 1.11564e-14 9.86937e-16 -9.9415e-15 1.05038e-14 2.29769e-15 4.48717e-15 -1.07523e-14 7.73439e-15 4.25982e-15 5.6526e-15 -1.60467e-14 1.27156e-14 -1.25963e-14 -2.00669e-15 1.22245e-15 1.07147e-14 -2.10818e-14 2.47843e-14 7.11305e-15 1.26169e-14 -2.56262e-15 -2.7069e-14 1.165e-14 -6.4597e-15 1.44339e-14 -2.5678e-14 1.34385e-14 1.00049e-14 -3.63382e-16 -2.42886e-14 -1.77144e-14 3.08248e-14 2.84206e-15 -1.2634e-14 4.87874e-14 -5.28984e-15 -3.51733e-14 3.77841e-14 2.73086e-14 -3.27684e-14 2.56519e-14 2.121e-14 -1.21273e-14 4.42631e-14 -2.08455e-14 2.56592e-14 1.10234e-14 -3.4522e-14 2.32107e-14 6.79209e-15 -2.56305e-15 1.45924e-14 1.48591e-14 7.98142e-15 -4.80149e-14 1.34766e-13 8.41293e-13 1.08163e-11 1.32229e-10 1.46237e-09 1.46247e-08 1.31485e-07 1.05512e-06 7.4927e-06 4.65949e-05 0.000250471 0.00114513 0.00436796 0.0136365 0.0344678 0.0711041 0.123392 0.187984 0.261778 0.343358 0.432587 0.52995 0.636022 0.75048 0.868515 0.965953 0.969918 0.944494 0.93171 0.928812 0.92844 0.92798 0.927405 0.926635 0.925789 0.925038 0.924491 0.924191 0.924123 0.924107 0.923834 0.924016 0.922772 0.917903 0.91929 0.88503 0.863293 0.844164 0.779587 0.714563 0.61571 0.508928 0.377249 0.25343 0.145495 0.0705747 0.028965 0.0105252 0.00355617 0.00114984 0.000359956 0.00010949 3.23801e-05 9.30776e-06 2.59952e-06 7.05118e-07 1.85706e-07 4.74785e-08 1.17817e-08 2.83724e-09 6.63062e-10 1.50405e-10 3.31168e-11 7.13238e-12 1.47067e-12 2.36028e-13 9.80494e-14 8.45492e-14 -5.52906e-14 1.08727e-14 -5.41186e-14 4.51197e-14 9.65593e-14 -5.6607e-14 7.58062e-14 -2.67711e-14 -6.06969e-15 1.4369e-13 -9.5613e-14 5.30106e-14 8.42235e-14 -6.84786e-14 -6.19068e-14 -1.03752e-14 -5.41918e-15 5.28492e-14 -5.52773e-14 5.46398e-14 2.89836e-14 -7.54131e-14 -4.08201e-14 -1.87442e-15 -1.33648e-14 -4.62882e-14 1.98701e-14 6.55861e-15 -3.33755e-14 -1.93321e-14 -1.16816e-15 -6.63698e-14 -1.65976e-14 -3.85199e-14 1.06232e-14 -5.67696e-14 -3.44811e-14 1.43761e-14 -1.0531e-13 5.34974e-14 -6.38475e-14 -2.40723e-14 4.17522e-14 -4.94887e-14 3.88396e-15 2.44018e-14 -5.11755e-14 -6.86398e-14 -9.15626e-15 4.83924e-14 -7.78785e-14 0 0 -7.21827e-17 1.00724e-15 1.54999e-15 9.56367e-16 -3.51977e-15 1.18443e-15 3.95244e-15 -1.12253e-15 -5.99168e-15 5.77733e-15 7.58304e-15 3.57878e-15 -3.76408e-15 -5.69632e-16 -5.98615e-17 9.59422e-15 9.75547e-15 -2.67547e-15 9.47308e-16 -4.21721e-16 -4.20306e-15 7.47543e-15 5.52962e-15 1.19095e-14 -1.03401e-14 -3.01174e-14 1.75649e-14 1.09025e-14 -1.84268e-14 1.24784e-14 1.41279e-14 -4.11501e-15 -1.08844e-14 2.14346e-14 8.63793e-15 -1.70262e-14 2.82051e-15 -1.57271e-14 1.50244e-14 1.25117e-14 -2.90839e-14 1.6084e-14 3.96969e-16 1.61175e-14 2.24337e-16 9.50557e-15 -1.78112e-15 -3.38344e-14 -6.77326e-15 4.33236e-14 3.75457e-14 -5.01348e-14 1.48808e-15 1.02809e-14 -1.15099e-14 -1.3148e-14 6.00319e-14 -1.83771e-15 1.51637e-14 -2.40483e-14 4.31176e-14 -6.62711e-17 -1.14695e-14 6.25718e-14 2.51769e-15 3.0247e-14 -7.16753e-16 -3.94403e-14 -3.82586e-15 4.26245e-14 1.15996e-13 8.00665e-13 1.0864e-11 1.32189e-10 1.46227e-09 1.46248e-08 1.31485e-07 1.05512e-06 7.4927e-06 4.65949e-05 0.000250471 0.00114513 0.00436796 0.0136365 0.0344678 0.0711041 0.123392 0.187984 0.261778 0.343358 0.432587 0.52995 0.636022 0.75048 0.868515 0.965953 0.969918 0.944494 0.93171 0.928812 0.92844 0.92798 0.927405 0.926635 0.925789 0.925038 0.924491 0.924191 0.924123 0.924107 0.923834 0.924016 0.922772 0.917903 0.91929 0.88503 0.863293 0.844164 0.779587 0.714563 0.61571 0.508928 0.377249 0.25343 0.145495 0.0705747 0.028965 0.0105252 0.00355617 0.00114984 0.000359956 0.00010949 3.23801e-05 9.30776e-06 2.59952e-06 7.05118e-07 1.85706e-07 4.74785e-08 1.17816e-08 2.83732e-09 6.63077e-10 1.50485e-10 3.30838e-11 7.11018e-12 1.48113e-12 2.95811e-13 1.51901e-13 6.84245e-14 -3.56622e-14 -4.86756e-14 -3.33087e-14 6.11089e-14 6.37447e-14 -3.71342e-14 -2.92931e-14 -4.35365e-14 -3.5237e-14 1.47449e-13 8.21391e-14 1.72879e-14 1.55643e-13 -9.78506e-14 -9.65362e-14 2.62457e-15 -6.43612e-14 1.33224e-13 1.86291e-14 -8.99226e-14 4.36129e-14 -7.36883e-15 -1.58341e-13 1.01144e-15 -6.55498e-14 -4.32458e-14 9.52374e-14 2.25149e-15 -7.37851e-14 3.00454e-14 1.62289e-14 -3.69944e-14 7.0723e-14 -5.76681e-14 -2.92974e-14 -1.42499e-13 -1.3199e-13 8.76738e-14 -7.84456e-14 8.10724e-14 -1.05974e-13 5.26704e-14 -7.39e-14 7.13843e-15 -1.22746e-13 6.40271e-14 2.78585e-17 -4.55111e-15 -8.55667e-14 -5.19764e-15 8.96582e-14 0 0 1.42622e-15 4.16771e-15 -6.72661e-17 1.31128e-15 -3.69514e-15 2.54271e-15 -2.30583e-16 -5.71489e-15 -1.17043e-16 6.19344e-15 3.79054e-15 4.4608e-16 2.50341e-15 -1.98125e-15 -2.65975e-16 9.2029e-15 2.6981e-15 -1.61747e-15 9.5852e-15 -9.82542e-15 6.03577e-15 2.48677e-14 -1.18699e-14 2.39952e-14 -2.44395e-14 -2.35024e-14 -2.22884e-15 6.24105e-14 -3.54979e-14 6.25089e-15 8.1639e-15 4.09357e-16 -2.33317e-14 3.03939e-14 -1.3849e-14 1.16316e-14 -9.07645e-15 -7.79148e-15 -8.02303e-15 3.09531e-15 6.21488e-15 1.30994e-14 3.83448e-15 2.57454e-14 -2.36364e-14 3.8819e-14 -2.30248e-14 -2.4696e-14 1.5021e-14 1.5528e-14 1.15787e-14 3.04552e-14 -5.64116e-14 3.19534e-14 4.65907e-14 -4.07418e-14 -3.00974e-14 4.46471e-14 -3.3165e-14 1.70247e-14 4.03735e-14 -5.08747e-14 9.38932e-14 6.31611e-14 1.10152e-14 3.61697e-14 -1.05108e-14 6.39192e-14 -2.49962e-14 7.36693e-14 4.38039e-14 7.39006e-13 1.08183e-11 1.32297e-10 1.46225e-09 1.46247e-08 1.31485e-07 1.05512e-06 7.4927e-06 4.65949e-05 0.000250471 0.00114513 0.00436796 0.0136365 0.0344678 0.0711041 0.123392 0.187984 0.261778 0.343358 0.432587 0.52995 0.636022 0.75048 0.868515 0.965953 0.969918 0.944494 0.93171 0.928812 0.92844 0.92798 0.927405 0.926635 0.925789 0.925038 0.924491 0.924191 0.924123 0.924107 0.923834 0.924016 0.922772 0.917903 0.91929 0.88503 0.863293 0.844164 0.779587 0.714563 0.61571 0.508928 0.377249 0.25343 0.145495 0.0705747 0.028965 0.0105252 0.00355617 0.00114984 0.000359956 0.00010949 3.23801e-05 9.30776e-06 2.59952e-06 7.05118e-07 1.85706e-07 4.74785e-08 1.17816e-08 2.83739e-09 6.63045e-10 1.50423e-10 3.31875e-11 7.16421e-12 1.51534e-12 3.47267e-13 8.04596e-14 -1.14269e-13 -7.66601e-17 -2.67306e-14 9.249e-14 -1.9794e-14 8.29241e-14 6.98482e-14 -6.43515e-14 -1.44362e-13 4.40617e-14 2.43869e-14 7.20111e-14 -3.74231e-15 1.65201e-13 -2.48755e-14 -2.7926e-14 -1.60622e-14 1.23449e-13 -1.27364e-14 -1.05473e-13 -1.80845e-13 3.67917e-14 8.41067e-14 -1.28632e-13 -2.04034e-14 -8.62944e-14 -5.91777e-14 8.76342e-14 -5.502e-14 -5.08409e-14 7.40609e-14 -4.74248e-14 9.04862e-14 -6.90076e-14 1.80121e-14 -9.57138e-14 -5.4529e-15 -1.37401e-13 1.40466e-13 7.91269e-14 -2.05412e-13 -4.33799e-14 -8.7894e-14 -3.72007e-14 4.86597e-14 -5.49209e-14 -2.69635e-14 9.48946e-15 2.84227e-14 1.2087e-13 -1.29727e-13 -1.58956e-14 0 0 8.3179e-16 5.63013e-15 5.51406e-16 -2.23576e-15 -1.59858e-15 1.35324e-15 -3.27578e-15 2.17246e-15 1.37154e-15 5.71368e-16 7.59256e-15 4.56109e-15 4.09103e-15 2.63382e-15 6.37352e-15 -3.41792e-15 -1.09022e-14 -2.89563e-15 7.76667e-15 -8.2624e-15 3.34861e-14 -7.22471e-15 -1.34738e-14 1.54535e-14 -2.60847e-15 5.43078e-15 -5.73355e-15 5.04828e-14 -2.33373e-14 -1.66417e-14 8.19115e-15 -3.11828e-14 2.12209e-15 1.22934e-14 -2.91416e-16 2.66991e-14 -4.65186e-14 3.84734e-14 -2.20692e-14 4.40092e-16 5.72903e-15 3.56094e-14 -7.83117e-15 9.33898e-15 -1.28047e-14 -9.51243e-16 9.74324e-15 8.75743e-15 1.40797e-14 1.02846e-14 1.92606e-15 -7.89655e-15 1.60246e-14 -9.56116e-16 -9.34421e-15 6.73821e-14 -5.72805e-14 2.49484e-14 -1.49542e-14 -3.03896e-14 5.16247e-14 -3.15094e-15 3.98939e-14 1.08303e-13 9.79465e-15 -2.26433e-15 7.7724e-14 6.11369e-14 -4.9676e-14 -1.41679e-15 1.57743e-13 7.86452e-13 1.07103e-11 1.32461e-10 1.46224e-09 1.46245e-08 1.31485e-07 1.05512e-06 7.4927e-06 4.65949e-05 0.000250471 0.00114513 0.00436796 0.0136365 0.0344678 0.0711041 0.123392 0.187984 0.261778 0.343358 0.432587 0.52995 0.636022 0.75048 0.868515 0.965953 0.969918 0.944494 0.93171 0.928812 0.92844 0.92798 0.927405 0.926635 0.925789 0.925038 0.924491 0.924191 0.924123 0.924107 0.923834 0.924016 0.922772 0.917903 0.91929 0.88503 0.863293 0.844164 0.779587 0.714563 0.61571 0.508928 0.377249 0.25343 0.145495 0.0705747 0.028965 0.0105252 0.00355617 0.00114984 0.000359956 0.00010949 3.23801e-05 9.30776e-06 2.59952e-06 7.05118e-07 1.85707e-07 4.74786e-08 1.17817e-08 2.83735e-09 6.63131e-10 1.5027e-10 3.32157e-11 7.2504e-12 1.56277e-12 8.15236e-14 -1.46398e-14 -9.31035e-14 -5.49511e-14 3.51437e-14 1.15459e-13 7.11426e-14 1.22718e-13 -3.68081e-14 6.35616e-14 -1.16685e-13 -3.87992e-14 -4.10704e-14 -1.70479e-14 1.42146e-13 2.92371e-14 4.52921e-14 1.11006e-13 -9.36616e-14 1.42827e-13 -1.37328e-13 -1.51126e-13 -1.28917e-13 -2.79168e-14 3.23417e-14 2.68314e-14 -5.64712e-14 3.83389e-14 -1.59752e-13 7.52449e-14 -7.98288e-14 -6.81081e-14 6.29268e-14 7.41241e-14 -4.98058e-14 -1.54166e-13 1.42653e-13 -2.68075e-15 5.63923e-14 -1.13287e-13 2.02669e-13 -8.80207e-14 -1.97156e-13 -7.08072e-14 -1.07075e-13 3.95188e-14 -8.45698e-14 7.78325e-14 -2.41291e-14 -3.28129e-14 1.73282e-14 1.70785e-13 -1.87899e-13 -6.76156e-14 0 0 0 0 0 0 0 0 0 0 0 0 0 0 0 0 0 0 0 0 0 0 0 0 0 0 0 0 0 0 0 0 0 0 0 0 0 0 0 0 0 0 0 0 0 0 0 0 0 0 0 0 0 0 0 0 0 0 0 0 0 0 0 0 0 0 0 0 0 0 0 0 0 0 0 0 0 0 0 0 0 0 0 0 0 0 0 0 0 0 0 0 0 0 0 0 0 0 0 0 0 0 0 0 0 0 0 0 0 0 0 0 0 0 0 0 0 0 0 0 0 0 0 0 0 0 0 0 0 0 0 0 0 0 0 0 0 0 0 0 0 0 0 0 0 0 0 0 0 0 0 0 0 0 0 0 0 0 0 0 0 0 0 0 0 0 0 0 0 0 0 0 0 0 0 0 0 0 0 0 0 0 0 0 0 0 0 0 0 0 0 0 0 0 0 0 0 0 0 0 0 0
				</DataArray>
				<DataArray Name="VitesseY" type="Float32" format="ascii">