<?xml version="1.0"?>
<VTKFile type="PolyData">
	<PolyData>
		<Piece NumberOfPoints="1206" NumberOfPolys="1000">
			<Points>
				<DataArray type="Float32" NumberOfComponents="3" format="ascii">
 0 0 0 0.005 0 0 0.01 0 0 0.015 0 0 0.02 0 0 0.025 0 0 0.03 0 0 0.035 0 0 0.04 0 0 0.045 0 0 0.05 0 0 0.055 0 0 0.06 0 0 0.065 0 0 0.07 0 0 0.075 0 0 0.08 0 0 0.085 0 0 0.09 0 0 0.095 0 0 0.1 0 0 0.105 0 0 0.11 0 0 0.115 0 0 0.12 0 0 0.125 0 0 0.13 0 0 0.135 0 0 0.14 0 0 0.145 0 0 0.15 0 0 0.155 0 0 0.16 0 0 0.165 0 0 0.17 0 0 0.175 0 0 0.18 0 0 0.185 0 0 0.19 0 0 0.195 0 0 0.2 0 0 0.205 0 0 0.21 0 0 0.215 0 0 0.22 0 0 0.225 0 0 0.23 0 0 0.235 0 0 0.24 0 0 0.245 0 0 0.25 0 0 0.255 0 0 0.26 0 0 0.265 0 0 0.27 0 0 0.275 0 0 0.28 0 0 0.285 0 0 0.29 0 0 0.295 0 0 0.300001 0 0 0.305002 0 0 0.310006 0 0 0.315018 0 0 0.320045 0 0 0.325102 0 0 0.33021 0 0 0.335391 0 0 0.340667 0 0 0.346058 0 0 0.351577 0 0 0.357239 0 0 0.363055 0 0 0.369038 0 0 0.3752 0 0 0.381555 0 0 0.388117 0 0 0.394903 0 0 0.40193 0 0 0.409218 0 0 0.416791 0 0 0.424673 0 0 0.432893 0 0 0.441484 0 0 0.450482 0 0 0.459929 0 0 0.469871 0 0 0.480354 0 0 0.491418 0 0 0.503065 0 0 0.515168 0 0 0.52734 0 0 0.539392 0 0 0.551324 0 0 0.563162 0 0 0.574941 0 0 0.586693 0 0 0.598432 0 0 0.610167 0 0 0.6219 0 0 0.633648 0 0 0.636259 0 0 0.638796 0 0 0.641288 0 0 0.643749 0 0 0.646188 0 0 0.648612 0 0 0.651026 0 0 0.653439 0 0 0.655852 0 0 0.65825 0 0 0.660637 0 0 0.663018 0 0 0.665395 0 0 0.667771 0 0 0.670144 0 0 0.672514 0 0 0.674883 0 0 0.67725 0 0 0.679615 0 0 0.681977 0 0 0.684339 0 0 0.686702 0 0 0.689065 0 0 0.691427 0 0 0.69379 0 0 0.696154 0 0 0.698516 0 0 0.700878 0 0 0.703242 0 0 0.705606 0 0 0.707969 0 0 0.710332 0 0 0.712695 0 0 0.715058 0 0 0.717425 0 0 0.719792 0 0 0.722159 0 0 0.724523 0 0 0.726885 0 0 0.729247 0 0 0.731608 0 0 0.733973 0 0 0.736349 0 0 0.738748 0 0 0.741172 0 0 0.743665 0 0 0.746246 0 0 0.748953 0 0 0.75183 0 0 0.754943 0 0 0.758335 0 0 0.762073 0 0 0.766163 0 0 0.77058 0 0 0.775258 0 0 0.780104 0 0 0.785039 0 0 0.790014 0 0 0.795005 0 0 0.800002 0 0 0.805001 0 0 0.81 0 0 0.815 0 0 0.82 0 0 0.825 0 0 0.83 0 0 0.835 0 0 0.84 0 0 0.845 0 0 0.85 0 0 0.855 0 0 0.86 0 0 0.865 0 0 0.87 0 0 0.875 0 0 0.88 0 0 0.885 0 0 0.89 0 0 0.895 0 0 0.9 0 0 0.905 0 0 0.91 0 0 0.915 0 0 0.92 0 0 0.925 0 0 0.93 0 0 0.935 0 0 0.94 0 0 0.945 0 0 0.95 0 0 0.955 0 0 0.96 0 0 0.965 0 0 0.97 0 0 0.975 0 0 0.98 0 0 0.985 0 0 0.99 0 0 0.995 0 0 1 0 0 0 0.02 0 0.005 0.02 0 0.01 0.02 0 0.015 0.02 0 0.02 0.02 0 0.025 0.02 0 0.03 0.02 0 0.035 0.02 0 0.04 0.02 0 0.045 0.02 0 0.05 0.02 0 0.055 0.02 0 0.06 0.02 0 0.065 0.02 0 0.07 0.02 0 0.075 0.02 0 0.08 0.02 0 0.085 0.02 0 0.09 0.02 0 0.095 0.02 0 0.1 0.02 0 0.105 0.02 0 0.11 0.02 0 0.115 0.02 0 0.12 0.02 0 0.125 0.02 0 0.13 0.02 0 0.135 0.02 0 0.14 0.02 0 0.145 0.02 0 0.15 0.02 0 0.155 0.02 0 0.16 0.02 0 0.165 0.02 0 0.17 0.02 0 0.175 0.02 0 0.18 0.02 0 0.185 0.02 0 0.19 0.02 0 0.195 0.02 0 0.2 0.02 0 0.205 0.02 0 0.21 0.02 0 0.215 0.02 0 0.22 0.02 0 0.225 0.02 0 0.23 0.02 0 0.235 0.02 0 0.24 0.02 0 0.245 0.02 0 0.25 0.02 0 0.255 0.02 0 0.26 0.02 0 0.265 0.02 0 0.27 0.02 0 0.275 0.02 0 0.28 0.02 0 0.285 0.02 0 0.29 0.02 0 0.295 0.02 0 0.300001 0.02 0 0.305002 0.02 0 0.310006 0.02 0 0.315018 0.02 0 0.320045 0.02 0 0.325102 0.02 0 0.33021 0.02 0 0.335391 0.02 0 0.340667 0.02 0 0.346058 0.02 0 0.351577 0.02 0 0.357239 0.02 0 0.363055 0.02 0 0.369038 0.02 0 0.3752 0.02 0 0.381555 0.02 0 0.388117 0.02 0 0.394903 0.02 0 0.40193 0.02 0 0.409218 0.02 0 0.416791 0.02 0 0.424673 0.02 0 0.432893 0.02 0 0.441484 0.02 0 0.450482 0.02 0 0.459929 0.02 0 0.469871 0.02 0 0.480354 0.02 0 0.491418 0.02 0 0.503065 0.02 0 0.515168 0.02 0 0.52734 0.02 0 0.539392 0.02 0 0.551324 0.02 0 0.563162 0.02 0 0.574941 0.02 0 0.586693 0.02 0 0.598432 0.02 0 0.610167 0.02 0 0.6219 0.02 0 0.633648 0.02 0 0.636259 0.02 0 0.638796 0.02 0 0.641288 0.02 0 0.643749 0.02 0 0.646188 0.02 0 0.648612 0.02 0 0.651026 0.02 0 0.653439 0.02 0 0.655852 0.02 0 0.65825 0.02 0 0.660637 0.02 0 0.663018 0.02 0 0.665395 0.02 0 0.667771 0.02 0 0.670144 0.02 0 0.672514 0.02 0 0.674883 0.02 0 0.67725 0.02 0 0.679615 0.02 0 0.681977 0.02 0 0.684339 0.02 0 0.686702 0.02 0 0.689065 0.02 0 0.691427 0.02 0 0.69379 0.02 0 0.696154 0.02 0 0.698516 0.02 0 0.700878 0.02 0 0.703242 0.02 0 0.705606 0.02 0 0.707969 0.02 0 0.710332 0.02 0 0.712695 0.02 0 0.715058 0.02 0 0.717425 0.02 0 0.719792 0.02 0 0.722159 0.02 0 0.724523 0.02 0 0.726885 0.02 0 0.729247 0.02 0 0.731608 0.02 0 0.733973 0.02 0 0.736349 0.02 0 0.738748 0.02 0 0.741172 0.02 0 0.743665 0.02 0 0.746246 0.02 0 0.748953 0.02 0 0.75183 0.02 0 0.754943 0.02 0 0.758335 0.02 0 0.762073 0.02 0 0.766163 0.02 0 0.77058 0.02 0 0.775258 0.02 0 0.780104 0.02 0 0.785039 0.02 0 0.790014 0.02 0 0.795005 0.02 0 0.800002 0.02 0 0.805001 0.02 0 0.81 0.02 0 0.815 0.02 0 0.82 0.02 0 0.825 0.02 0 0.83 0.02 0 0.835 0.02 0 0.84 0.02 0 0.845 0.02 0 0.85 0.02 0 0.855 0.02 0 0.86 0.02 0 0.865 0.02 0 0.87 0.02 0 0.875 0.02 0 0.88 0.02 0 0.885 0.02 0 0.89 0.02 0 0.895 0.02 0 0.9 0.02 0 0.905 0.02 0 0.91 0.02 0 0.915 0.02 0 0.92 0.02 0 0.925 0.02 0 0.93 0.02 0 0.935 0.02 0 0.94 0.02 0 0.945 0.02 0 0.95 0.02 0 0.955 0.02 0 0.96 0.02 0 0.965 0.02 0 0.97 0.02 0 0.975 0.02 0 0.98 0.02 0 0.985 0.02 0 0.99 0.02 0 0.995 0.02 0 1 0.02 0 0 0.04 0 0.005 0.04 0 0.01 0.04 0 0.015 0.04 0 0.02 0.04 0 0.025 0.04 0 0.03 0.04 0 0.035 0.04 0 0.04 0.04 0 0.045 0.04 0 0.05 0.04 0 0.055 0.04 0 0.06 0.04 0 0.065 0.04 0 0.07 0.04 0 0.075 0.04 0 0.08 0.04 0 0.085 0.04 0 0.09 0.04 0 0.095 0.04 0 0.1 0.04 0 0.105 0.04 0 0.11 0.04 0 0.115 0.04 0 0.12 0.04 0 0.125 0.04 0 0.13 0.04 0 0.135 0.04 0 0.14 0.04 0 0.145 0.04 0 0.15 0.04 0 0.155 0.04 0 0.16 0.04 0 0.165 0.04 0 0.17 0.04 0 0.175 0.04 0 0.18 0.04 0 0.185 0.04 0 0.19 0.04 0 0.195 0.04 0 0.2 0.04 0 0.205 0.04 0 0.21 0.04 0 0.215 0.04 0 0.22 0.04 0 0.225 0.04 0 0.23 0.04 0 0.235 0.04 0 0.24 0.04 0 0.245 0.04 0 0.25 0.04 0 0.255 0.04 0 0.26 0.04 0 0.265 0.04 0 0.27 0.04 0 0.275 0.04 0 0.28 0.04 0 0.285 0.04 0 0.29 0.04 0 0.295 0.04 0 0.300001 0.04 0 0.305002 0.04 0 0.310006 0.04 0 0.315018 0.04 0 0.320045 0.04 0 0.325102 0.04 0 0.33021 0.04 0 0.335391 0.04 0 0.340667 0.04 0 0.346058 0.04 0 0.351577 0.04 0 0.357239 0.04 0 0.363055 0.04 0 0.369038 0.04 0 0.3752 0.04 0 0.381555 0.04 0 0.388117 0.04 0 0.394903 0.04 0 0.40193 0.04 0 0.409218 0.04 0 0.416791 0.04 0 0.424673 0.04 0 0.432893 0.04 0 0.441484 0.04 0 0.450482 0.04 0 0.459929 0.04 0 0.469871 0.04 0 0.480354 0.04 0 0.491418 0.04 0 0.503065 0.04 0 0.515168 0.04 0 0.52734 0.04 0 0.539392 0.04 0 0.551324 0.04 0 0.563162 0.04 0 0.574941 0.04 0 0.586693 0.04 0 0.598432 0.04 0 0.610167 0.04 0 0.6219 0.04 0 0.633648 0.04 0 0.636259 0.04 0 0.638796 0.04 0 0.641288 0.04 0 0.643749 0.04 0 0.646188 0.04 0 0.648612 0.04 0 0.651026 0.04 0 0.653439 0.04 0 0.655852 0.04 0 0.65825 0.04 0 0.660637 0.04 0 0.663018 0.04 0 0.665395 0.04 0 0.667771 0.04 0 0.670144 0.04 0 0.672514 0.04 0 0.674883 0.04 0 0.67725 0.04 0 0.679615 0.04 0 0.681977 0.04 0 0.684339 0.04 0 0.686702 0.04 0 0.689065 0.04 0 0.691427 0.04 0 0.69379 0.04 0 0.696154 0.04 0 0.698516 0.04 0 0.700878 0.04 0 0.703242 0.04 0 0.705606 0.04 0 0.707969 0.04 0 0.710332 0.04 0 0.712695 0.04 0 0.715058 0.04 0 0.717425 0.04 0 0.719792 0.04 0 0.722159 0.04 0 0.724523 0.04 0 0.726885 0.04 0 0.729247 0.04 0 0.731608 0.04 0 0.733973 0.04 0 0.736349 0.04 0 0.738748 0.04 0 0.741172 0.04 0 0.743665 0.04 0 0.746246 0.04 0 0.748953 0.04 0 0.75183 0.04 0 0.754943 0.04 0 0.758335 0.04 0 0.762073 0.04 0 0.766163 0.04 0 0.77058 0.04 0 0.775258 0.04 0 0.780104 0.04 0 0.785039 0.04 0 0.790014 0.04 0 0.795005 0.04 0 0.800002 0.04 0 0.805001 0.04 0 0.81 0.04 0 0.815 0.04 0 0.82 0.04 0 0.825 0.04 0 0.83 0.04 0 0.835 0.04 0 0.84 0.04 0 0.845 0.04 0 0.85 0.04 0 0.855 0.04 0 0.86 0.04 0 0.865 0.04 0 0.87 0.04 0 0.875 0.04 0 0.88 0.04 0 0.885 0.04 0 0.89 0.04 0 0.895 0.04 0 0.9 0.04 0 0.905 0.04 0 0.91 0.04 0 0.915 0.04 0 0.92 0.04 0 0.925 0.04 0 0.93 0.04 0 0.935 0.04 0 0.94 0.04 0 0.945 0.04 0 0.95 0.04 0 0.955 0.04 0 0.96 0.04 0 0.965 0.04 0 0.97 0.04 0 0.975 0.04 0 0.98 0.04 0 0.985 0.04 0 0.99 0.04 0 0.995 0.04 0 1 0.04 0 0 0.06 0 0.005 0.06 0 0.01 0.06 0 0.015 0.06 0 0.02 0.06 0 0.025 0.06 0 0.03 0.06 0 0.035 0.06 0 0.04 0.06 0 0.045 0.06 0 0.05 0.06 0 0.055 0.06 0 0.06 0.06 0 0.065 0.06 0 0.07 0.06 0 0.075 0.06 0 0.08 0.06 0 0.085 0.06 0 0.09 0.06 0 0.095 0.06 0 0.1 0.06 0 0.105 0.06 0 0.11 0.06 0 0.115 0.06 0 0.12 0.06 0 0.125 0.06 0 0.13 0.06 0 0.135 0.06 0 0.14 0.06 0 0.145 0.06 0 0.15 0.06 0 0.155 0.06 0 0.16 0.06 0 0.165 0.06 0 0.17 0.06 0 0.175 0.06 0 0.18 0.06 0 0.185 0.06 0 0.19 0.06 0 0.195 0.06 0 0.2 0.06 0 0.205 0.06 0 0.21 0.06 0 0.215 0.06 0 0.22 0.06 0 0.225 0.06 0 0.23 0.06 0 0.235 0.06 0 0.24 0.06 0 0.245 0.06 0 0.25 0.06 0 0.255 0.06 0 0.26 0.06 0 0.265 0.06 0 0.27 0.06 0 0.275 0.06 0 0.28 0.06 0 0.285 0.06 0 0.29 0.06 0 0.295 0.06 0 0.300001 0.06 0 0.305002 0.06 0 0.310006 0.06 0 0.315018 0.06 0 0.320045 0.06 0 0.325102 0.06 0 0.33021 0.06 0 0.335391 0.06 0 0.340667 0.06 0 0.346058 0.06 0 0.351577 0.06 0 0.357239 0.06 0 0.363055 0.06 0 0.369038 0.06 0 0.3752 0.06 0 0.381555 0.06 0 0.388117 0.06 0 0.394903 0.06 0 0.40193 0.06 0 0.409218 0.06 0 0.416791 0.06 0 0.424673 0.06 0 0.432893 0.06 0 0.441484 0.06 0 0.450482 0.06 0 0.459929 0.06 0 0.469871 0.06 0 0.480354 0.06 0 0.491418 0.06 0 0.503065 0.06 0 0.515168 0.06 0 0.52734 0.06 0 0.539392 0.06 0 0.551324 0.06 0 0.563162 0.06 0 0.574941 0.06 0 0.586693 0.06 0 0.598432 0.06 0 0.610167 0.06 0 0.6219 0.06 0 0.633648 0.06 0 0.636259 0.06 0 0.638796 0.06 0 0.641288 0.06 0 0.643749 0.06 0 0.646188 0.06 0 0.648612 0.06 0 0.651026 0.06 0 0.653439 0.06 0 0.655852 0.06 0 0.65825 0.06 0 0.660637 0.06 0 0.663018 0.06 0 0.665395 0.06 0 0.667771 0.06 0 0.670144 0.06 0 0.672514 0.06 0 0.674883 0.06 0 0.67725 0.06 0 0.679615 0.06 0 0.681977 0.06 0 0.684339 0.06 0 0.686702 0.06 0 0.689065 0.06 0 0.691427 0.06 0 0.69379 0.06 0 0.696154 0.06 0 0.698516 0.06 0 0.700878 0.06 0 0.703242 0.06 0 0.705606 
[...]
			<PointData Scalars="VitesseX">
				<DataArray Name="VitesseX" type="Float32" format="ascii">
 0 3.30273e-16 1.18957e-15 -9.79055e-16 3.25852e-15 3.2419e-15 2.36244e-15 -2.17136e-15 7.63642e-15 4.2219e-15 -4.03034e-15 4.23487e-15 9.08211e-15 7.06172e-15 6.80193e-15 1.19162e-14 -9.33531e-15 9.81638e-15 1.43694e-14 5.75555e-15 -1.22338e-14 2.47365e-15 7.58575e-15 8.19295e-15 1.46499e-15 1.58793e-14 -3.30986e-15 -6.76954e-15 2.28165e-14 1.1991e-14 2.4911e-14 -1.69952e-14 2.79687e-14 5.32586e-15 -2.33035e-15 9.17253e-15 1.05534e-14 1.01559e-14 1.18664e-14 -1.98292e-14 3.1517e-14 2.17098e-15 4.95622e-14 9.5203e-15 3.41745e-14 2.70432e-14 4.60204e-14 1.15305e-13 4.28159e-13 3.23566e-12 2.22151e-11 1.45775e-10 9.05184e-10 5.29173e-09 2.90495e-08 1.49324e-07 7.16336e-07 3.19487e-06 1.31891e-05 5.01355e-05 0.000174408 0.000551227 0.00156982 0.0039941 0.00901463 0.0179948 0.0318933 0.0507738 0.0738733 0.100129 0.128653 0.158886 0.190539 0.223483 0.257678 0.29313 0.329873 0.367964 0.407472 0.448482 0.491087 0.535391 0.5815 0.629515 0.67951 0.731484 0.785249 0.840133 0.894143 0.941452 0.96534 0.955792 0.946096 0.937458 0.93193 0.92909 0.927811 0.927189 0.926806 0.926611 0.926822 0.926689 0.926624 0.926561 0.926537 0.926506 0.926473 0.926441 0.926414 0.926394 0.92638 0.926369 0.926357 0.926338 0.926308 0.926264 0.926203 0.926126 0.926037 0.925943 0.925853 0.925776 0.925722 0.925697 0.925706 0.925884 0.925914 0.925847 0.925757 0.925659 0.925594 0.92557 0.92557 0.925742 0.926597 0.92698 0.926295 0.925085 0.924004 0.923374 0.922539 0.925082 0.924681 0.917195 0.920641 0.888204 0.84308 0.839502 0.771558 0.683084 0.620873 0.488895 0.370415 0.247525 0.14526 0.0728788 0.0316907 0.0124859 0.00467335 0.00170987 0.000619321 0.00022311 8.00532e-05 2.86118e-05 1.01826e-05 3.60631e-06 1.27019e-06 4.44592e-07 1.54536e-07 5.33039e-08 1.82328e-08 6.18054e-09 2.07495e-09 6.89588e-10 2.26749e-10 7.36953e-11 2.38061e-11 7.4643e-12 2.34204e-12 6.62335e-13 3.46365e-13 -6.92611e-14 -1.32044e-13 -1.3968e-14 -5.93604e-14 4.15301e-14 -5.47433e-14 -1.3808e-13 -1.21155e-13 1.12013e-13 4.57182e-14 -4.60012e-14 -3.2299e-14 -6.03147e-16 -9.51097e-14 5.56683e-15 6.9445e-14 -1.37531e-13 -7.00023e-14 6.39827e-14 0 0 -7.46375e-16 -3.53322e-17 1.52341e-15 -3.6973e-18 -1.11853e-15 3.86665e-15 5.5252e-15 2.60705e-15 6.65236e-15 1.26056e-15 4.66264e-15 -1.90357e-15 9.32455e-15 1.22496e-14 -7.44557e-15 1.28029e-14 6.47769e-16 1.35821e-14 -7.48896e-15 4.3914e-15 -5.90576e-15 8.21621e-15 4.1338e-16 1.05969e-14 2.39356e-14 8.38203e-16 4.17854e-15 2.00288e-15 1.21937e-14 1.73612e-14 1.24778e-14 2.05842e-15 -8.235e-15 -2.1105e-15 1.41924e-14 1.506e-14 2.4636e-14 -1.89253e-14 2.88151e-14 2.44649e-14 5.82767e-15 1.00691e-14 6.40027e-14 3.06746e-14 4.16041e-14 8.58566e-14 9.83716e-14 4.05219e-13 3.16864e-12 2.22027e-11 1.45767e-10 9.05243e-10 5.29169e-09 2.90495e-08 1.49323e-07 7.16336e-07 3.19487e-06 1.31891e-05 5.01355e-05 0.000174408 0.000551227 0.00156982 0.0039941 0.00901463 0.0179948 0.0318933 0.0507738 0.0738733 0.100129 0.128653 0.158886 0.190539 0.223483 0.257678 0.29313 0.329873 0.367964 0.407472 0.448482 0.491087 0.535391 0.5815 0.629515 0.67951 0.731484 0.785249 0.840133 0.894143 0.941452 0.96534 0.955792 0.946096 0.937458 0.93193 0.92909 0.927811 0.927189 0.926806 0.926611 0.926822 0.926689 0.926624 0.926561 0.926537 0.926506 0.926473 0.926441 0.926414 0.926394 0.92638 0.926369 0.926357 0.926338 0.926308 0.926264 0.926203 0.926126 0.926037 0.925943 0.925853 0.925776 0.925722 0.925697 0.925706 0.925884 0.925914 0.925847 0.925757 0.925659 0.925594 0.92557 0.92557 0.925742 0.926597 0.92698 0.926295 0.925085 0.924004 0.923374 0.922539 0.925082 0.924681 0.917195 0.920641 0.888204 0.84308 0.839502 0.771558 0.683084 0.620873 0.488895 0.370415 0.247525 0.14526 0.0728788 0.0316907 0.0124859 0.00467335 0.00170987 0.000619321 0.00022311 8.00532e-05 2.86118e-05 1.01826e-05 3.60631e-06 1.27019e-06 4.44592e-07 1.54536e-07 5.3304e-08 1.82328e-08 6.18046e-09 2.07507e-09 6.89561e-10 2.26721e-10 7.37398e-11 2.3669e-11 7.62016e-12 2.28612e-12 7.56599e-13 1.12309e-13 -6.29281e-15 5.21553e-14 -1.26571e-13 7.56045e-14 -4.61576e-14 -5.36795e-14 -1.24708e-13 -1.27608e-14 -1.42899e-15 -9.71629e-14 -6.01811e-16 3.03792e-14 -2.36679e-14 1.04484e-13 -7.57471e-14 -9.17222e-14 -1.25375e-13 8.65818e-14 5.63592e-14 0 0 -2.49553e-16 -1.4055e-16 1.16071e-15 1.17524e-16 -4.05494e-16 4.65247e-15 5.01704e-15 2.59008e-15 4.57575e-16 2.04909e-15 -2.82084e-15 3.1607e-15 6.70423e-15 1.08922e-14 6.2182e-15 6.06652e-15 4.85716e-15 -1.01686e-14 2.00608e-15 1.28205e-14 -3.86391e-17 5.23097e-16 -1.32007e-14 8.44266e-15 1.0347e-14 1.34662e-14 1.90483e-14 2.54454e-14 4.15795e-15 -1.52725e-15 2.88469e-14 -1.24124e-14 -2.21454e-14 -2.31376e-16 4.58637e-14 1.94011e-14 -2.75785e-14 9.26247e-15 1.59832e-14 2.45935e-14 4.5872e-14 -4.078e-15 5.40943e-14 6.61763e-14 8.57909e-14 6.42542e-14 1.42426e-13 4.43587e-13 3.02535e-12 2.21089e-11 1.45827e-10 9.05185e-10 5.29166e-09 2.90495e-08 1.49323e-07 7.16336e-07 3.19487e-06 1.31891e-05 5.01355e-05 0.000174408 0.000551227 0.00156982 0.0039941 0.00901463 0.0179948 0.0318933 0.0507738 0.0738733 0.100129 0.128653 0.158886 0.190539 0.223483 0.257678 0.29313 0.329873 0.367964 0.407472 0.448482 0.491087 0.535391 0.5815 0.629515 0.67951 0.731484 0.785249 0.840133 0.894143 0.941452 0.96534 0.955792 0.946096 0.937458 0.93193 0.92909 0.927811 0.927189 0.926806 0.926611 0.926822 0.926689 0.926624 0.926561 0.926537 0.926506 0.926473 0.926441 0.926414 0.926394 0.92638 0.926369 0.926357 0.926338 0.926308 0.926264 0.926203 0.926126 0.926037 0.925943 0.925853 0.925776 0.925722 0.925697 0.925706 0.925884 0.925914 0.925847 0.925757 0.925659 0.925594 0.92557 0.92557 0.925742 0.926597 0.92698 0.926295 0.925085 0.924004 0.923374 0.922539 0.925082 0.924681 0.917195 0.920641 0.888204 0.84308 0.839502 0.771558 0.683084 0.620873 0.488895 0.370415 0.247525 0.14526 0.0728788 0.0316907 0.0124859 0.00467335 0.00170987 0.000619321 0.00022311 8.00532e-05 2.86118e-05 1.01826e-05 3.60631e-06 1.27019e-06 4.44592e-07 1.54536e-07 5.33039e-08 1.82328e-08 6.18051e-09 2.07504e-09 6.89558e-10 2.26693e-10 7.36852e-11 2.37176e-11 7.66539e-12 2.41263e-12 6.82508e-13 2.36057e-14 1.46352e-13 -4.4716e-14 -6.58142e-15 7.24303e-14 -6.43211e-14 8.59976e-14 -1.673e-13 -5.98996e-14 -8.41816e-14 -1.32576e-13 3.29329e-14 4.88993e-14 -7.72893e-14 9.65374e-14 -3.53699e-14 -7.04834e-14 2.30096e-14 1.27744e-15 -2.97029e-14 0 0 1.46135e-15 4.12606e-16 -1.07344e-15 1.79016e-15 1.09696e-15 6.49011e-15 2.08045e-15 4.43552e-15 -4.07886e-15 -8.7541e-15 2.57143e-15 -3.23074e-15 1.17794e-14 6.61119e-16 1.15807e-14 -7.40727e-15 1.05749e-14 -1.24473e-15 1.4258e-14 1.32701e-15 3.5229e-15 4.50432e-16 -1.23895e-14 -3.99365e-15 -1.77768e-14 3.13553e-14 2.8796e-14 1.68296e-14 2.51887e-14 -1.75516e-14 2.2159e-14 2.82079e-15 -3.81527e-15 -4.55622e-15 5.19495e-14 -4.87478e-15 2.03424e-15 8.72816e-15 3.16294e-14 5.67297e-15 2.00568e-14 2.22613e-14 2.85379e-14 4.82779e-14 1.1046e-13 1.10279e-13 1.77728e-13 4.45029e-13 3.0233e-12 2.20043e-11 1.45829e-10 9.05116e-10 5.29163e-09 2.90495e-08 1.49323e-07 7.16336e-07 3.19487e-06 1.31891e-05 5.01355e-05 0.000174408 0.000551227 0.00156982 0.0039941 0.00901463 0.0179948 0.0318933 0.0507738 0.0738733 0.100129 0.128653 0.158886 0.190539 0.223483 0.257678 0.29313 0.329873 0.367964 0.407472 0.448482 0.491087 0.535391 0.5815 0.629515 0.67951 0.731484 0.785249 0.840133 0.894143 0.941452 0.96534 0.955792 0.946096 0.937458 0.93193 0.92909 0.927811 0.927189 0.926806 0.926611 0.926822 0.926689 0.926624 0.926561 0.926537 0.926506 0.926473 0.926441 0.926414 0.926394 0.92638 0.926369 0.926357 0.926338 0.926308 0.926264 0.926203 0.926126 0.926037 0.925943 0.925853 0.925776 0.925722 0.925697 0.925706 0.925884 0.925914 0.925847 0.925757 0.925659 0.925594 0.92557 0.92557 0.925742 0.926597 0.92698 0.926295 0.925085 0.924004 0.923374 0.922539 0.925082 0.924681 0.917195 0.920641 0.888204 0.84308 0.839502 0.771558 0.683084 0.620873 0.488895 0.370415 0.247525 0.14526 0.0728788 0.0316907 0.0124859 0.00467335 0.00170987 0.000619321 0.00022311 8.00532e-05 2.86118e-05 1.01826e-05 3.60631e-06 1.27019e-06 4.44592e-07 1.54536e-07 5.33038e-08 1.82328e-08 6.18044e-09 2.07508e-09 6.89571e-10 2.26749e-10 7.36963e-11 2.39389e-11 7.48153e-12 2.50623e-12 6.78219e-13 1.51693e-13 -1.12699e-13 7.69549e-14 3.61562e-14 -2.14446e-14 -8.62636e-14 1.76737e-13 -8.13445e-14 -2.15828e-13 -1.19479e-13 4.42021e-14 1.51382e-15 -6.27966e-14 -6.41395e-15 -5.67603e-14 -9.67887e-14 5.58799e-14 8.45725e-14 -1.09291e-13 1.51602e-13 0 0 3.67462e-15 3.78175e-15 -7.77466e-16 -9.24017e-16 -3.97137e-15 3.45673e-15 5.42395e-15 -3.32139e-15 3.2409e-15 -1.02811e-15 2.73939e-15 -1.96351e-14 9.75475e-15 -6.81088e-15 -4.22468e-15 3.91144e-15 5.7736e-15 1.70677e-14 -1.18697e-14 -2.93444e-15 1.4144e-14 6.21574e-15 4.48855e-15 3.73584e-15 -2.13948e-14 2.8548e-14 1.8125e-14 -2.02498e-14 2.32549e-14 2.97775e-16 2.62745e-14 1.61962e-14 1.37199e-14 1.33615e-16 2.41515e-14 -1.60402e-14 1.91283e-14 1.30362e-15 7.54691e-14 1.54239e-14 9.80872e-15 1.90572e-14 -4.95398e-15 6.77001e-14 1.10882e-13 2.02784e-13 1.15608e-13 4.6896e-13 3.04665e-12 2.1976e-11 1.45704e-10 9.05219e-10 5.29156e-09 2.90495e-08 1.49323e-07 7.16336e-07 3.19487e-06 1.31891e-05 5.01355e-05 0.000174408 0.000551227 0.00156982 0.0039941 0.00901463 0.0179948 0.0318933 0.0507738 0.0738733 0.100129 0.128653 0.158886 0.190539 0.223483 0.257678 0.29313 0.329873 0.367964 0.407472 0.448482 0.491087 0.535391 0.5815 0.629515 0.67951 0.731484 0.785249 0.840133 0.894143 0.941452 0.96534 0.955792 0.946096 0.937458 0.93193 0.92909 0.927811 0.927189 0.926806 0.926611 0.926822 0.926689 0.926624 0.926561 0.926537 0.926506 0.926473 0.926441 0.926414 0.926394 0.92638 0.926369 0.926357 0.926338 0.926308 0.926264 0.926203 0.926126 0.926037 0.925943 0.925853 0.925776 0.925722 0.925697 0.925706 0.925884 0.925914 0.925847 0.925757 0.925659 0.925594 0.92557 0.92557 0.925742 0.926597 0.92698 0.926295 0.925085 0.924004 0.923374 0.922539 0.925082 0.924681 0.917195 0.920641 0.888204 0.84308 0.839502 0.771558 0.683084 0.620873 0.488895 0.370415 0.247525 0.14526 0.0728788 0.0316907 0.0124859 0.00467335 0.00170987 0.000619321 0.00022311 8.00532e-05 2.86118e-05 1.01826e-05 3.60631e-06 1.27019e-06 4.44592e-07 1.54536e-07 5.33039e-08 1.82328e-08 6.18046e-09 2.07517e-09 6.89589e-10 2.26681e-10 7.39325e-11 2.40469e-11 7.43737e-12 2.58408e-12 5.27629e-13 2.56276e-13 -3.53519e-13 1.05787e-13 -8.84832e-15 5.41618e-14 -8.56506e-14 1.936e-14 -5.81791e-14 -2.04373e-14 -2.22774e-13 3.16688e-14 2.21261e-13 -5.9421e-14 5.58248e-14 -1.11215e-13 -7.5571e-14 -5.00532e-14 -4.51604e-14 3.79638e-14 1.71772e-13 0 0 5.75044e-15 7.71742e-15 -1.11252e-15 -1.9274e-15 -5.46869e-15 -2.13267e-15 3.49931e-15 -7.91135e-15 6.47187e-15 1.29987e-14 -1.03962e-14 -1.35981e-14 -2.2282e-15 -1.08568e-14 7.63286e-15 -1.70545e-16 8.63263e-15 3.49286e-15 -2.75098e-14 -3.89848e-15 3.545e-14 3.73016e-15 1.47208e-14 1.26155e-14 -1.85339e-14 1.63315e-14 1.62806e-15 -4.4572e-15 -7.94816e-15 2.28328e-14 2.39741e-14 2.5778e-14 1.25754e-14 1.08076e-14 1.69191e-14 -3.09513e-15 -6.0085e-14 5.33928e-14 4.21866e-14 5.1276e-14 6.17634e-14 1.48597e-14 -7.72804e-14 1.44022e-13 1.16261e-13 1.87824e-13 7.91734e-14 5.52757e-13 2.99578e-12 2.1971e-11 1.45646e-10 9.05273e-10 5.29152e-09 2.90495e-08 1.49323e-07 7.16336e-07 3.19487e-06 1.31891e-05 5.01355e-05 0.000174408 0.000551227 0.00156982 0.0039941 0.00901463 0.0179948 0.0318933 0.0507738 0.0738733 0.100129 0.128653 0.158886 0.190539 0.223483 0.257678 0.29313 0.329873 0.367964 0.407472 0.448482 0.491087 0.535391 0.5815 0.629515 0.67951 0.731484 0.785249 0.840133 0.894143 0.941452 0.96534 0.955792 0.946096 0.937458 0.93193 0.92909 0.927811 0.927189 0.926806 0.926611 0.926822 0.926689 0.926624 0.926561 0.926537 0.926506 0.926473 0.926441 0.926414 0.926394 0.92638 0.926369 0.926357 0.926338 0.926308 0.926264 0.926203 0.926126 0.926037 0.925943 0.925853 0.925776 0.925722 0.925697 0.925706 0.925884 0.925914 0.925847 0.925757 0.925659 0.925594 0.92557 0.92557 0.925742 0.926597 0.92698 0.926295 0.925085 0.924004 0.923374 0.922539 0.925082 0.924681 0.917195 0.920641 0.888204 0.84308 0.839502 0.771558 0.683084 0.620873 0.488895 0.370415 0.247525 0.14526 0.0728788 0.0316907 0.0124859 0.00467335 0.00170987 0.000619321 0.00022311 8.00532e-05 2.86118e-05 1.01826e-05 3.60631e-06 1.27019e-06 4.44592e-07 1.54536e-07 5.3304e-08 1.82327e-08 6.18068e-09 2.07508e-09 6.89618e-10 2.26558e-10 7.40587e-11 2.41193e-11 7.46607e-12 2.75096e-12 2.13432e-13 3.77777e-13 -2.46566e-13 -2.68232e-13 1.36423e-13 8.53256e-14 6.02537e-15 -9.05314e-14 -1.77606e-13 1.75265e-13 -2.59342e-13 -5.02444e-14 4.59925e-13 1.1062e-14 1.63893e-14 -2.20036e-13 1.289e-13 -9.9531e-14 -1.00439e-13 5.35735e-14 -6.80628e-14 0
				</DataArray>
				<DataArray Name="VitesseY" type="Float32" format="ascii">