<?xml version="1.0"?>
<VTKFile type="PolyData">
	<PolyData>
		<Piece NumberOfPoints="1206" NumberOfPolys="1000">
			<Points>
				<DataArray type="Float32" NumberOfComponents="3" format="ascii">
 0 0 0 0.02 0 0 0.04 0 0 0.06 0 0 0.08 0 0 0.1 0 0 0 0.005 0 0.02 0.005 0 0.04 0.005 0 0.06 0.005 0 0.08 0.005 0 0.1 0.005 0 0 0.01 0 0.02 0.01 0 0.04 0.01 0 0.06 0.01 0 0.08 0.01 0 0.1 0.01 0 0 0.015 0 0.02 0.015 0 0.04 0.015 0 0.06 0.015 0 0.08 0.015 0 0.1 0.015 0 0 0.02 0 0.02 0.02 0 0.04 0.02 0 0.06 0.02 0 0.08 0.02 0 0.1 0.02 0 0 0.025 0 0.02 0.025 0 0.04 0.025 0 0.06 0.025 0 0.08 0.025 0 0.1 0.025 0 0 0.03 0 0.02 0.03 0 0.04 0.03 0 0.06 0.03 0 0.08 0.03 0 0.1 0.03 0 0 0.035 0 0.02 0.035 0 0.04 0.035 0 0.06 0.035 0 0.08 0.035 0 0.1 0.035 0 0 0.04 0 0.02 0.04 0 0.04 0.04 0 0.06 0.04 0 0.08 0.04 0 0.1 0.04 0 0 0.045 0 0.02 0.045 0 0.04 0.045 0 0.06 0.045 0 0.08 0.045 0 0.1 0.045 0 0 0.05 0 0.02 0.05 0 0.04 0.05 0 0.06 0.05 0 0.08 0.05 0 0.1 0.05 0 0 0.055 0 0.02 0.055 0 0.04 0.055 0 0.06 0.055 0 0.08 0.055 0 0.1 0.055 0 0 0.06 0 0.02 0.06 0 0.04 0.06 0 0.06 0.06 0 0.08 0.06 0 0.1 0.06 0 0 0.065 0 0.02 0.065 0 0.04 0.065 0 0.06 0.065 0 0.08 0.065 0 0.1 0.065 0 0 0.07 0 0.02 0.07 0 0.04 0.07 0 0.06 0.07 0 0.08 0.07 0 0.1 0.07 0 0 0.075 0 0.02 0.075 0 0.04 0.075 0 0.06 0.075 0 0.08 0.075 0 0.1 0.075 0 0 0.08 0 0.02 0.08 0 0.04 0.08 0 0.06 0.08 0 0.08 0.08 0 0.1 0.08 0 0 0.085 0 0.02 0.085 0 0.04 0.085 0 0.06 0.085 0 0.08 0.085 0 0.1 0.085 0 0 0.09 0 0.02 0.09 0 0.04 0.09 0 0.06 0.09 0 0.08 0.09 0 0.1 0.09 0 0 0.095 0 0.02 0.095 0 0.04 0.095 0 0.06 0.095 0 0.08 0.095 0 0.1 0.095 0 0 0.1 0 0.02 0.1 0 0.04 0.1 0 0.06 0.1 0 0.08 0.1 0 0.1 0.1 0 0 0.105 0 0.02 0.105 0 0.04 0.105 0 0.06 0.105 0 0.08 0.105 0 0.1 0.105 0 0 0.11 0 0.02 0.11 0 0.04 0.11 0 0.06 0.11 0 0.08 0.11 0 0.1 0.11 0 0 0.115 0 0.02 0.115 0 0.04 0.115 0 0.06 0.115 0 0.08 0.115 0 0.1 0.115 0 0 0.12 0 0.02 0.12 0 0.04 0.12 0 0.06 0.12 0 0.08 0.12 0 0.1 0.12 0 0 0.125 0 0.02 0.125 0 0.04 0.125 0 0.06 0.125 0 0.08 0.125 0 0.1 0.125 0 0 0.13 0 0.02 0.13 0 0.04 0.13 0 0.06 0.13 0 0.08 0.13 0 0.1 0.13 0 0 0.135 0 0.02 0.135 0 0.04 0.135 0 0.06 0.135 0 0.08 0.135 0 0.1 0.135 0 0 0.14 0 0.02 0.14 0 0.04 0.14 0 0.06 0.14 0 0.08 0.14 0 0.1 0.14 0 0 0.145 0 0.02 0.145 0 0.04 0.145 0 0.06 0.145 0 0.08 0.145 0 0.1 0.145 0 0 0.15 0 0.02 0.15 0 0.04 0.15 0 0.06 0.15 0 0.08 0.15 0 0.1 0.15 0 0 0.155 0 0.02 0.155 0 0.04 0.155 0 0.06 0.155 0 0.08 0.155 0 0.1 0.155 0 0 0.16 0 0.02 0.16 0 0.04 0.16 0 0.06 0.16 0 0.08 0.16 0 0.1 0.16 0 0 0.165 0 0.02 0.165 0 0.04 0.165 0 0.06 0.165 0 0.08 0.165 0 0.1 0.165 0 0 0.17 0 0.02 0.17 0 0.04 0.17 0 0.06 0.17 0 0.08 0.17 0 0.1 0.17 0 0 0.175 0 0.02 0.175 0 0.04 0.175 0 0.06 0.175 0 0.08 0.175 0 0.1 0.175 0 0 0.18 0 0.02 0.18 0 0.04 0.18 0 0.06 0.18 0 0.08 0.18 0 0.1 0.18 0 0 0.185 0 0.02 0.185 0 0.04 0.185 0 0.06 0.185 0 0.08 0.185 0 0.1 0.185 0 0 0.19 0 0.02 0.19 0 0.04 0.19 0 0.06 0.19 0 0.08 0.19 0 0.1 0.19 0 0 0.195 0 0.02 0.195 0 0.04 0.195 0 0.06 0.195 0 0.08 0.195 0 0.1 0.195 0 0 0.2 0 0.02 0.2 0 0.04 0.2 0 0.06 0.2 0 0.08 0.2 0 0.1 0.2 0 0 0.205 0 0.02 0.205 0 0.04 0.205 0 0.06 0.205 0 0.08 0.205 0 0.1 0.205 0 0 0.21 0 0.02 0.21 0 0.04 0.21 0 0.06 0.21 0 0.08 0.21 0 0.1 0.21 0 0 0.215 0 0.02 0.215 0 0.04 0.215 0 0.06 0.215 0 0.08 0.215 0 0.1 0.215 0 0 0.22 0 0.02 0.22 0 0.04 0.22 0 0.06 0.22 0 0.08 0.22 0 0.1 0.22 0 0 0.225 0 0.02 0.225 0 0.04 0.225 0 0.06 0.225 0 0.08 0.225 0 0.1 0.225 0 0 0.23 0 0.02 0.23 0 0.04 0.23 0 0.06 0.23 0 0.08 0.23 0 0.1 0.23 0 0 0.235 0 0.02 0.235 0 0.04 0.235 0 0.06 0.235 0 0.08 0.235 0 0.1 0.235 0 0 0.240001 0 0.02 0.240001 0 0.04 0.240001 0 0.06 0.240001 0 0.08 0.240001 0 0.1 0.240001 0 0 0.245004 0 0.02 0.245004 0 0.04 0.245004 0 0.06 0.245004 0 0.08 0.245004 0 0.1 0.245004 0 0 0.250011 0 0.02 0.250011 0 0.04 0.250011 0 0.06 0.250011 0 0.08 0.250011 0 0.1 0.250011 0 0 0.255026 0 0.02 0.255026 0 0.04 0.255026 0 0.06 0.255026 0 0.08 0.255026 0 0.1 0.255026 0 0 0.260057 0 0.02 0.260057 0 0.04 0.260057 0 0.06 0.260057 0 0.08 0.260057 0 0.1 0.260057 0 0 0.265116 0 0.02 0.265116 0 0.04 0.265116 0 0.06 0.265116 0 0.08 0.265116 0 0.1 0.265116 0 0 0.270217 0 0.02 0.270217 0 0.04 0.270217 0 0.06 0.270217 0 0.08 0.270217 0 0.1 0.270217 0 0 0.275374 0 0.02 0.275374 0 0.04 0.275374 0 0.06 0.275374 0 0.08 0.275374 0 0.1 0.275374 0 0 0.280602 0 0.02 0.280602 0 0.04 0.280602 0 0.06 0.280602 0 0.08 0.280602 0 0.1 0.280602 0 0 0.285912 0 0.02 0.285912 0 0.04 0.285912 0 0.06 0.285912 0 0.08 0.285912 0 0.1 0.285912 0 0 0.291313 0 0.02 0.291313 0 0.04 0.291313 0 0.06 0.291313 0 0.08 0.291313 0 0.1 0.291313 0 0 0.296813 0 0.02 0.296813 0 0.04 0.296813 0 0.06 0.296813 0 0.08 0.296813 0 0.1 0.296813 0 0 0.302418 0 0.02 0.302418 0 0.04 0.302418 0 0.06 0.302418 0 0.08 0.302418 0 0.1 0.302418 0 0 0.308135 0 0.02 0.308135 0 0.04 0.308135 0 0.06 0.308135 0 0.08 0.308135 0 0.1 0.308135 0 0 0.31397 0 0.02 0.31397 0 0.04 0.31397 0 0.06 0.31397 0 0.08 0.31397 0 0.1 0.31397 0 0 0.31993 0 0.02 0.31993 0 0.04 0.31993 0 0.06 0.31993 0 0.08 0.31993 0 0.1 0.31993 0 0 0.32602 0 0.02 0.32602 0 0.04 0.32602 0 0.06 0.32602 0 0.08 0.32602 0 0.1 0.32602 0 0 0.332249 0 0.02 0.332249 0 0.04 0.332249 0 0.06 0.332249 0 0.08 0.332249 0 0.1 0.332249 0 0 0.338623 0 0.02 0.338623 0 0.04 0.338623 0 0.06 0.338623 0 0.08 0.338623 0 0.1 0.338623 0 0 0.345152 0 0.02 0.345152 0 0.04 0.345152 0 0.06 0.345152 0 0.08 0.345152 0 0.1 0.345152 0 0 0.351842 0 0.02 0.351842 0 0.04 0.351842 0 0.06 0.351842 0 0.08 0.351842 0 0.1 0.351842 0 0 0.358705 0 0.02 0.358705 0 0.04 0.358705 0 0.06 0.358705 0 0.08 0.358705 0 0.1 0.358705 0 0 0.365749 0 0.02 0.365749 0 0.04 0.365749 0 0.06 0.365749 0 0.08 0.365749 0 0.1 0.365749 0 0 0.372987 0 0.02 0.372987 0 0.04 0.372987 0 0.06 0.372987 0 0.08 0.372987 0 0.1 0.372987 0 0 0.38043 0 0.02 0.38043 0 0.04 0.38043 0 0.06 0.38043 0 0.08 0.38043 0 0.1 0.38043 0 0 0.388092 0 0.02 0.388092 0 0.04 0.388092 0 0.06 0.388092 0 0.08 0.388092 0 0.1 0.388092 0 0 0.395986 0 0.02 0.395986 0 0.04 0.395986 0 0.06 0.395986 0 0.08 0.395986 0 0.1 0.395986 0 0 0.40413 0 0.02 0.40413 0 0.04 0.40413 0 0.06 0.40413 0 0.08 0.40413 0 0.1 0.40413 0 0 0.41254 0 0.02 0.41254 0 0.04 0.41254 0 0.06 0.41254 0 0.08 0.41254 0 0.1 0.41254 0 0 0.421236 0 0.02 0.421236 0 0.04 0.421236 0 0.06 0.421236 0 0.08 0.421236 0 0.1 0.421236 0 0 0.430239 0 0.02 0.430239 0 0.04 0.430239 0 0.06 0.430239 0 0.08 0.430239 0 0.1 0.430239 0 0 0.439573 0 0.02 0.439573 0 0.04 0.439573 0 0.06 0.439573 0 0.08 0.439573 0 0.1 0.439573 0 0 0.449263 0 0.02 0.449263 0 0.04 0.449263 0 0.06 0.449263 0 0.08 0.449263 0 0.1 0.449263 0 0 0.459336 0 0.02 0.459336 0 0.04 0.459336 0 0.06 0.459336 0 0.08 0.459336 0 0.1 0.459336 0 0 0.469821 0 0.02 0.469821 0 0.04 0.469821 0 0.06 0.469821 0 0.08 0.469821 0 0.1 0.469821 0 0 0.480742 0 0.02 0.480742 0 0.04 0.480742 0 0.06 0.480742 0 0.08 0.480742 0 0.1 0.480742 0 0 0.492113 0 0.02 0.492113 0 0.04 0.492113 0 0.06 0.492113 0 0.08 0.492113 0 0.1 0.492113 0 0 0.50391 0 0.02 0.50391 0 0.04 0.50391 0 0.06 0.50391 0 0.08 0.50391 0 0.1 0.50391 0 0 0.516005 0 0.02 0.516005 0 0.04 0.516005 0 0.06 0.516005 0 0.08 0.516005 0 0.1 0.516005 0 0 0.528117 0 0.02 0.528117 0 0.04 0.528117 0 0.06 0.528117 0 0.08 0.528117 0 0.1 0.528117 0 0 0.540145 0 0.02 0.540145 0 0.04 0.540145 0 0.06 0.540145 0 0.08 0.540145 0 0.1 0.540145 0 0 0.552084 0 0.02 0.552084 0 0.04 0.552084 0 0.06 0.552084 0 0.08 0.552084 0 0.1 0.552084 0 0 0.563943 0 0.02 0.563943 0 0.04 0.563943 0 0.06 0.563943 0 0.08 0.563943 0 0.1 0.563943 0 0 0.575746 0 0.02 0.575746 0 0.04 0.575746 0 0.06 0.575746 0 0.08 0.575746 0 0.1 0.575746 0 0 0.587512 0 0.02 0.587512 0 0.04 0.587512 0 0.06 0.587512 0 0.08 0.587512 0 0.1 0.587512 0 0 0.59926 0 0.02 0.59926 0 0.04 0.59926 0 0.06 0.59926 0 0.08 0.59926 0 0.1 0.59926 0 0 0.611 0 0.02 0.611 0 0.04 0.611 0 0.06 0.611 0 0.08 0.611 0 0.1 0.611 0 0 0.622736 0 0.02 0.622736 0 0.04 0.622736 0 0.06 0.622736 0 0.08 0.622736 0 0.1 0.622736 0 0 0.634471 0 0.02 0.634471 0 0.04 0.634471 0 0.06 0.634471 0 0.08 0.634471 0 0.1 0.634471 0 0 0.646205 0 0.02 0.646205 0 0.04 0.646205 0 0.06 0.646205 0 0.08 0.646205 0 0.1 0.646205 0 0 0.65794 0 0.02 0.65794 0 0.04 0.65794 0 0.06 0.65794 0 0.08 0.65794 0 0.1 0.65794 0 0 0.669678 0 0.02 0.669678 0 0.04 0.669678 0 0.06 0.669678 0 0.08 0.669678 0 0.1 0.669678 0 0 0.681427 0 0.02 0.681427 0 0.04 0.681427 0 0.06 0.681427 0 0.08 0.681427 0 0.1 0.681427 0 0 0.68404 0 0.02 0.68404 0 0.04 0.68404 0 0.06 0.68404 0 0.08 0.68404 0 0.1 0.68404 0 0 0.686579 0 0.02 0.686579 0 0.04 0.686579 0 0.06 0.686579 0 0.08 0.686579 0 0.1 0.686579 0 0 0.689071 0 0.02 0.689071 0 0.04 0.689071 0 0.06 0.689071 0 0.08 0.689071 0 0.1 0.689071 0 0 0.691532 0 0.02 0.691532 0 0.04 0.691532 0 0.06 0.691532 0 0.08 0.691532 0 0.1 0.691532 0 0 0.69397 0 0.02 0.69397 0 0.04 0.69397 0 0.06 0.69397 0 0.08 0.69397 0 0.1 0.69397 0 0 0.696392 0 0.02 0.696392 0 0.04 0.696392 0 0.06 0.696392 0 0.08 0.696392 0 0.1 0.696392 0 0 0.698802 0 0.02 0.698802 0 0.04 0.698802 0 0.06 0.698802 0 0.08 0.698802 0 0.1 0.698802 0 0 0.701201 0 0.02 0.701201 0 0.04 0.701201 0 0.06 0.701201 0 0.08 0.701201 0 0.1 0.701201 0 0 0.703595 0 0.02 0.703595 0 0.04 0.703595 0 0.06 0.703595 0 0.08 0.703595 0 0.1 0.703595 0 0 0.705981 0 0.02 0.705981 0 0.04 0.705981 0 0.06 0.705981 0 0.08 0.705981 0 0.1 0.705981 0 0 0.708362 0 0.02 0.708362 0 0.04 0.708362 0 0.06 0.708362 0 0.08 0.708362 0 0.1 0.708362 0 0 0.710739 0 0.02 0.710739 0 0.04 0.710739 0 0.06 0.710739 0 0.08 0.710739 0 0.1 0.710739 0 0 0.713112 0 0.02 0.713112 0 0.04 0.713112 0 0.06 0.713112 0 0.08 0.713112 0 0.1 0.713112 0 0 0.715481 0 0.02 0.715481 0 0.04 0.715481 0 0.06 0.715481 0 0.08 0.715481 0 0.1 0.715481 0 0 0.717849 0 0.02 0.717849 0 0.04 0.717849 0 0.06 0.717849 0 0.08 0.717849 0 0.1 0.717849 0 0 0.720213 0 0.02 0.720213 0 0.04 0.720213 0 0.06 0.720213 0 0.08 0.720213 0 0.1 0.720213 0 0 0.722576 0 0.02 0.722576 0 0.04 0.722576 0 0.06 0.722576 0 0.08 0.722576 0 0.1 0.722576 0 0 0.724937 0 0.02 0.724937 0 0.04 0.724937 0 0.06 0.724937 0 0.08 0.724
[...]
			<PointData Scalars="VitesseX">
				<DataArray Name="VitesseX" type="Float32" format="ascii">
 0 1.60004e-15 -1.63438e-15 6.50546e-16 3.51188e-15 0 0 9.45757e-16 -7.39123e-16 3.0564e-17 3.0661e-15 0 0 -9.61946e-16 1.91521e-15 -2.20644e-15 3.13358e-15 0 0 -1.90536e-15 3.36695e-15 -3.83107e-15 2.54772e-15 0 0 -1.23292e-15 1.39903e-15 -2.31488e-15 -8.05761e-17 0 0 -1.58297e-16 -8.31603e-16 -1.39151e-15 -3.03894e-15 0 0 -7.48904e-16 -7.82365e-16 -1.81268e-15 -4.26665e-15 0 0 -3.43359e-15 1.45861e-15 -1.73505e-15 -5.74984e-15 0 0 -3.57995e-15 1.59103e-15 -1.04168e-15 -6.91796e-15 0 0 -1.43263e-15 -1.05599e-15 1.27804e-15 -7.60905e-15 0 0 -7.09253e-16 4.18652e-16 7.87683e-17 -5.57545e-15 0 0 2.23991e-15 1.24504e-19 -1.88002e-15 -3.46896e-15 0 0 4.32114e-15 -1.01593e-15 -3.51103e-15 -2.15713e-16 0 0 -2.00895e-17 3.79795e-15 -3.43492e-15 3.94724e-15 0 0 -2.04314e-15 3.40382e-15 4.82857e-15 1.75254e-15 0 0 -3.14503e-15 4.60814e-15 5.85198e-15 4.74233e-15 0 0 -4.55472e-17 1.89223e-15 6.73226e-15 6.88507e-15 0 0 2.51061e-15 1.12013e-15 9.57613e-15 3.53031e-15 0 0 2.56471e-15 5.18769e-15 1.04826e-14 -2.29282e-16 0 0 3.30812e-15 7.46543e-15 7.44222e-15 5.00987e-15 0 0 4.10437e-15 7.77497e-15 5.09509e-15 1.16042e-14 0 0 4.48356e-15 4.91546e-15 1.16047e-14 5.11378e-15 0 0 6.49417e-15 -4.2955e-16 1.37575e-14 3.01412e-15 0 0 8.65817e-15 -1.72242e-15 8.88297e-15 4.79295e-15 0 0 3.8033e-15 3.43592e-15 9.29264e-15 5.6534e-16 0 0 2.53869e-15 3.59972e-15 1.16729e-14 -6.07367e-16 0 0 2.62047e-15 2.49832e-15 8.45363e-15 1.2418e-15 0 0 3.54225e-16 -1.78946e-16 6.77198e-15 3.42169e-15 0 0 -1.23121e-15 -4.23663e-15 1.75732e-15 1.66405e-14 0 0 -3.71937e-15 -5.8595e-15 -8.31493e-16 2.93527e-14 0 0 -1.13404e-14 4.24736e-15 2.35855e-15 2.45523e-14 0 0 -9.71056e-15 5.85348e-15 4.09207e-15 2.14189e-14 0 0 -3.08195e-15 9.64108e-16 5.61728e-15 2.75486e-14 0 0 -7.52244e-15 2.00557e-14 -1.96148e-15 3.29797e-14 0 0 -1.58325e-15 2.21696e-14 4.41648e-15 1.0644e-14 0 0 1.36524e-14 3.82087e-15 1.86555e-14 -7.19071e-15 0 0 4.79955e-15 1.07418e-15 2.96358e-15 -8.599e-15 0 0 -9.98944e-15 -5.32657e-16 3.72933e-15 -2.66088e-14 0 0 -6.61937e-15 -5.59861e-15 7.20993e-15 -2.28689e-14 0 0 -6.78837e-15 -5.42155e-15 -1.17838e-14 -1.30337e-14 0 0 -1.35557e-14 -1.73888e-14 -2.15416e-14 -1.82555e-14 0 0 -1.93463e-14 -3.13777e-14 -8.98581e-15 -2.97411e-14 0 0 -1.41006e-14 -2.7906e-14 7.26772e-16 -4.18772e-14 0 0 -1.78069e-14 -2.61726e-14 -8.49798e-15 -4.32213e-14 0 0 -2.74524e-14 -3.09113e-14 -4.58141e-15 -5.27011e-14 0 0 -1.56649e-14 -3.64022e-14 2.90027e-15 -5.84383e-14 0 0 -1.80008e-14 -3.01427e-14 -1.29558e-14 -4.24418e-14 0 0 -2.04259e-14 -3.76871e-14 -4.67643e-15 -4.46236e-14 0 0 -1.09861e-14 -3.67613e-14 5.09391e-15 -4.52583e-14 0 0 -3.31482e-15 -2.2572e-14 -1.51759e-14 -3.60631e-14 0 0 -1.68034e-14 -1.36326e-14 -7.22748e-15 -4.23912e-14 0 0 -3.92171e-14 6.97591e-15 -5.67829e-15 -3.30968e-14 0 0 -3.89804e-14 -1.59903e-14 2.05549e-15 -5.25098e-15 0 0 -2.6694e-14 -3.28111e-14 1.22934e-14 1.07774e-14 0 0 -2.61274e-14 -1.29096e-14 1.49041e-14 -1.86783e-15 0 0 -3.21283e-14 -7.11498e-15 3.3546e-14 -1.79632e-14 0 0 -1.39356e-14 -4.29406e-15 1.92716e-14 6.70761e-15 0 0 -7.31625e-15 1.33529e-14 -8.87256e-15 3.0381e-14 0 0 -2.34916e-14 1.76444e-14 -9.60774e-15 1.68128e-14 0 0 -4.05289e-14 1.80983e-14 -2.05696e-14 1.65416e-14 0 0 -4.8389e-14 1.80314e-14 -9.22871e-15 4.89718e-15 0 0 -4.26933e-14 1.66981e-14 2.45014e-14 -9.46297e-15 0 0 -1.95873e-14 3.15954e-14 1.51736e-14 1.03465e-14 0 0 -1.00378e-14 1.72629e-14 -5.65095e-16 4.09351e-14 0 0 -6.86927e-15 4.10096e-15 -1.09247e-14 3.98539e-14 0 0 -1.30887e-14 5.16074e-15 5.65895e-15 -1.06299e-15 0 0 4.01397e-15 -1.44985e-14 3.71333e-14 -7.79606e-15 0 0 3.28274e-15 -1.12601e-14 1.73307e-14 2.73879e-14 0 0 -4.02633e-15 -1.47383e-14 1.42611e-15 3.18942e-14 0 0 2.81689e-15 -1.44422e-14 2.24926e-14 4.69046e-15 0 0 -1.60141e-14 3.44465e-14 1.52444e-14 -1.62621e-14 0 0 -3.77154e-15 2.29561e-14 1.91209e-15 -2.0257e-14 0 0 -1.61167e-15 1.29301e-14 -1.38726e-14 -2.1446e-15 0 0 2.44294e-14 -8.33849e-16 -4.83426e-15 7.74894e-16 0 0 2.48045e-14 3.41295e-15 -9.27079e-16 -3.40558e-14 0 0 -6.83181e-15 1.94172e-14 1.62021e-15 -1.99145e-14 0 0 1.54754e-14 8.86172e-15 -9.68259e-15 2.88986e-14 0 0 7.16235e-15 2.69677e-14 -1.63883e-14 1.41129e-14 0 0 -6.66823e-15 1.16201e-14 9.48614e-15 3.37512e-15 0 0 2.12531e-14 -1.76128e-14 2.36185e-14 -1.69667e-15 0 0 3.30723e-14 -2.575e-14 4.10922e-14 -8.70854e-15 0 0 1.98746e-14 1.40659e-14 1.75015e-14 9.119e-15 0 0 4.39945e-14 5.10157e-15 -4.48536e-15 2.49942e-14 0 0 2.05252e-14 -6.59029e-15 1.64379e-14 3.19275e-14 0 0 -7.4704e-15 2.52263e-14 9.23289e-15 2.16673e-14 0 0 -2.10268e-14 3.4029e-14 -1.12716e-14 3.49961e-14 0 0 6.99145e-16 -2.95525e-16 -2.40491e-14 2.25182e-14 0 0 -3.86403e-15 -4.51999e-14 -2.66292e-14 -4.48864e-14 0 0 -4.60555e-14 -7.27964e-14 -3.65423e-14 -6.7513e-14 0 0 -6.41762e-14 -9.84094e-14 -8.39969e-14 -5.64231e-14 0 0 -5.43663e-14 -1.0804e-13 -8.33425e-14 -4.4341e-14 0 0 -3.31894e-14 -6.49071e-14 -3.18404e-14 -4.33423e-14 0 0 1.09373e-14 2.46255e-14 2.3976e-14 1.09429e-14 0 0 7.39358e-14 1.09338e-13 1.06071e-13 6.27003e-14 0 0 1.16872e-13 1.93045e-13 1.90289e-13 1.06282e-13 0 0 1.42824e-13 2.48469e-13 2.38634e-13 1.3772e-13 0 0 1.57774e-13 2.46588e-13 2.52959e-13 1.59031e-13 0 0 1.47678e-13 2.25729e-13 2.21702e-13 1.52585e-13 0 0 1.02838e-13 1.61461e-13 1.67815e-13 9.2778e-14 0 0 3.18614e-14 3.65959e-14 6.58463e-14 1.03505e-14 0 0 -1.83979e-14 -5.9556e-14 -3.73248e-14 -3.93859e-14 0 0 -1.48716e-13 -2.23454e-13 -1.50594e-13 -1.34138e-13 0 0 -1.49913e-13 -2.26062e-13 -2.05615e-13 -1.30315e-13 0 0 -1.76575e-13 -2.74968e-13 -2.34566e-13 -1.89797e-13 0 0 -2.22107e-13 -3.35346e-13 -2.8264e-13 -2.23568e-13 0 0 -2.72172e-13 -4.25679e-13 -3.50693e-13 -2.4657e-13 0 0 -2.7707e-13 -4.75056e-13 -3.75632e-13 -2.4449e-13 0 0 -1.67092e-13 -2.76474e-13 -2.49872e-13 -1.13169e-13 0 0 1.25409e-13 2.74547e-13 2.25705e-13 1.865e-13 0 0 6.10654e-13 1.02406e-12 1.06547e-12 5.95515e-13 0 0 1.09625e-12 1.77186e-12 1.86527e-12 1.09549e-12 0 0 1.39135e-12 2.26439e-12 2.26768e-12 1.38264e-12 0 0 1.44102e-12 2.33016e-12 2.37873e-12 1.39783e-12 0 0 1.32826e-12 2.17403e-12 2.22483e-12 1.34029e-12 0 0 1.16203e-12 1.92824e-12 1.9251e-12 1.20487e-12 0 0 9.84992e-13 1.63384e-12 1.66928e-12 1.00823e-12 0 0 8.08428e-13 1.34611e-12 1.40202e-12 8.29014e-13 0 0 6.33923e-13 1.12929e-12 1.12457e-12 7.57162e-13 0 0 5.24414e-13 8.99766e-13 9.07224e-13 6.46387e-13 0 0 4.07857e-13 7.10743e-13 7.38886e-13 5.01903e-13 0 0 2.71273e-13 6.04479e-13 6.16823e-13 4.46584e-13 0 0 2.00236e-13 4.52455e-13 5.29536e-13 3.66508e-13 0 0 1.74308e-13 3.22866e-13 3.88015e-13 3.3059e-13 0 0 1.24865e-13 2.83695e-13 2.6662e-13 2.79313e-13 0 0 9.07029e-14 2.30229e-13 2.19706e-13 2.15508e-13 0 0 8.02123e-14 1.54881e-13 1.99086e-13 1.26614e-13 0 0 5.32896e-14 1.40163e-13 1.62312e-13 7.59631e-14 0 0 2.74779e-14 1.35218e-13 1.20863e-13 7.21206e-14 0 0 7.00439e-15 1.10997e-13 8.69554e-14 4.76503e-14 0 0 3.17975e-15 1.0084e-13 3.1178e-14 4.62335e-14 0 0 -1.37758e-14 1.04284e-13 1.48752e-14 -1.84896e-14 0 0 -2.43269e-15 8.36981e-14 3.07412e-14 -1.7852e-14 0 0 7.04999e-16 3.58294e-14 3.57177e-14 5.69266e-14 0 0 -7.05276e-15 2.14808e-14 6.05734e-14 3.14311e-14 0 0 -2.53658e-14 6.43355e-14 6.32124e-14 1.31672e-14 0 0 -3.4503e-14 9.86982e-14 3.7558e-14 3.75869e-15 0 0 -1.13398e-14 7.18836e-14 7.87864e-14 2.16275e-14 0 0 1.45867e-14 6.36426e-14 1.03529e-13 2.9461e-14 0 0 3.11936e-14 8.33427e-14 1.06709e-13 -1.45686e-14 0 0 4.1031e-14 1.0659e-13 1.55496e-13 -4.14986e-14 0 0 5.35984e-14 1.42264e-13 1.69696e-13 -8.01931e-14 0 0 7.72005e-14 1.81209e-13 1.49683e-13 -5.92552e-14 0 0 1.0157e-13 2.29004e-13 1.73961e-13 9.35142e-15 0 0 9.78108e-14 2.62356e-13 1.9053e-13 4.5647e-14 0 0 1.42393e-13 2.43722e-13 2.25818e-13 7.13361e-14 0 0 1.54434e-13 2.81772e-13 2.23017e-13 7.45382e-14 0 0 1.42957e-13 2.87834e-13 2.51529e-13 1.03444e-13 0 0 1.95646e-13 2.6697e-13 3.49243e-13 1.03237e-13 0 0 2.17946e-13 3.51265e-13 3.1712e-13 7.12641e-14 0 0 2.23385e-13 3.54813e-13 3.34669e-13 1.39905e-13 0 0 2.27022e-13 3.89298e-13 3.8686e-13 1.97828e-13 0 0 2.51744e-13 4.15663e-13 4.04162e-13 1.79992e-13 0 0 2.43978e-13 4.59229e-13 3.78207e-13 1.66599e-13 0 0 2.67271e-13 4.78404e-13 3.21789e-13 2.12897e-13 0 0 2.80916e-13 4.42881e-13 3.98335e-13 2.6467e-13 0 0 2.9133e-13 4.629e-13 3.97266e-13 2.54572e-13 0 0 2.9425e-13 5.0568e-13 3.75798e-13 1.83096e-13 0 0 3.2385e-13 4.85043e-13 4.38702e-13 2.45567e-13 0 0 3.39201e-13 4.17452e-13 5.60108e-13 1.82818e-13 0 0 2.49156e-13 5.26857e-13 5.74356e-13 5.42213e-14 0 0 2.31983e-13 5.5734e-13 5.07346e-13 9.04694e-14 0 0 2.91045e-13 3.90936e-13 5.93464e-13 1.58526e-13 0 0 2.76219e-13 3.38386e-13 5.86598e-13 2.23578e-13 0 0 2.09553e-13 4.0937e-13 3.66594e-13 2.69457e-13 0 0 2.08368e-13 3.08479e-13 2.51553e-13 3.17054e-13 0 0 2.14009e-13 2.17405e-13 2.71873e-13 3.47631e-13 0 0 1.58412e-13 1.86029e-13 2.40405e-13 1.69101e-13 0 0 1.09203e-13 1.30952e-13 1.85345e-13 9.62348e-14 0 0 6.43493e-14 1.28136e-13 1.1754e-13 1.60147e-13 0 0 7.37853e-15 7.23748e-14 2.89961e-14 1.18563e-13 0 0 -1.3367e-15 -1.95973e-15 -3.04015e-14 3.78952e-14 0 0 -8.29878e-15 -6.34089e-14 -4.02934e-15 -5.99864e-14 0 0 -4.63651e-14 -6.47105e-14 -5.4504e-14 -3.28124e-14 0 0 -4.53213e-14 -8.50125e-14 -8.11367e-14 4.11911e-14 0 0 -4.69094e-14 -9.65162e-14 -3.6568e-14 -3.91441e-14 0 0 -6.75254e-14 -7.93577e-14 -4.38794e-14 -4.08302e-14 0 0 -6.36906e-14 -8.91096e-14 -4.08433e-14 -3.3272e-14 0 0 -5.26389e-14 -1.07397e-13 -1.65124e-14 -5.68708e-14 0 0 -6.05878e-14 -8.72577e-14 -5.80107e-14 -2.66416e-14 0 0 -5.59592e-14 -7.81289e-14 -1.04532e-13 5.96573e-15 0 0 -4.13374e-14 -9.36919e-14 -9.30693e-14 1.95817e-15 0 0 -5.11905e-14 -8.1197e-14 -7.44866e-14 1.27784e-14 0 0 -4.81396e-14 -9.22659e-14 -8.06796e-14 4.41393e-15 0 0 -5.59957e-14 -9.04799e-14 -9.86345e-14 1.69436e-14 0 0 -7.04744e-14 -6.23959e-14 -8.77007e-14 -6.20703e-15 0 0 -6.58406e-14 -6.39413e-14 -8.5744e-14 -3.31441e-14 0 0 -5.76267e-14 -7.5979e-14 -7.06531e-14 -4.80385e-14 0 0 -5.49912e-14 -7.11383e-14 -6.34102e-14 -4.76903e-14 0 0 -5.86358e-14 -3.35123e-14 -7.82603e-14 -4.99647e-14 0 0 -4.84586e-14 -9.76778e-15 -9.17338e-14 -2.9985e-14 0 0 -1.85492e-14 -5.64364e-14 -5.74603e-14 -1.2058e-14 0 0 -3.60832e-14 -3.09239e-14 -6.81624e-14 1.79377e-14 0 0 -4.56064e-14 4.39168e-15 -1.14269e-13 4.90541e-14 0 0 -3.84294e-14 2.17952e-14 -1.21118e-13 1.84349e-14 0 0 -2.91647e-14 1.71533e-14 -7.15482e-14 2.42337e-15 0 0 4.30749e-15 -4.6127e-14 8.99405e-16 -9.03198e-15 0 0 7.85801e-15 -2.62804e-14 -2.61836e-14 1.04817e-14 0 0 2.63853e-16 -1.71937e-14 -4.99442e-14 8.69081e-14 0 0 -4.63608e-14 -1.43267e-14 -8.94539e-14 1.17479e-13 0 0 -6.00882e-14 -4.88753e-14 -9.32895e-14 8.79608e-14 0 0 -3.62401e-14 -1.03082e-13 -6.49781e-14 1.00143e-13 0
				</DataArray>
				<DataArray Name="VitesseY" type="Float32" format="ascii">