<?xml version="1.0"?>
<VTKFile type="PolyData">
	<PolyData>
		<Piece NumberOfPoints="1206" NumberOfPolys="1000">
			<Points>
				<DataArray type="Float32" NumberOfComponents="3" format="ascii">
 0 0 0 0.02 0 0 0.04 0 0 0.06 0 0 0.08 0 0 0.1 0 0 0 0.005 0 0.02 0.005 0 0.04 0.005 0 0.06 0.005 0 0.08 0.005 0 0.1 0.005 0 0 0.01 0 0.02 0.01 0 0.04 0.01 0 0.06 0.01 0 0.08 0.01 0 0.1 0.01 0 0 0.015 0 0.02 0.015 0 0.04 0.015 0 0.06 0.015 0 0.08 0.015 0 0.1 0.015 0 0 0.02 0 0.02 0.02 0 0.04 0.02 0 0.06 0.02 0 0.08 0.02 0 0.1 0.02 0 0 0.025 0 0.02 0.025 0 0.04 0.025 0 0.06 0.025 0 0.08 0.025 0 0.1 0.025 0 0 0.03 0 0.02 0.03 0 0.04 0.03 0 0.06 0.03 0 0.08 0.03 0 0.1 0.03 0 0 0.035 0 0.02 0.035 0 0.04 0.035 0 0.06 0.035 0 0.08 0.035 0 0.1 0.035 0 0 0.04 0 0.02 0.04 0 0.04 0.04 0 0.06 0.04 0 0.08 0.04 0 0.1 0.04 0 0 0.045 0 0.02 0.045 0 0.04 0.045 0 0.06 0.045 0 0.08 0.045 0 0.1 0.045 0 0 0.05 0 0.02 0.05 0 0.04 0.05 0 0.06 0.05 0 0.08 0.05 0 0.1 0.05 0 0 0.055 0 0.02 0.055 0 0.04 0.055 0 0.06 0.055 0 0.08 0.055 0 0.1 0.055 0 0 0.06 0 0.02 0.06 0 0.04 0.06 0 0.06 0.06 0 0.08 0.06 0 0.1 0.06 0 0 0.065 0 0.02 0.065 0 0.04 0.065 0 0.06 0.065 0 0.08 0.065 0 0.1 0.065 0 0 0.07 0 0.02 0.07 0 0.04 0.07 0 0.06 0.07 0 0.08 0.07 0 0.1 0.07 0 0 0.075 0 0.02 0.075 0 0.04 0.075 0 0.06 0.075 0 0.08 0.075 0 0.1 0.075 0 0 0.08 0 0.02 0.08 0 0.04 0.08 0 0.06 0.08 0 0.08 0.08 0 0.1 0.08 0 0 0.085 0 0.02 0.085 0 0.04 0.085 0 0.06 0.085 0 0.08 0.085 0 0.1 0.085 0 0 0.09 0 0.02 0.09 0 0.04 0.09 0 0.06 0.09 0 0.08 0.09 0 0.1 0.09 0 0 0.095 0 0.02 0.095 0 0.04 0.095 0 0.06 0.095 0 0.08 0.095 0 0.1 0.095 0 0 0.1 0 0.02 0.1 0 0.04 0.1 0 0.06 0.1 0 0.08 0.1 0 0.1 0.1 0 0 0.105 0 0.02 0.105 0 0.04 0.105 0 0.06 0.105 0 0.08 0.105 0 0.1 0.105 0 0 0.11 0 0.02 0.11 0 0.04 0.11 0 0.06 0.11 0 0.08 0.11 0 0.1 0.11 0 0 0.115 0 0.02 0.115 0 0.04 0.115 0 0.06 0.115 0 0.08 0.115 0 0.1 0.115 0 0 0.12 0 0.02 0.12 0 0.04 0.12 0 0.06 0.12 0 0.08 0.12 0 0.1 0.12 0 0 0.125 0 0.02 0.125 0 0.04 0.125 0 0.06 0.125 0 0.08 0.125 0 0.1 0.125 0 0 0.13 0 0.02 0.13 0 0.04 0.13 0 0.06 0.13 0 0.08 0.13 0 0.1 0.13 0 0 0.135 0 0.02 0.135 0 0.04 0.135 0 0.06 0.135 0 0.08 0.135 0 0.1 0.135 0 0 0.14 0 0.02 0.14 0 0.04 0.14 0 0.06 0.14 0 0.08 0.14 0 0.1 0.14 0 0 0.145 0 0.02 0.145 0 0.04 0.145 0 0.06 0.145 0 0.08 0.145 0 0.1 0.145 0 0 0.15 0 0.02 0.15 0 0.04 0.15 0 0.06 0.15 0 0.08 0.15 0 0.1 0.15 0 0 0.155 0 0.02 0.155 0 0.04 0.155 0 0.06 0.155 0 0.08 0.155 0 0.1 0.155 0 0 0.16 0 0.02 0.16 0 0.04 0.16 0 0.06 0.16 0 0.08 0.16 0 0.1 0.16 0 0 0.165 0 0.02 0.165 0 0.04 0.165 0 0.06 0.165 0 0.08 0.165 0 0.1 0.165 0 0 0.17 0 0.02 0.17 0 0.04 0.17 0 0.06 0.17 0 0.08 0.17 0 0.1 0.17 0 0 0.175 0 0.02 0.175 0 0.04 0.175 0 0.06 0.175 0 0.08 0.175 0 0.1 0.175 0 0 0.18 0 0.02 0.18 0 0.04 0.18 0 0.06 0.18 0 0.08 0.18 0 0.1 0.18 0 0 0.185 0 0.02 0.185 0 0.04 0.185 0 0.06 0.185 0 0.08 0.185 0 0.1 0.185 0 0 0.19 0 0.02 0.19 0 0.04 0.19 0 0.06 0.19 0 0.08 0.19 0 0.1 0.19 0 0 0.195 0 0.02 0.195 0 0.04 0.195 0 0.06 0.195 0 0.08 0.195 0 0.1 0.195 0 0 0.2 0 0.02 0.2 0 0.04 0.2 0 0.06 0.2 0 0.08 0.2 0 0.1 0.2 0 0 0.205 0 0.02 0.205 0 0.04 0.205 0 0.06 0.205 0 0.08 0.205 0 0.1 0.205 0 0 0.21 0 0.02 0.21 0 0.04 0.21 0 0.06 0.21 0 0.08 0.21 0 0.1 0.21 0 0 0.215 0 0.02 0.215 0 0.04 0.215 0 0.06 0.215 0 0.08 0.215 0 0.1 0.215 0 0 0.22 0 0.02 0.22 0 0.04 0.22 0 0.06 0.22 0 0.08 0.22 0 0.1 0.22 0 0 0.225 0 0.02 0.225 0 0.04 0.225 0 0.06 0.225 0 0.08 0.225 0 0.1 0.225 0 0 0.23 0 0.02 0.23 0 0.04 0.23 0 0.06 0.23 0 0.08 0.23 0 0.1 0.23 0 0 0.235 0 0.02 0.235 0 0.04 0.235 0 0.06 0.235 0 0.08 0.235 0 0.1 0.235 0 0 0.24 0 0.02 0.24 0 0.04 0.24 0 0.06 0.24 0 0.08 0.24 0 0.1 0.24 0 0 0.245 0 0.02 0.245 0 0.04 0.245 0 0.06 0.245 0 0.08 0.245 0 0.1 0.245 0 0 0.25 0 0.02 0.25 0 0.04 0.25 0 0.06 0.25 0 0.08 0.25 0 0.1 0.25 0 0 0.255 0 0.02 0.255 0 0.04 0.255 0 0.06 0.255 0 0.08 0.255 0 0.1 0.255 0 0 0.26 0 0.02 0.26 0 0.04 0.26 0 0.06 0.26 0 0.08 0.26 0 0.1 0.26 0 0 0.265 0 0.02 0.265 0 0.04 0.265 0 0.06 0.265 0 0.08 0.265 0 0.1 0.265 0 0 0.27 0 0.02 0.27 0 0.04 0.27 0 0.06 0.27 0 0.08 0.27 0 0.1 0.27 0 0 0.275 0 0.02 0.275 0 0.04 0.275 0 0.06 0.275 0 0.08 0.275 0 0.1 0.275 0 0 0.28 0 0.02 0.28 0 0.04 0.28 0 0.06 0.28 0 0.08 0.28 0 0.1 0.28 0 0 0.285 0 0.02 0.285 0 0.04 0.285 0 0.06 0.285 0 0.08 0.285 0 0.1 0.285 0 0 0.29 0 0.02 0.29 0 0.04 0.29 0 0.06 0.29 0 0.08 0.29 0 0.1 0.29 0 0 0.295 0 0.02 0.295 0 0.04 0.295 0 0.06 0.295 0 0.08 0.295 0 0.1 0.295 0 0 0.3 0 0.02 0.3 0 0.04 0.3 0 0.06 0.3 0 0.08 0.3 0 0.1 0.3 0 0 0.305 0 0.02 0.305 0 0.04 0.305 0 0.06 0.305 0 0.08 0.305 0 0.1 0.305 0 0 0.31 0 0.02 0.31 0 0.04 0.31 0 0.06 0.31 0 0.08 0.31 0 0.1 0.31 0 0 0.315 0 0.02 0.315 0 0.04 0.315 0 0.06 0.315 0 0.08 0.315 0 0.1 0.315 0 0 0.32 0 0.02 0.32 0 0.04 0.32 0 0.06 0.32 0 0.08 0.32 0 0.1 0.32 0 0 0.325 0 0.02 0.325 0 0.04 0.325 0 0.06 0.325 0 0.08 0.325 0 0.1 0.325 0 0 0.33 0 0.02 0.33 0 0.04 0.33 0 0.06 0.33 0 0.08 0.33 0 0.1 0.33 0 0 0.335 0 0.02 0.335 0 0.04 0.335 0 0.06 0.335 0 0.08 0.335 0 0.1 0.335 0 0 0.34 0 0.02 0.34 0 0.04 0.34 0 0.06 0.34 0 0.08 0.34 0 0.1 0.34 0 0 0.345 0 0.02 0.345 0 0.04 0.345 0 0.06 0.345 0 0.08 0.345 0 0.1 0.345 0 0 0.35 0 0.02 0.35 0 0.04 0.35 0 0.06 0.35 0 0.08 0.35 0 0.1 0.35 0 0 0.355 0 0.02 0.355 0 0.04 0.355 0 0.06 0.355 0 0.08 0.355 0 0.1 0.355 0 0 0.36 0 0.02 0.36 0 0.04 0.36 0 0.06 0.36 0 0.08 0.36 0 0.1 0.36 0 0 0.365 0 0.02 0.365 0 0.04 0.365 0 0.06 0.365 0 0.08 0.365 0 0.1 0.365 0 0 0.37 0 0.02 0.37 0 0.04 0.37 0 0.06 0.37 0 0.08 0.37 0 0.1 0.37 0 0 0.375 0 0.02 0.375 0 0.04 0.375 0 0.06 0.375 0 0.08 0.375 0 0.1 0.375 0 0 0.38 0 0.02 0.38 0 0.04 0.38 0 0.06 0.38 0 0.08 0.38 0 0.1 0.38 0 0 0.385 0 0.02 0.385 0 0.04 0.385 0 0.06 0.385 0 0.08 0.385 0 0.1 0.385 0 0 0.39 0 0.02 0.39 0 0.04 0.39 0 0.06 0.39 0 0.08 0.39 0 0.1 0.39 0 0 0.395 0 0.02 0.395 0 0.04 0.395 0 0.06 0.395 0 0.08 0.395 0 0.1 0.395 0 0 0.4 0 0.02 0.4 0 0.04 0.4 0 0.06 0.4 0 0.08 0.4 0 0.1 0.4 0 0 0.405 0 0.02 0.405 0 0.04 0.405 0 0.06 0.405 0 0.08 0.405 0 0.1 0.405 0 0 0.41 0 0.02 0.41 0 0.04 0.41 0 0.06 0.41 0 0.08 0.41 0 0.1 0.41 0 0 0.415 0 0.02 0.415 0 0.04 0.415 0 0.06 0.415 0 0.08 0.415 0 0.1 0.415 0 0 0.420001 0 0.02 0.420001 0 0.04 0.420001 0 0.06 0.420001 0 0.08 0.420001 0 0.1 0.420001 0 0 0.425005 0 0.02 0.425005 0 0.04 0.425005 0 0.06 0.425005 0 0.08 0.425005 0 0.1 0.425005 0 0 0.430024 0 0.02 0.430024 0 0.04 0.430024 0 0.06 0.430024 0 0.08 0.430024 0 0.1 0.430024 0 0 0.435087 0 0.02 0.435087 0 0.04 0.435087 0 0.06 0.435087 0 0.08 0.435087 0 0.1 0.435087 0 0 0.440258 0 0.02 0.440258 0 0.04 0.440258 0 0.06 0.440258 0 0.08 0.440258 0 0.1 0.440258 0 0 0.445634 0 0.02 0.445634 0 0.04 0.445634 0 0.06 0.445634 0 0.08 0.445634 0 0.1 0.445634 0 0 0.451321 0 0.02 0.451321 0 0.04 0.451321 0 0.06 0.451321 0 0.08 0.451321 0 0.1 0.451321 0 0 0.457426 0 0.02 0.457426 0 0.04 0.457426 0 0.06 0.457426 0 0.08 0.457426 0 0.1 0.457426 0 0 0.464059 0 0.02 0.464059 0 0.04 0.464059 0 0.06 0.464059 0 0.08 0.464059 0 0.1 0.464059 0 0 0.471348 0 0.02 0.471348 0 0.04 0.471348 0 0.06 0.471348 0 0.08 0.471348 0 0.1 0.471348 0 0 0.47946 0 0.02 0.47946 0 0.04 0.47946 0 0.06 0.47946 0 0.08 0.47946 0 0.1 0.47946 0 0 0.488613 0 0.02 0.488613 0 0.04 0.488613 0 0.06 0.488613 0 0.08 0.488613 0 0.1 0.488613 0 0 0.499072 0 0.02 0.499072 0 0.04 0.499072 0 0.06 0.499072 0 0.08 0.499072 0 0.1 0.499072 0 0 0.510966 0 0.02 0.510966 0 0.04 0.510966 0 0.06 0.510966 0 0.08 0.510966 0 0.1 0.510966 0 0 0.523449 0 0.02 0.523449 0 0.04 0.523449 0 0.06 0.523449 0 0.08 0.523449 0 0.1 0.523449 0 0 0.535542 0 0.02 0.535542 0 0.04 0.535542 0 0.06 0.535542 0 0.08 0.535542 0 0.1 0.535542 0 0 0.54743 0 0.02 0.54743 0 0.04 0.54743 0 0.06 0.54743 0 0.08 0.54743 0 0.1 0.54743 0 0 0.550058 0 0.02 0.550058 0 0.04 0.550058 0 0.06 0.550058 0 0.08 0.550058 0 0.1 0.550058 0 0 0.552611 0 0.02 0.552611 0 0.04 0.552611 0 0.06 0.552611 0 0.08 0.552611 0 0.1 0.552611 0 0 0.555117 0 0.02 0.555117 0 0.04 0.555117 0 0.06 0.555117 0 0.08 0.555117 0 0.1 0.555117 0 0 0.557593 0 0.02 0.557593 0 0.04 0.557593 0 0.06 0.557593 0 0.08 0.557593 0 0.1 0.557593 0 0 0.560047 0 0.02 0.560047 0 0.04 0.560047 0 0.06 0.560047 0 0.08 0.560047 0 0.1 0.560047 0 0 0.562486 0 0.02 0.562486 0 0.04 0.562486 0 0.06 0.562486 0 0.08 0.562486 0 0.1 0.562486 0 0 0.564915 0 0.02 0.564915 0 0.04 0.564915 0 0.06 0.564915 0 0.08 0.564915 0 0.1 0.564915 0 0 0.567336 0 0.02 0.567336 0 0.04 0.567336 0 0.06 0.567336 0 0.08 0.567336 0 0.1 0.567336 0 0 0.569759 0 0.02 0.569759 0 0.04 0.569759 0 0.06 0.569759 0 0.08 0.569759 0 0.1 0.569759 0 0 0.572174 0 0.02 0.572174 0 0.04 0.572174 0 0.06 0.572174 0 0.08 0.572174 0 0.1 0.572174 0 0 0.574588 0 0.02 0.574588 0 0.04 0.574588 0 0.06 0.574588 0 0.08 0.574588 0 0.1 0.574588 0 0 0.577002 0 0.02 0.577002 0 0.04 0.577002 0 0.06 0.577002 0 0.08 0.577002 0 0.1 0.577002 0 0 0.579453 0 0.02 0.579453 0 0.04 0.579453 0 0.06 0.579453 0 0.08 0.579453 0 0.1 0.579453 0 0 0.581978 0 0.02 0.581978 0 0.04 0.581978 0 0.06 0.581978 0 0.08 0.581978 0 0.1 0.581978 0 0 0.584624 0 0.02 0.584624 0 0.04 0.584624 0 0.06 0.584624 0 0.08 0.584624 0 0.1 0.584624 0 0 0.587417 0 0.02 0.587417 0 0.04 0.587417 0 0.06 0.587417 0 0.08 0.587417 0 0.1 0.587417 0 0 0.590426 0 0.02 0.590426 0 0.04 0.590426 0 0.06 0.590426 0 0.08 0.590426 0 0.1 0.590426 0 0 0.593701 0 0.02 0.593701 0 0.04 0.593701 0 0.06 0.593701 0 0.08 0.593701 0 0.1 0.593701 0 0 0.597318 0 0.02 0.597318 0 0.04 0.597318 0 0.06 0.597318 0 0.08 0.597318 0 0.1 0.597318 0 0 0.6013 0 0.02 0.6013 0 0.04 0.6013 0 0.06 0.6013 0 0.08 0.6013 0 0.1 0.6013 0 0 0.605637 0 0.02 0.605637 0 0.04 0.605637 0 0.06 0.605637 0 0.08 0.605637 0 0.1 0.605637 0 0 0.610269 0 0.02 0.610269 0 0.04 0.610269 0 0.06 0.610269 0 0.08 0.610269 0 0.1 0.610269 0 0 0.615099 0 0.02 0.615099 0 0.04 0.615099 0 0.06 0.615099 0 0.08 0.615099 0 0.1 0.615099 0 0 0.620033 0 0.02 0.620033 0 0.04 0.620033 0 0.06 0.620033 0 0.08 0.620033 0 0.1 0.620033 0 0 0.62501 0 0.02 0.62501 0 0.04 0.62501 0 0.06 0.62501 0 0.08 0.62501 0 0.1 0.62501 0 0 0.630003 0 0.02 0.630003 0 0.04 0.630003 0 0.06
[...]
			<PointData Scalars="VitesseX">
				<DataArray Name="VitesseX" type="Float32" format="ascii">
 0 -5.60018e-16 -1.05547e-15 1.81855e-15 3.13487e-16 0 0 -3.62157e-16 -1.23365e-15 1.94097e-15 -3.54747e-17 0 0 -1.67605e-16 -1.22994e-15 1.77644e-15 -4.86803e-16 0 0 -6.67404e-16 -3.19221e-16 1.49316e-15 -1.25143e-15 0 0 6.29524e-18 -1.53137e-15 2.35152e-15 -1.00264e-15 0 0 5.31183e-16 -2.28213e-15 2.33428e-15 -2.59237e-16 0 0 -2.52806e-16 -4.98364e-16 9.43128e-16 -5.02625e-16 0 0 -9.24121e-16 7.03731e-16 -7.44938e-16 1.14445e-15 0 0 8.5777e-16 -9.25927e-16 -9.57316e-16 1.83763e-15 0 0 2.04624e-15 -2.07026e-15 7.91733e-16 8.45763e-16 0 0 1.55234e-15 -2.06868e-15 2.42538e-15 2.16433e-16 0 0 -5.011e-16 -5.81765e-16 2.45007e-15 -9.96291e-16 0 0 -3.00695e-15 3.39892e-15 -5.02393e-16 -1.05636e-15 0 0 9.7051e-16 6.26129e-16 -1.07629e-15 -8.02132e-16 0 0 1.02376e-15 9.28482e-16 -1.02368e-15 2.92908e-15 0 0 -6.91748e-16 -6.42373e-18 9.3661e-16 8.07777e-15 0 0 2.19946e-15 -5.17294e-15 5.68387e-15 8.21543e-15 0 0 -6.10321e-16 9.49073e-16 4.78002e-15 6.51057e-15 0 0 -3.37541e-16 1.21997e-15 5.16475e-15 4.04588e-15 0 0 1.32998e-15 -2.465e-16 6.1304e-15 1.86013e-15 0 0 -1.28147e-15 2.41749e-15 2.87463e-15 2.92779e-15 0 0 -1.93059e-15 2.17582e-15 -3.92472e-16 3.56785e-15 0 0 1.85407e-15 -5.58189e-16 -8.37167e-16 2.9135e-15 0 0 5.24972e-15 2.9235e-16 -6.096e-15 8.84286e-15 0 0 1.78486e-15 6.12974e-15 -1.25043e-14 1.51264e-14 0 0 -3.35324e-15 7.15165e-15 -7.00248e-15 9.56596e-15 0 0 -3.44008e-15 8.22263e-15 2.24088e-15 -3.3389e-15 0 0 6.95531e-16 8.18961e-15 4.8273e-15 -6.69949e-15 0 0 2.41139e-15 5.62488e-15 3.59508e-15 -3.6468e-16 0 0 -1.69727e-15 7.40878e-15 -1.20506e-16 8.92386e-15 0 0 4.33384e-16 2.48843e-15 -3.78536e-16 1.21729e-14 0 0 1.00565e-15 8.01108e-16 -5.8692e-16 9.20915e-15 0 0 -2.37421e-15 4.82604e-15 -1.21623e-15 4.451e-15 0 0 6.91936e-15 -7.58408e-15 6.91374e-15 1.22653e-15 0 0 1.05897e-15 -6.0777e-16 1.90004e-15 3.67489e-15 0 0 -3.794e-15 7.23276e-15 -1.95378e-15 4.3419e-15 0 0 4.79155e-16 1.80699e-16 4.63671e-15 -2.15491e-15 0 0 2.41404e-16 -1.2495e-15 5.97061e-15 -1.11295e-14 0 0 -6.88716e-16 4.67723e-16 3.86591e-15 -1.05312e-14 0 0 -1.60402e-15 1.78702e-15 2.20418e-15 -6.04189e-15 0 0 3.74871e-16 9.49913e-16 4.04073e-16 -2.17819e-15 0 0 3.89669e-15 -1.20291e-15 -2.7454e-15 4.51771e-15 0 0 8.21444e-15 -8.58138e-15 -1.44146e-15 9.94196e-15 0 0 2.06669e-15 2.97151e-16 -5.24899e-15 1.01086e-14 0 0 -8.0331e-15 1.21385e-14 -4.85858e-15 2.49411e-15 0 0 -6.02867e-15 4.81283e-15 6.82668e-15 -6.38081e-15 0 0 -6.26907e-16 -2.89263e-15 1.01215e-14 -4.53311e-15 0 0 2.15622e-15 -2.93418e-15 5.27907e-15 -3.0443e-15 0 0 3.50791e-15 -3.46033e-16 -5.57195e-16 3.22577e-15 0 0 -3.97927e-16 3.69692e-15 -2.10326e-15 3.31073e-15 0 0 -3.28182e-15 7.3441e-15 -1.85496e-15 -5.78337e-15 0 0 -2.82174e-15 1.16096e-14 -8.44922e-15 1.77111e-15 0 0 7.96841e-15 1.05962e-14 -1.30586e-14 6.36944e-15 0 0 -3.22839e-17 1.49911e-14 -6.73074e-15 4.41675e-15 0 0 -1.0578e-14 1.30876e-14 7.96053e-15 -3.49508e-15 0 0 -5.08327e-15 4.11553e-15 6.84295e-15 -4.55518e-15 0 0 -9.99283e-16 2.63238e-15 -3.40543e-15 4.15551e-15 0 0 3.89299e-15 3.26925e-15 -2.26532e-15 -1.29874e-16 0 0 6.19385e-15 6.33379e-15 -5.43e-15 1.10648e-15 0 0 9.39392e-15 -5.53522e-15 4.64339e-15 -3.48786e-15 0 0 2.72334e-15 -2.7507e-16 4.83543e-15 -6.73089e-15 0 0 1.11531e-14 3.70138e-15 -4.53274e-15 -8.3245e-16 0 0 1.7326e-14 -2.53175e-15 2.57227e-15 -7.2299e-15 0 0 1.1614e-15 1.00047e-14 -1.64643e-15 1.74991e-16 0 0 2.70414e-15 8.66509e-15 -3.05503e-15 3.74271e-15 0 0 5.24359e-15 3.98578e-15 5.48062e-15 -1.05565e-14 0 0 1.1708e-15 6.1194e-15 5.0188e-15 -7.59669e-15 0 0 -1.96139e-16 6.15516e-15 -4.19024e-15 -8.08563e-17 0 0 7.18597e-15 -4.60947e-15 -6.64308e-15 2.49915e-15 0 0 -1.42413e-15 3.29503e-15 -9.36794e-15 1.59538e-15 0 0 -8.55288e-15 1.29095e-14 -1.63415e-14 3.50795e-15 0 0 9.69673e-15 7.0974e-16 -6.38666e-16 -7.11092e-15 0 0 1.29547e-16 1.73327e-14 6.11568e-15 -1.11238e-14 0 0 8.91908e-15 1.00915e-14 1.1442e-14 -6.05507e-15 0 0 2.73387e-14 6.97865e-15 8.43175e-15 1.04703e-14 0 0 1.05845e-14 2.19753e-14 1.10374e-14 1.99814e-14 0 0 1.572e-14 -3.757e-15 3.54935e-14 2.78827e-16 0 0 1.87294e-14 -3.30361e-15 2.83819e-14 1.02958e-15 0 0 2.01726e-14 1.31033e-14 1.85975e-15 1.2071e-14 0 0 2.57808e-15 1.60178e-14 -1.40466e-14 6.66553e-15 0 0 2.42298e-15 1.01769e-14 -2.1548e-14 2.08168e-14 0 0 3.50629e-15 1.22355e-14 -1.9758e-14 4.17196e-14 0 0 -6.3207e-15 6.73955e-15 -2.55041e-14 4.42032e-14 0 0 -5.09517e-15 -2.39764e-15 -1.00315e-14 1.232e-14 0 0 -6.1478e-15 -1.15439e-14 3.155e-14 -3.1662e-14 0 0 3.06748e-15 -9.15556e-15 2.66337e-14 -2.20402e-15 0 0 -6.95705e-16 7.1746e-15 5.12289e-15 1.8792e-14 0 0 8.25858e-15 3.26923e-15 1.04462e-14 -8.03007e-16 0 0 -3.5578e-16 2.01097e-14 -2.65486e-16 -5.4764e-15 0 0 1.35648e-14 4.84466e-16 4.02497e-15 -1.17745e-14 0 0 1.87136e-15 -5.47748e-16 3.95382e-15 4.77858e-15 0 0 -1.8837e-14 1.77987e-14 -9.10345e-15 1.445e-14 0 0 1.76564e-14 -1.5127e-14 -5.19001e-15 1.40106e-14 0 0 8.44479e-15 -5.24986e-15 -1.48159e-14 4.6057e-15 0 0 -1.05635e-14 3.15764e-15 -5.7187e-15 -6.45399e-16 0 0 9.38714e-15 6.44981e-16 3.27356e-15 2.64004e-15 0 0 1.83938e-14 1.13756e-14 7.04094e-15 1.18373e-14 0 0 6.20425e-14 1.0127e-13 9.35903e-14 7.1866e-14 0 0 2.95536e-13 4.78385e-13 4.67135e-13 2.97946e-13 0 0 5.82306e-13 9.2866e-13 9.36183e-13 5.67093e-13 0 0 6.3234e-13 9.85169e-13 9.95393e-13 6.0357e-13 0 0 4.4129e-14 2.92786e-14 2.16604e-14 1.36172e-14 0 0 -1.71663e-13 -2.58597e-13 -2.99042e-13 -1.87189e-13 0 0 -3.48786e-13 -5.5792e-13 -5.90741e-13 -3.58007e-13 0 0 -4.9526e-13 -7.91659e-13 -8.57421e-13 -4.62384e-13 0 0 -6.47385e-13 -1.0024e-12 -1.10301e-12 -5.72302e-13 0 0 -7.29545e-13 -1.13602e-12 -1.26954e-12 -6.18984e-13 0 0 -6.68392e-13 -1.03854e-12 -1.19496e-12 -5.11821e-13 0 0 -3.73583e-13 -6.14628e-13 -7.04001e-13 -2.56372e-13 0 0 1.00434e-13 8.77111e-14 1.01315e-13 1.66506e-13 0 0 5.70318e-13 8.61983e-13 9.31796e-13 5.78717e-13 0 0 8.90568e-13 1.40771e-12 1.45865e-12 8.35812e-13 0 0 1.01087e-12 1.65504e-12 1.68654e-12 1.01503e-12 0 0 1.05132e-12 1.80208e-12 1.79252e-12 1.15994e-12 0 0 1.09804e-12 1.8945e-12 1.82806e-12 1.2014e-12 0 0 1.13671e-12 1.8865e-12 1.86005e-12 1.14239e-12 0 0 1.15422e-12 1.82307e-12 1.89964e-12 1.14625e-12 0 0 1.16657e-12 1.85202e-12 1.89694e-12 1.13093e-12 0 0 1.08051e-12 1.78158e-12 1.76263e-12 1.14704e-12 0 0 9.57478e-13 1.52414e-12 1.5672e-12 9.93839e-13 0 0 7.46636e-13 1.19466e-12 1.21931e-12 7.33245e-13 0 0 4.78252e-13 8.00773e-13 8.09469e-13 5.13046e-13 0 0 2.63883e-13 4.21968e-13 4.43046e-13 2.48132e-13 0 0 1.05914e-13 1.86554e-13 1.72641e-13 1.06871e-13 0 0 3.12926e-14 6.49663e-14 6.06687e-14 5.0006e-14 0 0 1.26174e-14 6.46835e-15 1.26004e-14 4.13758e-14 0 0 6.77446e-15 3.8189e-15 -2.62488e-15 3.56225e-14 0 0 3.09236e-15 3.80512e-15 1.36492e-14 1.75325e-14 0 0 4.83298e-15 -1.61371e-14 2.26453e-14 1.67084e-14 0 0 1.07096e-14 -2.20267e-14 3.65159e-14 -1.44101e-14 0 0 1.66064e-14 -1.27711e-14 3.27686e-14 -2.78691e-14 0 0 1.02713e-14 5.03668e-15 4.00782e-15 -4.90932e-15 0 0 -2.07717e-15 2.29745e-14 -6.6993e-15 1.53261e-14 0 0 2.24733e-15 2.48368e-14 -8.31607e-15 2.35243e-14 0 0 1.70741e-14 3.19962e-16 1.48854e-14 8.38987e-16 0 0 1.27286e-14 -4.46794e-15 5.75088e-14 -3.53232e-14 0 0 -3.05171e-15 3.13168e-14 3.9351e-14 -2.75189e-14 0 0 -5.91497e-15 4.09659e-14 2.07208e-14 -9.95119e-15 0 0 -4.75749e-15 2.21966e-14 6.48761e-14 -1.4187e-14 0 0 1.08255e-16 2.11169e-14 7.07732e-14 -4.67794e-16 0 0 -6.19918e-15 3.42387e-14 4.52134e-14 5.73387e-14 0 0 1.7632e-16 1.13295e-14 2.86534e-14 1.2564e-13 0 0 -1.44707e-15 2.93355e-15 3.53561e-14 8.07237e-14 0 0 -1.03948e-14 3.87678e-14 2.71134e-14 2.20591e-14 0 0 2.36968e-14 2.30243e-14 -6.79381e-15 4.43078e-14 0 0 3.41675e-14 2.1307e-14 -3.54219e-14 6.13023e-14 0 0 1.15631e-14 3.51513e-14 -3.66578e-14 6.38901e-14 0 0 1.76534e-14 4.10861e-15 2.40072e-14 2.19852e-14 0 0 1.43084e-15 3.57861e-14 3.22147e-14 1.21306e-14 0 0 2.72033e-15 5.82499e-14 1.60675e-14 7.44922e-15 0 0 1.5763e-14 4.78193e-14 1.56975e-14 -1.0491e-14 0 0 2.36231e-14 3.44479e-14 -4.69392e-15 2.50598e-14 0 0 3.94583e-14 2.2971e-14 -4.17069e-14 6.92021e-14 0 0 1.69385e-14 3.85482e-14 -4.21746e-14 4.46291e-14 0 0 4.08226e-14 2.73692e-15 -1.64433e-14 1.28755e-14 0 0 3.70473e-14 3.51765e-15 -1.24703e-14 1.02009e-14 0 0 -1.08824e-14 7.14658e-14 -1.27102e-14 -2.02836e-15 0 0 1.17006e-14 6.13275e-14 7.24917e-15 -8.93665e-16 0 0 3.11105e-14 3.90941e-14 -7.81458e-15 2.43286e-15 0 0 8.33911e-15 4.40527e-14 -4.1463e-14 4.8058e-14 0 0 2.63482e-14 -1.4413e-14 8.71004e-15 7.28304e-14 0 0 3.64542e-15 -2.12223e-14 7.14188e-14 1.40468e-14 0 0 -3.10757e-14 4.78241e-14 3.24402e-14 -2.21565e-14 0 0 5.30936e-15 2.26109e-14 6.08793e-15 2.76193e-16 0 0 1.79374e-14 8.94398e-15 6.16404e-15 2.9144e-14 0 0 1.22287e-14 6.10744e-14 -7.49547e-15 2.27261e-14 0 0 2.65148e-14 6.63598e-14 5.18627e-15 1.22709e-14 0 0 3.91494e-14 9.28959e-14 -5.0893e-14 4.68607e-14 0 0 4.98143e-14 8.00787e-14 -6.7034e-14 6.93078e-14 0 0 5.56753e-14 3.07044e-14 -2.6282e-14 4.28264e-14 0 0 6.04132e-14 -2.09758e-15 8.0744e-15 8.90561e-15 0 0 5.82256e-14 -7.68989e-15 5.09362e-14 2.18149e-14 0 0 4.71959e-14 4.11726e-14 8.29721e-14 1.58638e-14 0 0 1.51583e-14 8.0517e-14 8.8848e-14 1.3016e-14 0 0 2.95023e-14 5.12259e-14 3.36889e-14 8.41825e-14 0 0 4.79938e-14 1.21756e-14 1.78727e-15 9.59747e-14 0 0 1.31265e-15 2.12286e-14 4.34483e-14 4.1595e-14 0 0 6.47157e-15 2.44331e-14 4.31745e-14 -4.90111e-15 0 0 1.29621e-14 1.4668e-14 1.38246e-14 -2.45581e-14 0 0 1.63861e-14 -4.14122e-15 3.92656e-15 3.79884e-14 0 0 8.32968e-15 5.54728e-15 3.48143e-14 5.26802e-14 0 0 1.72875e-14 -1.88332e-14 8.9786e-14 -6.08715e-15 0 0 3.62226e-14 -3.05401e-14 7.38471e-14 9.52834e-16 0 0 1.77627e-14 1.82294e-14 1.40743e-14 1.60683e-14 0 0 1.3825e-14 1.63118e-14 2.61025e-14 -1.80797e-14 0 0 1.39757e-14 -1.00239e-14 5.52399e-14 -2.49896e-14 0 0 2.69335e-15 4.09418e-14 2.92823e-15 -9.55443e-15 0 0 8.07219e-15 4.84139e-14 2.6315e-14 -3.91263e-14 0 0 8.94823e-17 8.0424e-15 9.05311e-14 -6.81052e-14 0 0 1.24927e-14 -2.90551e-15 8.19471e-14 -7.09126e-14 0 0 4.41095e-14 -1.10667e-14 3.76175e-14 -3.58486e-14 0 0 -1.78236e-15 2.53175e-14 7.195e-15 -9.31444e-15 0 0 8.89885e-15 -6.40585e-15 2.08861e-14 -1.03088e-14 0 0 1.15986e-15 -4.06053e-15 -5.42369e-15 1.65567e-14 0 0 -2.27997e-14 2.26101e-14 -1.89543e-14 9.86284e-15 0 0 3.2531e-15 1.21483e-14 -7.59827e-15 -5.81031e-16 0 0 1.37342e-14 -1.82184e-15 2.26627e-14 -1.43763e-14 0 0 2.19543e-14 -6.15762e-15 1.44254e-14 -1.27347e-14 0 0 7.57745e-15 7.98102e-15 -2.08456e-18 -1.12152e-14 0 0 -3.52495e-15 -2.05638e-15 3.12098e-14 -2.13405e-14 0 0 -8.50172e-15 -7.51836e-16 3.07675e-14 -6.38908e-15 0
				</DataArray>
				<DataArray Name="VitesseY" type="Float32" format="ascii">