<?xml version="1.0"?>
<VTKFile type="PolyData">
	<PolyData>
		<Piece NumberOfPoints="1206" NumberOfPolys="1000">
			<Points>
				<DataArray type="Float32" NumberOfComponents="3" format="ascii">
 0 0 0 0.02 0 0 0.04 0 0 0.06 0 0 0.08 0 0 0.1 0 0 0 0.005 0 0.02 0.005 0 0.04 0.005 0 0.06 0.005 0 0.08 0.005 0 0.1 0.005 0 0 0.01 0 0.02 0.01 0 0.04 0.01 0 0.06 0.01 0 0.08 0.01 0 0.1 0.01 0 0 0.015 0 0.02 0.015 0 0.04 0.015 0 0.06 0.015 0 0.08 0.015 0 0.1 0.015 0 0 0.02 0 0.02 0.02 0 0.04 0.02 0 0.06 0.02 0 0.08 0.02 0 0.1 0.02 0 0 0.025 0 0.02 0.025 0 0.04 0.025 0 0.06 0.025 0 0.08 0.025 0 0.1 0.025 0 0 0.03 0 0.02 0.03 0 0.04 0.03 0 0.06 0.03 0 0.08 0.03 0 0.1 0.03 0 0 0.035 0 0.02 0.035 0 0.04 0.035 0 0.06 0.035 0 0.08 0.035 0 0.1 0.035 0 0 0.04 0 0.02 0.04 0 0.04 0.04 0 0.06 0.04 0 0.08 0.04 0 0.1 0.04 0 0 0.045 0 0.02 0.045 0 0.04 0.045 0 0.06 0.045 0 0.08 0.045 0 0.1 0.045 0 0 0.05 0 0.02 0.05 0 0.04 0.05 0 0.06 0.05 0 0.08 0.05 0 0.1 0.05 0 0 0.055 0 0.02 0.055 0 0.04 0.055 0 0.06 0.055 0 0.08 0.055 0 0.1 0.055 0 0 0.06 0 0.02 0.06 0 0.04 0.06 0 0.06 0.06 0 0.08 0.06 0 0.1 0.06 0 0 0.065 0 0.02 0.065 0 0.04 0.065 0 0.06 0.065 0 0.08 0.065 0 0.1 0.065 0 0 0.07 0 0.02 0.07 0 0.04 0.07 0 0.06 0.07 0 0.08 0.07 0 0.1 0.07 0 0 0.075 0 0.02 0.075 0 0.04 0.075 0 0.06 0.075 0 0.08 0.075 0 0.1 0.075 0 0 0.08 0 0.02 0.08 0 0.04 0.08 0 0.06 0.08 0 0.08 0.08 0 0.1 0.08 0 0 0.085 0 0.02 0.085 0 0.04 0.085 0 0.06 0.085 0 0.08 0.085 0 0.1 0.085 0 0 0.09 0 0.02 0.09 0 0.04 0.09 0 0.06 0.09 0 0.08 0.09 0 0.1 0.09 0 0 0.095 0 0.02 0.095 0 0.04 0.095 0 0.06 0.095 0 0.08 0.095 0 0.1 0.095 0 0 0.1 0 0.02 0.1 0 0.04 0.1 0 0.06 0.1 0 0.08 0.1 0 0.1 0.1 0 0 0.105 0 0.02 0.105 0 0.04 0.105 0 0.06 0.105 0 0.08 0.105 0 0.1 0.105 0 0 0.11 0 0.02 0.11 0 0.04 0.11 0 0.06 0.11 0 0.08 0.11 0 0.1 0.11 0 0 0.115 0 0.02 0.115 0 0.04 0.115 0 0.06 0.115 0 0.08 0.115 0 0.1 0.115 0 0 0.12 0 0.02 0.12 0 0.04 0.12 0 0.06 0.12 0 0.08 0.12 0 0.1 0.12 0 0 0.125 0 0.02 0.125 0 0.04 0.125 0 0.06 0.125 0 0.08 0.125 0 0.1 0.125 0 0 0.13 0 0.02 0.13 0 0.04 0.13 0 0.06 0.13 0 0.08 0.13 0 0.1 0.13 0 0 0.135 0 0.02 0.135 0 0.04 0.135 0 0.06 0.135 0 0.08 0.135 0 0.1 0.135 0 0 0.14 0 0.02 0.14 0 0.04 0.14 0 0.06 0.14 0 0.08 0.14 0 0.1 0.14 0 0 0.145 0 0.02 0.145 0 0.04 0.145 0 0.06 0.145 0 0.08 0.145 0 0.1 0.145 0 0 0.15 0 0.02 0.15 0 0.04 0.15 0 0.06 0.15 0 0.08 0.15 0 0.1 0.15 0 0 0.155 0 0.02 0.155 0 0.04 0.155 0 0.06 0.155 0 0.08 0.155 0 0.1 0.155 0 0 0.16 0 0.02 0.16 0 0.04 0.16 0 0.06 0.16 0 0.08 0.16 0 0.1 0.16 0 0 0.165 0 0.02 0.165 0 0.04 0.165 0 0.06 0.165 0 0.08 0.165 0 0.1 0.165 0 0 0.17 0 0.02 0.17 0 0.04 0.17 0 0.06 0.17 0 0.08 0.17 0 0.1 0.17 0 0 0.175 0 0.02 0.175 0 0.04 0.175 0 0.06 0.175 0 0.08 0.175 0 0.1 0.175 0 0 0.18 0 0.02 0.18 0 0.04 0.18 0 0.06 0.18 0 0.08 0.18 0 0.1 0.18 0 0 0.185 0 0.02 0.185 0 0.04 0.185 0 0.06 0.185 0 0.08 0.185 0 0.1 0.185 0 0 0.19 0 0.02 0.19 0 0.04 0.19 0 0.06 0.19 0 0.08 0.19 0 0.1 0.19 0 0 0.195 0 0.02 0.195 0 0.04 0.195 0 0.06 0.195 0 0.08 0.195 0 0.1 0.195 0 0 0.2 0 0.02 0.2 0 0.04 0.2 0 0.06 0.2 0 0.08 0.2 0 0.1 0.2 0 0 0.205 0 0.02 0.205 0 0.04 0.205 0 0.06 0.205 0 0.08 0.205 0 0.1 0.205 0 0 0.21 0 0.02 0.21 0 0.04 0.21 0 0.06 0.21 0 0.08 0.21 0 0.1 0.21 0 0 0.215 0 0.02 0.215 0 0.04 0.215 0 0.06 0.215 0 0.08 0.215 0 0.1 0.215 0 0 0.22 0 0.02 0.22 0 0.04 0.22 0 0.06 0.22 0 0.08 0.22 0 0.1 0.22 0 0 0.225 0 0.02 0.225 0 0.04 0.225 0 0.06 0.225 0 0.08 0.225 0 0.1 0.225 0 0 0.23 0 0.02 0.23 0 0.04 0.23 0 0.06 0.23 0 0.08 0.23 0 0.1 0.23 0 0 0.235 0 0.02 0.235 0 0.04 0.235 0 0.06 0.235 0 0.08 0.235 0 0.1 0.235 0 0 0.240001 0 0.02 0.240001 0 0.04 0.240001 0 0.06 0.240001 0 0.08 0.240001 0 0.1 0.240001 0 0 0.245004 0 0.02 0.245004 0 0.04 0.245004 0 0.06 0.245004 0 0.08 0.245004 0 0.1 0.245004 0 0 0.25001 0 0.02 0.25001 0 0.04 0.25001 0 0.06 0.25001 0 0.08 0.25001 0 0.1 0.25001 0 0 0.255025 0 0.02 0.255025 0 0.04 0.255025 0 0.06 0.255025 0 0.08 0.255025 0 0.1 0.255025 0 0 0.260056 0 0.02 0.260056 0 0.04 0.260056 0 0.06 0.260056 0 0.08 0.260056 0 0.1 0.260056 0 0 0.265115 0 0.02 0.265115 0 0.04 0.265115 0 0.06 0.265115 0 0.08 0.265115 0 0.1 0.265115 0 0 0.270215 0 0.02 0.270215 0 0.04 0.270215 0 0.06 0.270215 0 0.08 0.270215 0 0.1 0.270215 0 0 0.275371 0 0.02 0.275371 0 0.04 0.275371 0 0.06 0.275371 0 0.08 0.275371 0 0.1 0.275371 0 0 0.280598 0 0.02 0.280598 0 0.04 0.280598 0 0.06 0.280598 0 0.08 0.280598 0 0.1 0.280598 0 0 0.285906 0 0.02 0.285906 0 0.04 0.285906 0 0.06 0.285906 0 0.08 0.285906 0 0.1 0.285906 0 0 0.291306 0 0.02 0.291306 0 0.04 0.291306 0 0.06 0.291306 0 0.08 0.291306 0 0.1 0.291306 0 0 0.296804 0 0.02 0.296804 0 0.04 0.296804 0 0.06 0.296804 0 0.08 0.296804 0 0.1 0.296804 0 0 0.302407 0 0.02 0.302407 0 0.04 0.302407 0 0.06 0.302407 0 0.08 0.302407 0 0.1 0.302407 0 0 0.308123 0 0.02 0.308123 0 0.04 0.308123 0 0.06 0.308123 0 0.08 0.308123 0 0.1 0.308123 0 0 0.313956 0 0.02 0.313956 0 0.04 0.313956 0 0.06 0.313956 0 0.08 0.313956 0 0.1 0.313956 0 0 0.319914 0 0.02 0.319914 0 0.04 0.319914 0 0.06 0.319914 0 0.08 0.319914 0 0.1 0.319914 0 0 0.326002 0 0.02 0.326002 0 0.04 0.326002 0 0.06 0.326002 0 0.08 0.326002 0 0.1 0.326002 0 0 0.332229 0 0.02 0.332229 0 0.04 0.332229 0 0.06 0.332229 0 0.08 0.332229 0 0.1 0.332229 0 0 0.338602 0 0.02 0.338602 0 0.04 0.338602 0 0.06 0.338602 0 0.08 0.338602 0 0.1 0.338602 0 0 0.345128 0 0.02 0.345128 0 0.04 0.345128 0 0.06 0.345128 0 0.08 0.345128 0 0.1 0.345128 0 0 0.351817 0 0.02 0.351817 0 0.04 0.351817 0 0.06 0.351817 0 0.08 0.351817 0 0.1 0.351817 0 0 0.358677 0 0.02 0.358677 0 0.04 0.358677 0 0.06 0.358677 0 0.08 0.358677 0 0.1 0.358677 0 0 0.36572 0 0.02 0.36572 0 0.04 0.36572 0 0.06 0.36572 0 0.08 0.36572 0 0.1 0.36572 0 0 0.372955 0 0.02 0.372955 0 0.04 0.372955 0 0.06 0.372955 0 0.08 0.372955 0 0.1 0.372955 0 0 0.380396 0 0.02 0.380396 0 0.04 0.380396 0 0.06 0.380396 0 0.08 0.380396 0 0.1 0.380396 0 0 0.388055 0 0.02 0.388055 0 0.04 0.388055 0 0.06 0.388055 0 0.08 0.388055 0 0.1 0.388055 0 0 0.395947 0 0.02 0.395947 0 0.04 0.395947 0 0.06 0.395947 0 0.08 0.395947 0 0.1 0.395947 0 0 0.404088 0 0.02 0.404088 0 0.04 0.404088 0 0.06 0.404088 0 0.08 0.404088 0 0.1 0.404088 0 0 0.412496 0 0.02 0.412496 0 0.04 0.412496 0 0.06 0.412496 0 0.08 0.412496 0 0.1 0.412496 0 0 0.421189 0 0.02 0.421189 0 0.04 0.421189 0 0.06 0.421189 0 0.08 0.421189 0 0.1 0.421189 0 0 0.430189 0 0.02 0.430189 0 0.04 0.430189 0 0.06 0.430189 0 0.08 0.430189 0 0.1 0.430189 0 0 0.43952 0 0.02 0.43952 0 0.04 0.43952 0 0.06 0.43952 0 0.08 0.43952 0 0.1 0.43952 0 0 0.449207 0 0.02 0.449207 0 0.04 0.449207 0 0.06 0.449207 0 0.08 0.449207 0 0.1 0.449207 0 0 0.459277 0 0.02 0.459277 0 0.04 0.459277 0 0.06 0.459277 0 0.08 0.459277 0 0.1 0.459277 0 0 0.469759 0 0.02 0.469759 0 0.04 0.469759 0 0.06 0.469759 0 0.08 0.469759 0 0.1 0.469759 0 0 0.480677 0 0.02 0.480677 0 0.04 0.480677 0 0.06 0.480677 0 0.08 0.480677 0 0.1 0.480677 0 0 0.492044 0 0.02 0.492044 0 0.04 0.492044 0 0.06 0.492044 0 0.08 0.492044 0 0.1 0.492044 0 0 0.503838 0 0.02 0.503838 0 0.04 0.503838 0 0.06 0.503838 0 0.08 0.503838 0 0.1 0.503838 0 0 0.515928 0 0.02 0.515928 0 0.04 0.515928 0 0.06 0.515928 0 0.08 0.515928 0 0.1 0.515928 0 0 0.528034 0 0.02 0.528034 0 0.04 0.528034 0 0.06 0.528034 0 0.08 0.528034 0 0.1 0.528034 0 0 0.540056 0 0.02 0.540056 0 0.04 0.540056 0 0.06 0.540056 0 0.08 0.540056 0 0.1 0.540056 0 0 0.551988 0 0.02 0.551988 0 0.04 0.551988 0 0.06 0.551988 0 0.08 0.551988 0 0.1 0.551988 0 0 0.56384 0 0.02 0.56384 0 0.04 0.56384 0 0.06 0.56384 0 0.08 0.56384 0 0.1 0.56384 0 0 0.575636 0 0.02 0.575636 0 0.04 0.575636 0 0.06 0.575636 0 0.08 0.575636 0 0.1 0.575636 0 0 0.587395 0 0.02 0.587395 0 0.04 0.587395 0 0.06 0.587395 0 0.08 0.587395 0 0.1 0.587395 0 0 0.599137 0 0.02 0.599137 0 0.04 0.599137 0 0.06 0.599137 0 0.08 0.599137 0 0.1 0.599137 0 0 0.61087 0 0.02 0.61087 0 0.04 0.61087 0 0.06 0.61087 0 0.08 0.61087 0 0.1 0.61087 0 0 0.622599 0 0.02 0.622599 0 0.04 0.622599 0 0.06 0.622599 0 0.08 0.622599 0 0.1 0.622599 0 0 0.634326 0 0.02 0.634326 0 0.04 0.634326 0 0.06 0.634326 0 0.08 0.634326 0 0.1 0.634326 0 0 0.646054 0 0.02 0.646054 0 0.04 0.646054 0 0.06 0.646054 0 0.08 0.646054 0 0.1 0.646054 0 0 0.657782 0 0.02 0.657782 0 0.04 0.657782 0 0.06 0.657782 0 0.08 0.657782 0 0.1 0.657782 0 0 0.669512 0 0.02 0.669512 0 0.04 0.669512 0 0.06 0.669512 0 0.08 0.669512 0 0.1 0.669512 0 0 0.681256 0 0.02 0.681256 0 0.04 0.681256 0 0.06 0.681256 0 0.08 0.681256 0 0.1 0.681256 0 0 0.683866 0 0.02 0.683866 0 0.04 0.683866 0 0.06 0.683866 0 0.08 0.683866 0 0.1 0.683866 0 0 0.686402 0 0.02 0.686402 0 0.04 0.686402 0 0.06 0.686402 0 0.08 0.686402 0 0.1 0.686402 0 0 0.688893 0 0.02 0.688893 0 0.04 0.688893 0 0.06 0.688893 0 0.08 0.688893 0 0.1 0.688893 0 0 0.691353 0 0.02 0.691353 0 0.04 0.691353 0 0.06 0.691353 0 0.08 0.691353 0 0.1 0.691353 0 0 0.693792 0 0.02 0.693792 0 0.04 0.693792 0 0.06 0.693792 0 0.08 0.693792 0 0.1 0.693792 0 0 0.696215 0 0.02 0.696215 0 0.04 0.696215 0 0.06 0.696215 0 0.08 0.696215 0 0.1 0.696215 0 0 0.698629 0 0.02 0.698629 0 0.04 0.698629 0 0.06 0.698629 0 0.08 0.698629 0 0.1 0.698629 0 0 0.70104 0 0.02 0.70104 0 0.04 0.70104 0 0.06 0.70104 0 0.08 0.70104 0 0.1 0.70104 0 0 0.703452 0 0.02 0.703452 0 0.04 0.703452 0 0.06 0.703452 0 0.08 0.703452 0 0.1 0.703452 0 0 0.705849 0 0.02 0.705849 0 0.04 0.705849 0 0.06 0.705849 0 0.08 0.705849 0 0.1 0.705849 0 0 0.708234 0 0.02 0.708234 0 0.04 0.708234 0 0.06 0.708234 0 0.08 0.708234 0 0.1 0.708234 0 0 0.710615 0 0.02 0.710615 0 0.04 0.710615 0 0.06 0.710615 0 0.08 0.710615 0 0.1 0.710615 0 0 0.712992 0 0.02 0.712992 0 0.04 0.712992 0 0.06 0.712992 0 0.08 0.712992 0 0.1 0.712992 0 0 0.715369 0 0.02 0.715369 0 0.04 0.715369 0 0.06 0.715369 0 0.08 0.715369 0 0.1 0.715369 0 0 0.717745 0 0.02 0.717745 0 0.04 0.717745 0 0.06 0.717745 0 0.08 0.717745 0 0.1 0.717745 0 0 0.720117 0 0.02 0.720117 0 0.04 0.720117 0 0.06 0.720117 0 0.08 0.720117 0 0.1 0.720117 0 0 0.722487 0 0.02 0.722487 0 0.04 0.722487 0 0.06 0.722487 0 0.08 0.722487 0 0.1 0.722487 0 0 0.724855 0 0.02 0.724
[...]
			<PointData Scalars="VitesseX">
				<DataArray Name="VitesseX" type="Float32" format="ascii">
 0 0 0 0 0 0 0 1.47854e-15 6.23885e-15 -4.18992e-16 -6.77346e-15 0 0 1.74322e-15 4.75832e-15 1.088e-15 -5.9023e-15 0 0 2.03647e-15 4.43862e-15 2.01287e-15 -4.04239e-15 0 0 2.22591e-15 4.79717e-15 3.47033e-15 -3.72235e-15 0 0 1.0636e-15 5.72674e-15 5.29181e-15 -4.60314e-15 0 0 7.39278e-16 4.73635e-15 7.19485e-15 -5.21977e-15 0 0 1.05725e-15 1.27897e-15 9.80095e-15 -5.64471e-15 0 0 -2.34256e-15 1.96546e-15 8.71522e-15 -4.67647e-15 0 0 -3.77058e-15 2.37527e-15 2.51166e-15 2.29353e-15 0 0 -4.07479e-15 1.23191e-15 -4.76328e-15 1.19938e-14 0 0 -4.8138e-15 5.38992e-16 -5.47692e-15 9.79105e-15 0 0 -6.05491e-15 2.63491e-15 -6.12257e-15 6.49838e-15 0 0 -8.79722e-15 6.54874e-15 -9.42684e-15 7.53096e-15 0 0 -4.47662e-15 1.10627e-15 -3.13537e-15 -1.33092e-16 0 0 -2.48758e-16 -2.81617e-15 4.90326e-16 -4.40607e-15 0 0 -1.59007e-15 -2.11752e-16 -2.8314e-15 -1.48991e-15 0 0 -4.318e-15 2.41198e-15 -6.14651e-15 4.63011e-15 0 0 -3.81113e-15 5.13794e-16 -7.98877e-15 8.47061e-15 0 0 -3.36221e-15 -3.42451e-15 -4.78931e-15 5.37957e-15 0 0 -5.63511e-15 -5.71482e-16 -5.51868e-15 4.78958e-15 0 0 -9.10633e-16 -5.42359e-15 -1.09603e-15 1.80644e-15 0 0 -4.94199e-15 2.82512e-15 -6.22627e-15 7.41409e-16 0 0 -6.36429e-15 9.23843e-15 -1.13185e-14 1.22423e-15 0 0 3.65033e-15 -5.31823e-15 -2.10675e-15 5.68794e-15 0 0 7.87835e-15 -1.55033e-14 7.51123e-15 3.44979e-15 0 0 2.30988e-15 -1.15664e-14 1.36304e-14 -6.14657e-15 0 0 -2.1108e-15 -3.36348e-15 1.27486e-14 -7.76306e-15 0 0 2.99287e-15 -4.94081e-15 1.03206e-14 -1.78464e-15 0 0 3.8799e-15 -3.98336e-15 1.6767e-15 1.46035e-14 0 0 -3.76539e-15 6.93578e-15 -7.23677e-15 1.98024e-14 0 0 -9.27028e-15 9.58153e-15 2.23824e-15 8.90367e-15 0 0 -1.1466e-15 -2.87005e-15 2.44152e-14 -3.61245e-15 0 0 9.537e-16 8.94118e-15 1.76046e-14 4.55903e-15 0 0 1.39735e-14 1.38869e-14 1.05789e-15 2.65787e-14 0 0 1.8454e-14 1.12131e-15 5.06653e-15 2.66552e-14 0 0 -4.73178e-15 4.55801e-15 -7.50173e-15 -2.18118e-16 0 0 -1.20943e-14 2.47641e-15 -1.2804e-14 -2.68649e-14 0 0 -1.93905e-14 7.36948e-15 6.7647e-15 -2.86274e-14 0 0 -1.01771e-14 -1.30983e-14 2.55779e-14 -2.66482e-14 0 0 -1.66523e-15 -4.57864e-14 2.02572e-14 -2.84797e-14 0 0 -3.29373e-14 -1.9309e-14 -2.38507e-14 -3.76742e-15 0 0 -4.41322e-14 2.41018e-15 -2.98829e-14 1.45111e-14 0 0 -3.44259e-14 -8.83176e-15 -1.98475e-14 -1.60628e-15 0 0 -2.04767e-14 -3.26075e-14 -2.64764e-14 -7.10958e-15 0 0 1.01152e-14 -5.88845e-14 -2.55725e-14 -1.78867e-14 0 0 7.76857e-15 -4.23053e-14 -3.53179e-14 -3.67716e-14 0 0 -1.23445e-14 -6.59076e-15 -3.62503e-14 -4.31592e-14 0 0 4.25798e-15 -1.80958e-14 -2.01275e-14 -1.79145e-14 0 0 1.00018e-14 -2.88335e-14 -2.19274e-15 -7.9525e-15 0 0 1.1099e-14 -4.46901e-15 -7.3733e-15 -1.36593e-14 0 0 1.37864e-14 2.60157e-14 -2.14173e-14 -1.08506e-14 0 0 1.51419e-14 1.04942e-14 -1.01059e-14 -8.99663e-15 0 0 1.39504e-14 -9.98579e-15 -3.26769e-15 9.02359e-15 0 0 -2.18699e-14 7.0037e-15 7.86952e-15 2.48176e-14 0 0 -2.13837e-14 -4.84436e-15 5.57688e-14 1.33504e-15 0 0 -1.90044e-15 -1.78688e-14 7.39577e-14 -1.92573e-14 0 0 -3.00941e-14 -1.47098e-14 5.40564e-14 9.20085e-15 0 0 -6.32314e-14 -9.38434e-15 4.11237e-14 3.88477e-14 0 0 -8.66084e-14 3.82585e-15 2.98291e-14 8.42423e-14 0 0 -7.79359e-14 -4.1251e-14 6.62011e-14 1.27694e-13 0 0 -1.31308e-13 -1.04552e-13 1.24574e-13 1.5174e-13 0 0 -2.20288e-13 -1.43923e-13 1.56405e-13 1.92137e-13 0 0 -2.34476e-13 -1.58073e-13 1.69994e-13 2.2109e-13 0 0 -2.44884e-13 -1.23218e-13 1.56482e-13 2.24579e-13 0 0 -1.24407e-13 -7.80884e-14 1.08018e-13 1.45748e-13 0 0 1.58862e-13 8.40571e-14 -5.66145e-14 -1.30725e-13 0 0 6.12097e-13 3.89646e-13 -3.70154e-13 -6.13378e-13 0 0 1.34455e-12 8.38596e-13 -8.0732e-13 -1.33264e-12 0 0 2.35029e-12 1.45614e-12 -1.40564e-12 -2.33482e-12 0 0 3.54256e-12 2.22823e-12 -2.1759e-12 -3.53823e-12 0 0 4.83457e-12 3.03515e-12 -3.01039e-12 -4.82836e-12 0 0 6.03879e-12 3.70381e-12 -3.68895e-12 -6.028e-12 0 0 6.8121e-12 4.15835e-12 -4.14164e-12 -6.78942e-12 0 0 6.70314e-12 4.14669e-12 -4.10285e-12 -6.71222e-12 0 0 5.31138e-12 3.30566e-12 -3.24111e-12 -5.34431e-12 0 0 2.18414e-12 1.35656e-12 -1.31564e-12 -2.1879e-12 0 0 -3.18204e-12 -1.95287e-12 1.97518e-12 3.17689e-12 0 0 -1.10671e-11 -6.79021e-12 6.81878e-12 1.10623e-11 0 0 -2.16397e-11 -1.33346e-11 1.33844e-11 2.16455e-11 0 0 -3.4841e-11 -2.15474e-11 2.1583e-11 3.48455e-11 0 0 -5.02991e-11 -3.11026e-11 3.11319e-11 5.02977e-11 0 0 -6.73731e-11 -4.16232e-11 4.16637e-11 6.73744e-11 0 0 -8.50232e-11 -5.25322e-11 5.25694e-11 8.50264e-11 0 0 -1.0204e-10 -6.30672e-11 6.30882e-11 1.0206e-10 0 0 -1.16291e-10 -7.1862e-11 7.18747e-11 1.16338e-10 0 0 -1.04379e-10 -6.45347e-11 6.45458e-11 1.04417e-10 0 0 -6.74009e-11 -4.15133e-11 4.15254e-11 6.74024e-11 0 0 -3.2099e-11 -2.00399e-11 2.00295e-11 3.20834e-11 0 0 9.4166e-12 5.34327e-12 -5.38269e-12 -9.43586e-12 0 0 6.02368e-11 4.07847e-11 -4.08344e-11 -6.02881e-11 0 0 1.04522e-10 5.57777e-11 -5.58551e-11 -1.04576e-10 0 0 1.0318e-10 6.77762e-11 -6.78609e-11 -1.03228e-10 0 0 5.4124e-11 6.76611e-11 -6.77222e-11 -5.41724e-11 0 0 3.83065e-11 -8.25713e-11 8.25253e-11 -3.83192e-11 0 0 -2.1066e-10 7.79508e-12 -7.80954e-12 2.10662e-10 0 0 -3.50934e-10 -3.44999e-10 3.45017e-10 3.50945e-10 0 0 -1.13655e-09 -2.79804e-10 2.79841e-10 1.13657e-09 0 0 -1.33561e-09 -2.68336e-09 2.6834e-09 1.33563e-09 0 0 -8.39235e-09 2.32431e-09 -2.32432e-09 8.39238e-09 0 0 -9.14532e-09 4.95509e-09 -4.95515e-09 9.14534e-09 0 0 3.00779e-08 -1.8981e-08 1.89809e-08 -3.00779e-08 0 0 1.58677e-08 -2.51154e-09 2.51143e-09 -1.58677e-08 0 0 1.00927e-08 2.15491e-09 -2.15503e-09 -1.00927e-08 0 0 7.21153e-09 3.28251e-09 -3.28266e-09 -7.21155e-09 0 0 5.51783e-09 3.26007e-09 -3.26022e-09 -5.51784e-09 0 0 4.37266e-09 2.87844e-09 -2.8785e-09 -4.37263e-09 0 0 3.5128e-09 2.39754e-09 -2.39741e-09 -3.51264e-09 0 0 2.82296e-09 1.91682e-09 -1.91643e-09 -2.82263e-09 0 0 2.25882e-09 1.5038e-09 -1.50314e-09 -2.25832e-09 0 0 1.82337e-09 1.17369e-09 -1.17279e-09 -1.82272e-09 0 0 1.48974e-09 8.95753e-10 -8.94705e-10 -1.48902e-09 0 0 1.22255e-09 6.47691e-10 -6.46579e-10 -1.22185e-09 0 0 1.00326e-09 4.46296e-10 -4.45194e-10 -1.00257e-09 0 0 8.057e-10 3.02186e-10 -3.01112e-10 -8.05031e-10 0 0 6.33825e-10 2.19875e-10 -2.18842e-10 -6.33197e-10 0 0 4.86561e-10 1.81174e-10 -1.80197e-10 -4.85965e-10 0 0 3.68344e-10 1.65672e-10 -1.6475e-10 -3.67803e-10 0 0 2.81075e-10 1.59659e-10 -1.58806e-10 -2.8055e-10 0 0 2.2377e-10 1.55856e-10 -1.55067e-10 -2.23267e-10 0 0 1.92886e-10 1.50722e-10 -1.4996e-10 -1.92468e-10 0 0 1.88134e-10 1.47943e-10 -1.47209e-10 -1.87765e-10 0 0 2.03076e-10 1.4843e-10 -1.4774e-10 -2.02709e-10 0 0 2.2382e-10 1.48823e-10 -1.4818e-10 -2.23425e-10 0 0 2.3049e-10 1.43525e-10 -1.42908e-10 -2.30129e-10 0 0 2.27604e-10 1.37805e-10 -1.37233e-10 -2.27273e-10 0 0 2.3343e-10 1.40929e-10 -1.40408e-10 -2.33108e-10 0 0 2.4362e-10 1.48093e-10 -1.47591e-10 -2.43302e-10 0 0 2.5754e-10 1.57936e-10 -1.57454e-10 -2.57238e-10 0 0 2.76399e-10 1.70537e-10 -1.70072e-10 -2.7615e-10 0 0 2.93716e-10 1.81751e-10 -1.81316e-10 -2.9348e-10 0 0 3.08253e-10 1.90945e-10 -1.90502e-10 -3.0805e-10 0 0 3.21237e-10 1.98973e-10 -1.98525e-10 -3.21055e-10 0 0 3.32527e-10 2.0589e-10 -2.05466e-10 -3.32338e-10 0 0 3.41349e-10 2.11313e-10 -2.10906e-10 -3.41169e-10 0 0 3.47566e-10 2.15118e-10 -2.14738e-10 -3.4738e-10 0 0 3.52369e-10 2.18014e-10 -2.17677e-10 -3.52171e-10 0 0 3.55779e-10 2.20073e-10 -2.19788e-10 -3.55549e-10 0 0 3.47678e-10 2.15066e-10 -2.14795e-10 -3.4746e-10 0 0 3.28855e-10 2.03381e-10 -2.03159e-10 -3.28693e-10 0 0 3.09627e-10 1.91438e-10 -1.91307e-10 -3.09459e-10 0 0 2.8945e-10 1.78963e-10 -1.78914e-10 -2.89294e-10 0 0 2.64848e-10 1.63708e-10 -1.63723e-10 -2.64707e-10 0 0 2.36078e-10 1.45873e-10 -1.4592e-10 -2.3595e-10 0 0 2.03592e-10 1.25814e-10 -1.25863e-10 -2.03534e-10 0 0 1.68656e-10 1.04261e-10 -1.04341e-10 -1.686e-10 0 0 1.30851e-10 8.08758e-11 -8.09752e-11 -1.30777e-10 0 0 8.97953e-11 5.54874e-11 -5.55828e-11 -8.97637e-11 0 0 4.44717e-11 2.75221e-11 -2.7631e-11 -4.44321e-11 0 0 -2.90496e-12 -1.66338e-12 1.61361e-12 2.84338e-12 0 0 -3.73239e-11 -2.29685e-11 2.29114e-11 3.72743e-11 0 0 -6.17722e-11 -3.81858e-11 3.81198e-11 6.18005e-11 0 0 -8.97521e-11 -5.54494e-11 5.54484e-11 8.9707e-11 0 0 -1.16798e-10 -7.21383e-11 7.21404e-11 1.16804e-10 0 0 -1.42095e-10 -8.78229e-11 8.78238e-11 1.42193e-10 0 0 -1.58833e-10 -9.81845e-11 9.81954e-11 1.58991e-10 0 0 -1.60151e-10 -9.90305e-11 9.90788e-11 1.60288e-10 0 0 -1.54417e-10 -9.551e-11 9.56263e-11 1.54406e-10 0 0 -1.46448e-10 -9.05413e-11 9.06779e-11 1.46289e-10 0 0 -1.34051e-10 -8.29123e-11 8.29685e-11 1.33889e-10 0 0 -1.16895e-10 -7.22598e-11 7.22292e-11 1.16767e-10 0 0 -9.78548e-11 -6.04514e-11 6.03614e-11 9.77666e-11 0 0 -7.91011e-11 -4.89113e-11 4.87931e-11 7.89654e-11 0 0 -6.15259e-11 -3.80584e-11 3.79465e-11 6.13267e-11 0 0 -4.5728e-11 -2.8311e-11 2.8224e-11 4.55252e-11 0 0 -3.20269e-11 -1.9844e-11 1.97141e-11 3.18971e-11 0 0 -2.06827e-11 -1.2831e-11 1.26258e-11 2.06595e-11 0 0 -1.17699e-11 -7.31605e-12 7.11663e-12 1.16766e-11 0 0 -5.38164e-12 -3.37773e-12 3.17482e-12 5.25829e-12 0 0 -1.35457e-12 -9.16753e-13 7.00564e-13 1.2296e-12 0 0 5.23242e-13 3.18935e-13 -5.16368e-13 -6.57222e-13 0 0 9.44723e-13 5.77864e-13 -7.43445e-13 -1.05292e-12 0 0 6.80982e-13 3.51883e-13 -4.70443e-13 -8.14854e-13 0 0 2.8265e-13 1.45575e-13 -2.51478e-13 -3.94067e-13 0 0 6.36108e-14 1.63395e-14 -1.53898e-13 -1.23977e-13 0 0 -6.29722e-15 -5.60676e-14 -8.60686e-14 -6.59376e-14 0 0 -3.6511e-14 -7.18629e-14 -5.14043e-14 -7.98826e-14 0 0 -4.10048e-14 -8.21781e-14 -6.70383e-14 -5.40476e-14 0 0 -3.4499e-14 -9.85578e-14 -8.06122e-14 -2.67087e-14 0 0 -4.66808e-14 -9.06534e-14 -9.27808e-14 2.38257e-15 0 0 -5.52843e-14 -7.24984e-14 -8.56178e-14 -3.2131e-14 0 0 -4.36432e-14 -8.0361e-14 -7.13102e-14 -7.88531e-14 0 0 -3.41985e-14 -8.7686e-14 -8.01105e-14 -6.25485e-14 0 0 -3.0194e-14 -8.7369e-14 -8.15712e-14 -5.35674e-14 0 0 -3.62502e-14 -7.75446e-14 -8.01467e-14 -5.75688e-14 0 0 -3.20546e-14 -6.01626e-14 -1.04207e-13 -5.41783e-14 0 0 3.36126e-15 -9.92397e-14 -8.48123e-14 -4.64413e-14 0 0 1.30378e-14 -1.10965e-13 -7.58474e-14 -1.58978e-14 0 0 1.1636e-14 -7.62075e-14 -1.22282e-13 2.38047e-14 0 0 1.21601e-14 -5.86467e-14 -1.47788e-13 5.66213e-14 0 0 1.60206e-14 -4.41602e-14 -1.68419e-13 6.33209e-14 0 0 3.10407e-14 -5.96832e-14 -1.21238e-13 2.899e-14 0 0 1.54155e-14 -5.89617e-14 -7.961e-14 2.22407e-15 0 0 -1.91401e-14 -3.27532e-15 -1.13008e-13 9.28358e-15 0 0 -2.67725e-14 3.05456e-15 -9.05943e-14 7.41577e-16 0 0 -1.74254e-14 -2.93909e-15 -4.91329e-14 -3.93473e-14 0 0 4.21577e-15 -2.57325e-14 5.0845e-16 -3.94688e-14 0 0 2.70913e-14 -4.15906e-14 3.79734e-14 -5.5213e-14 0 0 1.48146e-14 -2.35256e-14 3.64413e-14 -1.36548e-13 0 0 1.69821e-15 -3.34565e-14 5.27768e-15 -1.60359e-13 0 0 0 0 0 0 0
				</DataArray>
				<DataArray Name="VitesseY" type="Float32" format="ascii">
 0 0 0 0 0 0 0 3.89236e-15 1.3041e-15 1.80375e-15 5.41319e-15 0 0 3.97084e-15 2.57053e-15 1.50418e-15 7.64048e-15 0 0 1.65333e-15 3.65841e-15 6.74751e-15 1.22127e-14 0 0 2.42052e-15 2.40922e-15 6.50168e-15 8.599e-15 0 0 1.77777e-15 1.86788e-15 8.11769e-15 9.70432e-15 0 0 5.86494e-15 2.17239e-15 -1.42283e-15 2.27416e-15 0 0 4.66551e-15 -3.84599e-15 -4.13001e-15 1.37201e-15 0 0 2.45128e-15 4.74812e-16 -7.50782e-16 -6.53632e-15 0 0 1.18001e-14 9.97521e-15 -1.21876e-14 -2.95455e-15 0 0 8.73133e-15 4.51041e-15 -7.24876e-15 -6.37837e-15 0 0 6.8982e-15 5.1121e-15 1.16865e-14 -6.20465e-16 0 0 3.25475e-15 8.55415e-15 7.74532e-15 4.58016e-15 0 0 1.01247e-14 9.30485e-15 1.23635e-14 6.24408e-15 0 0 1.38989e-14 9.87851e-15 1.0435e-14 1.06897e-14 0 0 5.9343e-15 1.08904e-14 9.62397e-15 6.81582e-15 0 0 1.08666e-14 1.05047e-14 8.45221e-15 1.02023e-14 0 0 6.66793e-15 6.43784e-15 5.2777e-15 1.52013e-14 0 0 1.29303e-14 7.20039e-15 -6.64907e-15 -8.02694e-15 0 0 6.9655e-15 -1.44225e-15 8.97755e-15 1.15221e-14 0 0 2.71901e-17 1.11089e-14 9.04988e-15 1.87171e-15 0 0 9.89743e-15 -1.14099e-15 -1.31003e-15 1.22494e-14 0 0 -1.53336e-14 1.27752e-14 2.50279e-14 -1.30062e-14 0 0 5.21321e-15 -3.21764e-15 -1.04888e-14 9.44499e-15 0 0 1.5457e-14 5.43616e-15 -8.61308e-15 2.63904e-14 0 0 2.54633e-14 1.16322e-14 2.37009e-14 1.81253e-14 0 0 -6.85255e-15 3.19196e-16 2.8636e-14 2.00749e-14 0 0 2.67691e-14 3.47656e-14 3.58992e-14 3.39079e-14 0 0 2.97585e-14 3.62487e-14 1.91656e-14 3.50562e-14 0 0 3.62278e-14 3.71717e-14 2.34399e-14 3.88698e-14 0 0 2.84038e-14 4.03623e-14 6.22309e-14 3.18188e-14 0 0 4.84644e-14 2.50556e-14 5.19015e-14 7.62227e-14 0 0 5.72892e-14 6.36856e-14 7.5736e-14 8.9872e-14 0 0 8.83276e-14 1.37735e-13 1.45505e-13 1.36934e-13 0 0 5.46045e-13 5.68122e-13 5.13546e-13 5.44665e-13 0 0 2.97948e-12 2.92337e-12 2.94287e-12 2.92873e-12 0 0 1.71051e-11 1.70818e-11 1.70261e-11 1.68823e-11 0 0 9.46721e-11 9.46575e-11 9.4684e-11 9.46996e-11 0 0 4.99649e-10 4.99655e-10 4.99726e-10 4.99781e-10 0 0 2.51103e-09 2.51098e-09 2.5109e-09 2.51093e-09 0 0 1.19886e-08 1.19886e-08 1.19885e-08 1.19884e-08 0 0 5.42661e-08 5.42661e-08 5.42662e-08 5.42661e-08 0 0 2.32355e-07 2.32355e-07 2.32355e-07 2.32355e-07 0 0 9.38664e-07 9.38664e-07 9.38664e-07 9.38664e-07 0 0 3.56719e-06 3.56719e-06 3.56719e-06 3.56719e-06 0 0 1.27096e-05 1.27096e-05 1.27096e-05 1.27096e-05 0 0 4.22883e-05 4.22883e-05 4.22883e-05 4.22883e-05 0 0 0.0001308 0.0001308 0.0001308 0.0001308 0 0 0.000374098 0.000374098 0.000374098 0.000374098 0 0 0.000983452 0.000983452 0.000983452 0.000983452 0 0 0.00236138 0.00236138 0.00236138 0.00236138 0 0 0.00514897 0.00514897 0.00514897 0.00514897 0 0 0.010158 0.010158 0.010158 0.010158 0 0 0.0181335 0.0181335 0.0181335 0.0181335 0 0 0.0294451 0.0294451 0.0294451 0.0294451 0 0 0.0439353 0.0439353 0.0439353 0.0439353 0 0 0.0610527 0.0610527 0.0610527 0.0610527 0 0 0.0801374 0.0801374 0.0801374 0.0801374 0 0 0.100643 0.100643 0.100643 0.100643 0 0 0.122204 0.122204 0.122204 0.122204 0 0 0.144612 0.144612 0.144612 0.144612 0 0 0.167754 0.167754 0.167754 0.167754 0 0 0.191576 0.191576 0.191576 0.191576 0 0 0.216055 0.216055 0.216055 0.216055 0 0 0.241185 0.241185 0.241185 0.241185 0 0 0.266973 0.266973 0.266973 0.266973 0 0 0.293433 0.293433 0.293433 0.293433 0 0 0.320585 0.320585 0.320585 0.320585 0 0 0.348455 0.348455 0.348455 0.348455 0 0 0.377072 0.377072 0.377072 0.377072 0 0 0.406471 0.406471 0.406471 0.406471 0 0 0.436688 0.436688 0.436688 0.436688 0 0 0.467764 0.467764 0.467764 0.467764 0 0 0.499745 0.499745 0.499745 0.499745 0 0 0.532677 0.532677 0.532677 0.532677 0 0 0.56661 0.56661 0.56661 0.56661 0 0 0.601593 0.601593 0.601593 0.601593 0 0 0.637676 0.637676 0.637676 0.637676 0 0 0.674899 0.674899 0.674899 0.674899 0 0 0.713282 0.713282 0.713282 0.713282 0 0 0.752809 0.752809 0.752809 0.752809 0 0 0.793376 0.793376 0.793376 0.793376 0 0 0.834684 0.834684 0.834684 0.834684 0 0 0.875978 0.875978 0.875978 0.875978 0 0 0.915328 0.915328 0.915328 0.915328 0 0 0.947675 0.947675 0.947675 0.947675 0 0 0.960261 0.960261 0.960261 0.960261 0 0 0.952854 0.952854 0.952854 0.952854 0 0 0.945636 0.945636 0.945636 0.945636 0 0 0.938716 0.938716 0.938716 0.938716 0 0 0.933487 0.933487 0.933487 0.933487 0 0 0.930184 0.930184 0.930184 0.930184 0 0 0.928393 0.928393 0.928393 0.928393 0 0 0.927523 0.927523 0.927523 0.927523 0 0 0.927113 0.927113 0.927113 0.927113 0 0 0.926905 0.926905 0.926905 0.926905 0 0 0.926787 0.926787 0.926787 0.926787 0 0 0.926714 0.926714 0.926714 0.926714 0 0 0.926656 0.926656 0.926656 0.926656 0 0 0.926619 0.926619 0.926619 0.926619 0 0 0.926663 0.926663 0.926663 0.926663 0 0 0.926644 0.926644 0.926644 0.926644 0 0 0.926628 0.926628 0.926628 0.926628 0 0 0.926619 0.926619 0.926619 0.926619 0 0 0.926631 0.926631 0.926631 0.926631 0 0 0.926702 0.926702 0.926702 0.926702 0 0 0.926803 0.926803 0.926803 0.926803 0 0 0.926791 0.926791 0.926791 0.926791 0 0 0.926777 0.926777 0.926777 0.926777 0 0 0.92675 0.92675 0.92675 0.92675 0 0 0.926713 0.926713 0.926713 0.926713 0 0 0.92667 0.92667 0.92667 0.92667 0 0 0.926626 0.926626 0.926626 0.926626 0 0 0.92658 0.92658 0.92658 0.92658 0 0 0.926537 0.926537 0.926537 0.926537 0 0 0.926497 0.926497 0.926497 0.926497 0 0 0.926462 0.926462 0.926462 0.926462 0 0 0.926433 0.926433 0.926433 0.926433 0 0 0.92641 0.92641 0.92641 0.92641 0 0 0.926395 0.926395 0.926395 0.926395 0 0 0.926386 0.926386 0.926386 0.926386 0 0 0.926384 0.926384 0.926384 0.926384 0 0 0.926412 0.926412 0.926412 0.926412 0 0 0.926489 0.926489 0.926489 0.926489 0 0 0.926509 0.926509 0.926509 0.926509 0 0 0.926488 0.926488 0.926488 0.926488 0 0 0.926451 0.926451 0.926451 0.926451 0 0 0.926409 0.926409 0.926409 0.926409 0 0 0.92636 0.92636 0.92636 0.92636 0 0 0.926303 0.926303 0.926303 0.926303 0 0 0.926241 0.926241 0.926241 0.926241 0 0 0.926177 0.926177 0.926177 0.926177 0 0 0.926115 0.926115 0.926115 0.926115 0 0 0.92606 0.92606 0.92606 0.92606 0 0 0.926015 0.926015 0.926015 0.926015 0 0 0.925989 0.925989 0.925989 0.925989 0 0 0.925981 0.925981 0.925981 0.925981 0 0 0.926035 0.926035 0.926035 0.926035 0 0 0.926324 0.926324 0.926324 0.926324 0 0 0.926493 0.926493 0.926493 0.926493 0 0 0.926431 0.926431 0.926431 0.926431 0 0 0.926395 0.926395 0.926395 0.926395 0 0 0.92637 0.92637 0.92637 0.92637 0 0 0.926326 0.926326 0.926326 0.926326 0 0 0.92627 0.92627 0.92627 0.92627 0 0 0.926214 0.926214 0.926214 0.926214 0 0 0.926173 0.926173 0.926173 0.926173 0 0 0.926156 0.926156 0.926156 0.926156 0 0 0.926223 0.926223 0.926223 0.926223 0 0 0.926577 0.926577 0.926577 0.926577 0 0 0.926217 0.926217 0.926217 0.926217 0 0 0.925946 0.925946 0.925946 0.925946 0 0 0.925594 0.925594 0.925594 0.925594 0 0 0.925329 0.925329 0.925329 0.925329 0 0 0.925339 0.925339 0.925339 0.925339 0 0 0.926751 0.926751 0.926751 0.926751 0 0 0.926574 0.926574 0.926574 0.926574 0 0 0.925498 0.925498 0.925498 0.925498 0 0 0.923697 0.923697 0.923697 0.923697 0 0 0.922499 0.922499 0.922499 0.922499 0 0 0.921459 0.921459 0.921459 0.921459 0 0 0.918704 0.918704 0.918704 0.918704 0 0 0.91189 0.91189 0.91189 0.91189 0 0 0.895026 0.895026 0.895026 0.895026 0 0 0.87092 0.87092 0.87092 0.87092 0 0 0.832824 0.832824 0.832824 0.832824 0 0 0.782241 0.782241 0.782241 0.782241 0 0 0.708533 0.708533 0.708533 0.708533 0 0 0.617371 0.617371 0.617371 0.617371 0 0 0.505141 0.505141 0.505141 0.505141 0 0 0.382762 0.382762 0.382762 0.382762 0 0 0.260837 0.260837 0.260837 0.260837 0 0 0.155692 0.155692 0.155692 0.155692 0 0 0.079659 0.079659 0.079659 0.079659 0 0 0.0352048 0.0352048 0.0352048 0.0352048 0 0 0.0140162 0.0140162 0.0140162 0.0140162 0 0 0.00527824 0.00527824 0.00527824 0.00527824 0 0 0.00194013 0.00194013 0.00194013 0.00194013 0 0 0.000706394 0.000706394 0.000706394 0.000706394 0 0 0.000256264 0.000256264 0.000256264 0.000256264 0 0 9.28263e-05 9.28263e-05 9.28263e-05 9.28263e-05 0 0 3.35958e-05 3.35958e-05 3.35958e-05 3.35958e-05 0 0 1.21498e-05 1.21498e-05 1.21498e-05 1.21498e-05 0 0 4.39004e-06 4.39004e-06 4.39004e-06 4.39004e-06 0 0 1.58445e-06 1.58445e-06 1.58446e-06 1.58446e-06 0 0 5.7105e-07 5.7105e-07 5.7105e-07 5.71049e-07 0 0 2.05448e-07 2.05448e-07 2.05448e-07 2.05449e-07 0 0 7.37573e-08 7.37573e-08 7.37573e-08 7.37573e-08 0 0 2.64123e-08 2.64124e-08 2.64124e-08 2.64124e-08 0 0 9.43027e-09 9.43027e-09 9.43025e-09 9.43027e-09 0 0 3.35562e-09 3.35569e-09 3.35569e-09 3.35561e-09 0 0 1.18945e-09 1.18938e-09 1.18951e-09 1.18964e-09 0 0 4.19857e-10 4.1987e-10 4.19916e-10 4.19843e-10 0 0 1.47465e-10 1.47537e-10 1.4758e-10 1.47548e-10 0 0 5.15861e-11 5.15094e-11 5.15805e-11 5.16683e-11 0 0 1.7878e-11 1.7968e-11 1.80387e-11 1.79569e-11 0 0 6.28468e-12 6.19035e-12 6.22651e-12 6.50636e-12 0 0 2.11847e-12 2.24123e-12 2.29183e-12 2.09904e-12 0 0 7.93021e-13 6.93221e-13 7.07681e-13 5.6866e-13 0 0 1.81752e-13 1.89824e-13 1.09274e-14 -7.06236e-14 0 0 0 0 0 0 0
				</DataArray>
			</PointData>
			<CellData Scalars="Density">
				<DataArray Name="Density" type="Float32" format="ascii">