<?xml version="1.0"?>
<VTKFile type="PolyData">
	<PolyData>
		<Piece NumberOfPoints="1206" NumberOfPolys="1000">
			<Points>
				<DataArray type="Float32" NumberOfComponents="3" format="ascii">
 0 0 0 0.02 0 0 0.04 0 0 0.06 0 0 0.08 0 0 0.1 0 0 0 0.005 0 0.02 0.005 0 0.04 0.005 0 0.06 0.005 0 0.08 0.005 0 0.1 0.005 0 0 0.01 0 0.02 0.01 0 0.04 0.01 0 0.06 0.01 0 0.08 0.01 0 0.1 0.01 0 0 0.015 0 0.02 0.015 0 0.04 0.015 0 0.06 0.015 0 0.08 0.015 0 0.1 0.015 0 0 0.02 0 0.02 0.02 0 0.04 0.02 0 0.06 0.02 0 0.08 0.02 0 0.1 0.02 0 0 0.025 0 0.02 0.025 0 0.04 0.025 0 0.06 0.025 0 0.08 0.025 0 0.1 0.025 0 0 0.03 0 0.02 0.03 0 0.04 0.03 0 0.06 0.03 0 0.08 0.03 0 0.1 0.03 0 0 0.035 0 0.02 0.035 0 0.04 0.035 0 0.06 0.035 0 0.08 0.035 0 0.1 0.035 0 0 0.04 0 0.02 0.04 0 0.04 0.04 0 0.06 0.04 0 0.08 0.04 0 0.1 0.04 0 0 0.045 0 0.02 0.045 0 0.04 0.045 0 0.06 0.045 0 0.08 0.045 0 0.1 0.045 0 0 0.05 0 0.02 0.05 0 0.04 0.05 0 0.06 0.05 0 0.08 0.05 0 0.1 0.05 0 0 0.055 0 0.02 0.055 0 0.04 0.055 0 0.06 0.055 0 0.08 0.055 0 0.1 0.055 0 0 0.06 0 0.02 0.06 0 0.04 0.06 0 0.06 0.06 0 0.08 0.06 0 0.1 0.06 0 0 0.065 0 0.02 0.065 0 0.04 0.065 0 0.06 0.065 0 0.08 0.065 0 0.1 0.065 0 0 0.07 0 0.02 0.07 0 0.04 0.07 0 0.06 0.07 0 0.08 0.07 0 0.1 0.07 0 0 0.075 0 0.02 0.075 0 0.04 0.075 0 0.06 0.075 0 0.08 0.075 0 0.1 0.075 0 0 0.08 0 0.02 0.08 0 0.04 0.08 0 0.06 0.08 0 0.08 0.08 0 0.1 0.08 0 0 0.085 0 0.02 0.085 0 0.04 0.085 0 0.06 0.085 0 0.08 0.085 0 0.1 0.085 0 0 0.09 0 0.02 0.09 0 0.04 0.09 0 0.06 0.09 0 0.08 0.09 0 0.1 0.09 0 0 0.095 0 0.02 0.095 0 0.04 0.095 0 0.06 0.095 0 0.08 0.095 0 0.1 0.095 0 0 0.1 0 0.02 0.1 0 0.04 0.1 0 0.06 0.1 0 0.08 0.1 0 0.1 0.1 0 0 0.105 0 0.02 0.105 0 0.04 0.105 0 0.06 0.105 0 0.08 0.105 0 0.1 0.105 0 0 0.11 0 0.02 0.11 0 0.04 0.11 0 0.06 0.11 0 0.08 0.11 0 0.1 0.11 0 0 0.115 0 0.02 0.115 0 0.04 0.115 0 0.06 0.115 0 0.08 0.115 0 0.1 0.115 0 0 0.12 0 0.02 0.12 0 0.04 0.12 0 0.06 0.12 0 0.08 0.12 0 0.1 0.12 0 0 0.125 0 0.02 0.125 0 0.04 0.125 0 0.06 0.125 0 0.08 0.125 0 0.1 0.125 0 0 0.13 0 0.02 0.13 0 0.04 0.13 0 0.06 0.13 0 0.08 0.13 0 0.1 0.13 0 0 0.135 0 0.02 0.135 0 0.04 0.135 0 0.06 0.135 0 0.08 0.135 0 0.1 0.135 0 0 0.14 0 0.02 0.14 0 0.04 0.14 0 0.06 0.14 0 0.08 0.14 0 0.1 0.14 0 0 0.145 0 0.02 0.145 0 0.04 0.145 0 0.06 0.145 0 0.08 0.145 0 0.1 0.145 0 0 0.15 0 0.02 0.15 0 0.04 0.15 0 0.06 0.15 0 0.08 0.15 0 0.1 0.15 0 0 0.155 0 0.02 0.155 0 0.04 0.155 0 0.06 0.155 0 0.08 0.155 0 0.1 0.155 0 0 0.16 0 0.02 0.16 0 0.04 0.16 0 0.06 0.16 0 0.08 0.16 0 0.1 0.16 0 0 0.165 0 0.02 0.165 0 0.04 0.165 0 0.06 0.165 0 0.08 0.165 0 0.1 0.165 0 0 0.17 0 0.02 0.17 0 0.04 0.17 0 0.06 0.17 0 0.08 0.17 0 0.1 0.17 0 0 0.175 0 0.02 0.175 0 0.04 0.175 0 0.06 0.175 0 0.08 0.175 0 0.1 0.175 0 0 0.18 0 0.02 0.18 0 0.04 0.18 0 0.06 0.18 0 0.08 0.18 0 0.1 0.18 0 0 0.185 0 0.02 0.185 0 0.04 0.185 0 0.06 0.185 0 0.08 0.185 0 0.1 0.185 0 0 0.19 0 0.02 0.19 0 0.04 0.19 0 0.06 0.19 0 0.08 0.19 0 0.1 0.19 0 0 0.195 0 0.02 0.195 0 0.04 0.195 0 0.06 0.195 0 0.08 0.195 0 0.1 0.195 0 0 0.2 0 0.02 0.2 0 0.04 0.2 0 0.06 0.2 0 0.08 0.2 0 0.1 0.2 0 0 0.205 0 0.02 0.205 0 0.04 0.205 0 0.06 0.205 0 0.08 0.205 0 0.1 0.205 0 0 0.21 0 0.02 0.21 0 0.04 0.21 0 0.06 0.21 0 0.08 0.21 0 0.1 0.21 0 0 0.215 0 0.02 0.215 0 0.04 0.215 0 0.06 0.215 0 0.08 0.215 0 0.1 0.215 0 0 0.22 0 0.02 0.22 0 0.04 0.22 0 0.06 0.22 0 0.08 0.22 0 0.1 0.22 0 0 0.225 0 0.02 0.225 0 0.04 0.225 0 0.06 0.225 0 0.08 0.225 0 0.1 0.225 0 0 0.23 0 0.02 0.23 0 0.04 0.23 0 0.06 0.23 0 0.08 0.23 0 0.1 0.23 0 0 0.235 0 0.02 0.235 0 0.04 0.235 0 0.06 0.235 0 0.08 0.235 0 0.1 0.235 0 0 0.24 0 0.02 0.24 0 0.04 0.24 0 0.06 0.24 0 0.08 0.24 0 0.1 0.24 0 0 0.245 0 0.02 0.245 0 0.04 0.245 0 0.06 0.245 0 0.08 0.245 0 0.1 0.245 0 0 0.25 0 0.02 0.25 0 0.04 0.25 0 0.06 0.25 0 0.08 0.25 0 0.1 0.25 0 0 0.255 0 0.02 0.255 0 0.04 0.255 0 0.06 0.255 0 0.08 0.255 0 0.1 0.255 0 0 0.26 0 0.02 0.26 0 0.04 0.26 0 0.06 0.26 0 0.08 0.26 0 0.1 0.26 0 0 0.265 0 0.02 0.265 0 0.04 0.265 0 0.06 0.265 0 0.08 0.265 0 0.1 0.265 0 0 0.27 0 0.02 0.27 0 0.04 0.27 0 0.06 0.27 0 0.08 0.27 0 0.1 0.27 0 0 0.275 0 0.02 0.275 0 0.04 0.275 0 0.06 0.275 0 0.08 0.275 0 0.1 0.275 0 0 0.28 0 0.02 0.28 0 0.04 0.28 0 0.06 0.28 0 0.08 0.28 0 0.1 0.28 0 0 0.285 0 0.02 0.285 0 0.04 0.285 0 0.06 0.285 0 0.08 0.285 0 0.1 0.285 0 0 0.29 0 0.02 0.29 0 0.04 0.29 0 0.06 0.29 0 0.08 0.29 0 0.1 0.29 0 0 0.295 0 0.02 0.295 0 0.04 0.295 0 0.06 0.295 0 0.08 0.295 0 0.1 0.295 0 0 0.3 0 0.02 0.3 0 0.04 0.3 0 0.06 0.3 0 0.08 0.3 0 0.1 0.3 0 0 0.305 0 0.02 0.305 0 0.04 0.305 0 0.06 0.305 0 0.08 0.305 0 0.1 0.305 0 0 0.31 0 0.02 0.31 0 0.04 0.31 0 0.06 0.31 0 0.08 0.31 0 0.1 0.31 0 0 0.315 0 0.02 0.315 0 0.04 0.315 0 0.06 0.315 0 0.08 0.315 0 0.1 0.315 0 0 0.32 0 0.02 0.32 0 0.04 0.32 0 0.06 0.32 0 0.08 0.32 0 0.1 0.32 0 0 0.325 0 0.02 0.325 0 0.04 0.325 0 0.06 0.325 0 0.08 0.325 0 0.1 0.325 0 0 0.330002 0 0.02 0.330002 0 0.04 0.330002 0 0.06 0.330002 0 0.08 0.330002 0 0.1 0.330002 0 0 0.335006 0 0.02 0.335006 0 0.04 0.335006 0 0.06 0.335006 0 0.08 0.335006 0 0.1 0.335006 0 0 0.340017 0 0.02 0.340017 0 0.04 0.340017 0 0.06 0.340017 0 0.08 0.340017 0 0.1 0.340017 0 0 0.345046 0 0.02 0.345046 0 0.04 0.345046 0 0.06 0.345046 0 0.08 0.345046 0 0.1 0.345046 0 0 0.350109 0 0.02 0.350109 0 0.04 0.350109 0 0.06 0.350109 0 0.08 0.350109 0 0.1 0.350109 0 0 0.355231 0 0.02 0.355231 0 0.04 0.355231 0 0.06 0.355231 0 0.08 0.355231 0 0.1 0.355231 0 0 0.360442 0 0.02 0.360442 0 0.04 0.360442 0 0.06 0.360442 0 0.08 0.360442 0 0.1 0.360442 0 0 0.365767 0 0.02 0.365767 0 0.04 0.365767 0 0.06 0.365767 0 0.08 0.365767 0 0.1 0.365767 0 0 0.371232 0 0.02 0.371232 0 0.04 0.371232 0 0.06 0.371232 0 0.08 0.371232 0 0.1 0.371232 0 0 0.376854 0 0.02 0.376854 0 0.04 0.376854 0 0.06 0.376854 0 0.08 0.376854 0 0.1 0.376854 0 0 0.382653 0 0.02 0.382653 0 0.04 0.382653 0 0.06 0.382653 0 0.08 0.382653 0 0.1 0.382653 0 0 0.388643 0 0.02 0.388643 0 0.04 0.388643 0 0.06 0.388643 0 0.08 0.388643 0 0.1 0.388643 0 0 0.394843 0 0.02 0.394843 0 0.04 0.394843 0 0.06 0.394843 0 0.08 0.394843 0 0.1 0.394843 0 0 0.401272 0 0.02 0.401272 0 0.04 0.401272 0 0.06 0.401272 0 0.08 0.401272 0 0.1 0.401272 0 0 0.407949 0 0.02 0.407949 0 0.04 0.407949 0 0.06 0.407949 0 0.08 0.407949 0 0.1 0.407949 0 0 0.414899 0 0.02 0.414899 0 0.04 0.414899 0 0.06 0.414899 0 0.08 0.414899 0 0.1 0.414899 0 0 0.422148 0 0.02 0.422148 0 0.04 0.422148 0 0.06 0.422148 0 0.08 0.422148 0 0.1 0.422148 0 0 0.429725 0 0.02 0.429725 0 0.04 0.429725 0 0.06 0.429725 0 0.08 0.429725 0 0.1 0.429725 0 0 0.437665 0 0.02 0.437665 0 0.04 0.437665 0 0.06 0.437665 0 0.08 0.437665 0 0.1 0.437665 0 0 0.446008 0 0.02 0.446008 0 0.04 0.446008 0 0.06 0.446008 0 0.08 0.446008 0 0.1 0.446008 0 0 0.454798 0 0.02 0.454798 0 0.04 0.454798 0 0.06 0.454798 0 0.08 0.454798 0 0.1 0.454798 0 0 0.46409 0 0.02 0.46409 0 0.04 0.46409 0 0.06 0.46409 0 0.08 0.46409 0 0.1 0.46409 0 0 0.47394 0 0.02 0.47394 0 0.04 0.47394 0 0.06 0.47394 0 0.08 0.47394 0 0.1 0.47394 0 0 0.484412 0 0.02 0.484412 0 0.04 0.484412 0 0.06 0.484412 0 0.08 0.484412 0 0.1 0.484412 0 0 0.495553 0 0.02 0.495553 0 0.04 0.495553 0 0.06 0.495553 0 0.08 0.495553 0 0.1 0.495553 0 0 0.50735 0 0.02 0.50735 0 0.04 0.50735 0 0.06 0.50735 0 0.08 0.50735 0 0.1 0.50735 0 0 0.519562 0 0.02 0.519562 0 0.04 0.519562 0 0.06 0.519562 0 0.08 0.519562 0 0.1 0.519562 0 0 0.531715 0 0.02 0.531715 0 0.04 0.531715 0 0.06 0.531715 0 0.08 0.531715 0 0.1 0.531715 0 0 0.543724 0 0.02 0.543724 0 0.04 0.543724 0 0.06 0.543724 0 0.08 0.543724 0 0.1 0.543724 0 0 0.555605 0 0.02 0.555605 0 0.04 0.555605 0 0.06 0.555605 0 0.08 0.555605 0 0.1 0.555605 0 0 0.567404 0 0.02 0.567404 0 0.04 0.567404 0 0.06 0.567404 0 0.08 0.567404 0 0.1 0.567404 0 0 0.579162 0 0.02 0.579162 0 0.04 0.579162 0 0.06 0.579162 0 0.08 0.579162 0 0.1 0.579162 0 0 0.590906 0 0.02 0.590906 0 0.04 0.590906 0 0.06 0.590906 0 0.08 0.590906 0 0.1 0.590906 0 0 0.602646 0 0.02 0.602646 0 0.04 0.602646 0 0.06 0.602646 0 0.08 0.602646 0 0.1 0.602646 0 0 0.614398 0 0.02 0.614398 0 0.04 0.614398 0 0.06 0.614398 0 0.08 0.614398 0 0.1 0.614398 0 0 0.617009 0 0.02 0.617009 0 0.04 0.617009 0 0.06 0.617009 0 0.08 0.617009 0 0.1 0.617009 0 0 0.619546 0 0.02 0.619546 0 0.04 0.619546 0 0.06 0.619546 0 0.08 0.619546 0 0.1 0.619546 0 0 0.622037 0 0.02 0.622037 0 0.04 0.622037 0 0.06 0.622037 0 0.08 0.622037 0 0.1 0.622037 0 0 0.624498 0 0.02 0.624498 0 0.04 0.624498 0 0.06 0.624498 0 0.08 0.624498 0 0.1 0.624498 0 0 0.626938 0 0.02 0.626938 0 0.04 0.626938 0 0.06 0.626938 0 0.08 0.626938 0 0.1 0.626938 0 0 0.629362 0 0.02 0.629362 0 0.04 0.629362 0 0.06 0.629362 0 0.08 0.629362 0 0.1 0.629362 0 0 0.631777 0 0.02 0.631777 0 0.04 0.631777 0 0.06 0.631777 0 0.08 0.631777 0 0.1 0.631777 0 0 0.634189 0 0.02 0.634189 0 0.04 0.634189 0 0.06 0.634189 0 0.08 0.634189 0 0.1 0.634189 0 0 0.636602 0 0.02 0.636602 0 0.04 0.636602 0 0.06 0.636602 0 0.08 0.636602 0 0.1 0.636602 0 0 0.638999 0 0.02 0.638999 0 0.04 0.638999 0 0.06 0.638999 0 0.08 0.638999 0 0.1 0.638999 0 0 0.641386 0 0.02 0.641386 0 0.04 0.641386 0 0.06 0.641386 0 0.08 0.641386 0 0.1 0.641386 0 0 0.643767 0 0.02 0.643767 0 0.04 0.643767 0 0.06 0.643767 0 0.08 0.643767 0 0.1 0.643767 0 0 0.646145 0 0.02 0.646145 0 0.04 0.646145 0 0.06 0.646145 0 0.08 0.646145 0 0.1 0.646145 0 0 0.648522 0 0.02 0.648522 0 0.04 0.648522 0 0.06 0.648522 0 0.08 0.648522 0 0.1 0.648522 0 0 0.650899 0 0.02 0.650899 0 0.04 0.650899 0 0.06 0.650899 0 0.08 0.650899 0 0.1 0.650899 0 0 0.653272 0 0.02 0.653272 0 0.04 0.653272 0 0.06 0.653272 0 0.08 0.653272 0 0.1 0.653272 0 0 0.655642 0 0.02 0.655642 0 0.04 0.655642 0 0.06 0.655642 0 0.08 0.655642 0 0.1 0.655642 0 0 0.658011 0 0.02 0.658011 0 0.04 0.658011 0 0.06 0.658011 0 0.08 0.658011 0 0.1 0.658011 0 0 0.660382 0 0.02 0.660382 0 0.04 0.660382 0 0.06 0.660382 0 0.08 0.660382 0 0.1 0.660382 0 0 0.662752 0 0.02 0.662752 0 0.04 0.662752 0 0.06 0.662752 0 0.08 0.662752 0 0.1 0.662752 0 0 0.665119 0 0.02 0.665119 0 0.04 0.665119 0 0.06 0.665119 0 0.08 0.665119 0 0.1 0.665119 0 0 0.667486 0 0.02 0.6
[...]
			<PointData Scalars="VitesseX">
				<DataArray Name="VitesseX" type="Float32" format="ascii">
 0 0 0 0 0 0 0 1.61812e-15 2.48048e-15 2.44229e-15 1.0547e-14 0 0 1.74405e-15 2.08579e-15 3.35905e-15 1.005e-14 0 0 1.10302e-15 2.39197e-15 3.74994e-15 9.39042e-15 0 0 1.46232e-15 1.79821e-15 4.26268e-15 9.37265e-15 0 0 1.02866e-15 3.08758e-15 2.17084e-15 1.09235e-14 0 0 -1.14115e-15 6.73445e-15 -1.69487e-15 1.23398e-14 0 0 -1.36545e-16 6.92051e-15 -3.57109e-15 1.27621e-14 0 0 1.22326e-15 6.57295e-15 -5.21296e-15 1.41696e-14 0 0 8.67424e-16 5.05956e-15 -2.75628e-15 1.32926e-14 0 0 -6.36948e-16 1.82026e-15 2.30637e-15 1.20046e-14 0 0 -1.41561e-15 5.32042e-17 4.01353e-15 1.1779e-14 0 0 4.99059e-16 -2.81814e-15 6.76668e-15 8.40234e-15 0 0 1.38217e-15 -4.69122e-15 6.09393e-15 8.27296e-15 0 0 -1.00069e-15 1.22432e-15 -2.31177e-15 1.28197e-14 0 0 -2.94938e-15 3.80932e-15 -2.74846e-15 1.0425e-14 0 0 -2.52622e-15 -1.29818e-15 6.58105e-15 -1.6629e-15 0 0 -2.01721e-15 -1.52133e-15 9.06464e-15 -9.4993e-15 0 0 -2.4844e-15 2.05468e-15 6.8705e-15 -9.33826e-15 0 0 -1.28549e-15 2.38219e-15 4.39095e-15 -9.41302e-16 0 0 -7.41013e-16 2.39938e-15 2.81401e-15 2.75964e-15 0 0 -2.52335e-15 2.37444e-15 4.0635e-15 2.73765e-15 0 0 -4.21395e-16 -2.21412e-15 1.30315e-14 -2.89582e-15 0 0 3.2434e-17 -8.32859e-16 1.57145e-14 -6.40502e-15 0 0 -3.87102e-15 5.47648e-15 8.13318e-15 2.54681e-15 0 0 -2.42582e-15 4.91336e-15 7.42021e-15 7.96609e-15 0 0 1.95441e-15 2.70968e-15 1.20008e-14 5.42947e-15 0 0 3.49071e-15 1.49436e-15 3.99059e-15 8.75204e-15 0 0 4.56089e-15 -4.29866e-16 -3.51381e-15 8.51381e-15 0 0 7.49652e-15 -3.75062e-15 -1.91041e-15 1.21981e-15 0 0 7.62421e-15 -7.3668e-15 -1.78702e-15 4.83373e-15 0 0 -2.4058e-15 1.89174e-15 1.80539e-15 2.8254e-15 0 0 -9.93265e-15 2.26385e-15 1.26121e-14 -4.00647e-15 0 0 -8.85659e-15 -6.15382e-15 1.74604e-14 -2.67222e-15 0 0 -3.02331e-15 -9.88405e-15 1.28219e-14 4.20931e-15 0 0 -4.26684e-15 -8.32477e-16 9.71742e-16 1.1383e-14 0 0 -1.80963e-15 -1.94476e-15 5.65225e-15 5.71257e-15 0 0 -9.67554e-16 -8.39655e-15 1.66334e-14 -3.19319e-15 0 0 -6.03101e-16 -7.21357e-15 1.16422e-14 -3.25457e-15 0 0 2.50798e-15 -5.66088e-15 4.07748e-15 -2.86854e-15 0 0 -6.29442e-15 5.55906e-15 -7.59618e-16 -1.22007e-14 0 0 -9.08566e-15 -5.00779e-17 1.87257e-14 -3.10308e-14 0 0 2.10395e-15 -1.39234e-14 2.58424e-14 -3.86871e-14 0 0 -1.42039e-15 -1.09116e-14 1.18103e-14 -2.6426e-14 0 0 -1.11875e-14 -7.28685e-15 1.47782e-15 -1.25866e-15 0 0 -8.18641e-15 -4.202e-15 -9.42761e-15 1.09382e-14 0 0 -8.24624e-15 3.04832e-15 -6.52137e-15 3.30271e-15 0 0 -6.07581e-15 9.23937e-15 -5.14244e-15 1.84426e-15 0 0 -3.20285e-15 2.04674e-14 -6.00496e-15 -3.88528e-15 0 0 8.89967e-16 1.57229e-14 8.01942e-15 -4.82943e-15 0 0 7.17826e-16 2.41739e-15 2.70335e-14 -1.51134e-15 0 0 -1.08556e-15 4.05217e-15 2.58835e-14 -1.48101e-14 0 0 -2.75407e-15 2.18895e-14 1.39918e-15 -2.3952e-14 0 0 9.03728e-15 2.26447e-14 -8.54842e-15 -6.28207e-15 0 0 2.32068e-14 1.21851e-16 2.06652e-16 1.98171e-14 0 0 1.19418e-14 -3.55605e-15 9.11958e-15 2.27042e-14 0 0 5.56897e-16 5.86066e-15 1.56422e-14 9.73456e-15 0 0 1.27261e-15 9.88695e-15 5.98767e-15 -3.59137e-15 0 0 1.32084e-14 -7.28245e-15 -1.56009e-14 2.59142e-15 0 0 4.37491e-15 -1.86812e-14 -6.49581e-15 4.42655e-15 0 0 -4.18345e-14 -1.37963e-14 4.34427e-15 -5.44287e-15 0 0 -4.6379e-14 -3.50173e-14 -2.04348e-14 -1.14227e-14 0 0 -1.51384e-14 -6.41313e-14 -2.22089e-14 -3.43713e-14 0 0 2.2996e-15 -4.77599e-14 -4.28456e-14 -4.20628e-14 0 0 5.20123e-15 -1.33956e-14 -6.22743e-14 -4.58814e-14 0 0 -2.72916e-15 -3.6364e-15 -4.65567e-14 -3.17832e-14 0 0 -1.13249e-14 -9.75853e-15 -3.63589e-14 9.87391e-15 0 0 -3.1082e-14 3.85184e-15 -2.72064e-14 -1.70157e-14 0 0 -5.9051e-14 3.36719e-14 -4.6964e-14 -3.31973e-14 0 0 -6.29555e-14 1.87168e-14 -4.78046e-14 2.51539e-14 0 0 -6.59082e-14 -2.20901e-14 -1.20089e-14 5.472e-14 0 0 -1.37645e-13 -1.02416e-13 7.31573e-14 1.08177e-13 0 0 -3.47701e-13 -2.27479e-13 2.2019e-13 2.87363e-13 0 0 -8.01239e-13 -4.95342e-13 5.10057e-13 7.21959e-13 0 0 -1.65419e-12 -1.0386e-12 1.0287e-12 1.58478e-12 0 0 -3.08818e-12 -1.89556e-12 1.88659e-12 3.03682e-12 0 0 -5.19623e-12 -3.189e-12 3.20025e-12 5.16326e-12 0 0 -7.8896e-12 -4.88099e-12 4.8695e-12 7.84511e-12 0 0 -1.08084e-11 -6.65579e-12 6.63011e-12 1.07566e-11 0 0 -1.30779e-11 -8.08404e-12 8.05473e-12 1.30833e-11 0 0 -1.34819e-11 -8.34922e-12 8.34306e-12 1.34895e-11 0 0 -1.03658e-11 -6.39507e-12 6.39066e-12 1.03307e-11 0 0 -1.71587e-12 -1.0847e-12 1.05695e-12 1.69709e-12 0 0 1.42865e-11 8.80106e-12 -8.84445e-12 -1.42656e-11 0 0 3.90691e-11 2.41211e-11 -2.41519e-11 -3.90587e-11 0 0 7.32787e-11 4.52808e-11 -4.52865e-11 -7.33057e-11 0 0 1.16398e-10 7.19471e-11 -7.19788e-11 -1.1639e-10 0 0 1.66358e-10 1.02811e-10 -1.02834e-10 -1.66356e-10 0 0 2.19243e-10 1.35548e-10 -1.35549e-10 -2.19255e-10 0 0 2.68846e-10 1.66214e-10 -1.6622e-10 -2.68835e-10 0 0 3.04132e-10 1.87951e-10 -1.87957e-10 -3.04158e-10 0 0 2.91557e-10 1.8151e-10 -1.81522e-10 -2.91592e-10 0 0 1.09588e-10 5.37443e-11 -5.37804e-11 -1.09605e-10 0 0 -1.97771e-10 -8.14628e-11 8.14097e-11 1.97751e-10 0 0 -3.49355e-10 -2.49462e-10 2.49428e-10 3.4935e-10 0 0 -4.63716e-10 -4.01264e-10 4.01285e-10 4.63735e-10 0 0 -8.60974e-10 -2.79005e-10 2.79084e-10 8.61027e-10 0 0 -1.40668e-09 -5.06366e-10 5.06487e-10 1.40677e-09 0 0 -1.36557e-09 -3.22985e-09 3.23e-09 1.36567e-09 0 0 -8.7912e-09 2.31551e-09 -2.31532e-09 8.79131e-09 0 0 -9.48793e-09 4.68566e-09 -4.68544e-09 9.48806e-09 0 0 3.02123e-08 -2.04889e-08 2.04894e-08 -3.02121e-08 0 0 1.60952e-08 -4.13265e-09 4.13308e-09 -1.6095e-08 0 0 1.0418e-08 4.03018e-10 -4.02612e-10 -1.04177e-08 0 0 7.58099e-09 1.47759e-09 -1.47718e-09 -7.58074e-09 0 0 5.86658e-09 1.50302e-09 -1.50261e-09 -5.86635e-09 0 0 4.65193e-09 1.28148e-09 -1.28107e-09 -4.65177e-09 0 0 3.63784e-09 1.12659e-09 -1.12626e-09 -3.63775e-09 0 0 2.72785e-09 1.05122e-09 -1.05103e-09 -2.7278e-09 0 0 1.96444e-09 9.75584e-10 -9.75516e-10 -1.96446e-09 0 0 1.37405e-09 9.01781e-10 -9.01804e-10 -1.37415e-09 0 0 9.21413e-10 8.27039e-10 -8.27123e-10 -9.21572e-10 0 0 5.86367e-10 7.13032e-10 -7.13136e-10 -5.86543e-10 0 0 3.72569e-10 5.46263e-10 -5.46388e-10 -3.72713e-10 0 0 2.44325e-10 3.54674e-10 -3.54804e-10 -2.44416e-10 0 0 1.73684e-10 1.95355e-10 -1.95462e-10 -1.73754e-10 0 0 1.31949e-10 9.16002e-11 -9.16896e-11 -1.3197e-10 0 0 1.11238e-10 4.25047e-11 -4.25798e-11 -1.11225e-10 0 0 1.10573e-10 3.73078e-11 -3.73494e-11 -1.10553e-10 0 0 1.01024e-10 4.25352e-11 -4.25332e-11 -1.00966e-10 0 0 8.44273e-11 4.30667e-11 -4.30086e-11 -8.43757e-11 0 0 9.06503e-11 5.28353e-11 -5.27356e-11 -9.05892e-11 0 0 1.18963e-10 7.29008e-11 -7.27842e-11 -1.18854e-10 0 0 1.66141e-10 1.02715e-10 -1.02581e-10 -1.66019e-10 0 0 2.21363e-10 1.36849e-10 -1.367e-10 -2.21229e-10 0 0 2.72061e-10 1.68124e-10 -1.67969e-10 -2.71902e-10 0 0 3.18043e-10 1.96523e-10 -1.96362e-10 -3.179e-10 0 0 3.61258e-10 2.23228e-10 -2.23062e-10 -3.61128e-10 0 0 4.05637e-10 2.50588e-10 -2.50422e-10 -4.05493e-10 0 0 4.57178e-10 2.82407e-10 -2.8226e-10 -4.57011e-10 0 0 5.05688e-10 3.12526e-10 -3.12347e-10 -5.05539e-10 0 0 5.17075e-10 3.19681e-10 -3.19452e-10 -5.16951e-10 0 0 4.93347e-10 3.0503e-10 -3.04837e-10 -4.93162e-10 0 0 4.60258e-10 2.84649e-10 -2.84433e-10 -4.60129e-10 0 0 4.1268e-10 2.55276e-10 -2.55027e-10 -4.12701e-10 0 0 3.54434e-10 2.19349e-10 -2.19127e-10 -3.54479e-10 0 0 2.87451e-10 1.77999e-10 -1.77815e-10 -2.8745e-10 0 0 2.18389e-10 1.35271e-10 -1.35104e-10 -2.18381e-10 0 0 1.54234e-10 9.55373e-11 -9.54584e-11 -1.54154e-10 0 0 9.96937e-11 6.18073e-11 -6.18315e-11 -9.95251e-11 0 0 5.36488e-11 3.33121e-11 -3.33343e-11 -5.3491e-11 0 0 2.02491e-11 1.26231e-11 -1.26532e-11 -2.01866e-11 0 0 -2.84531e-12 -1.65311e-12 1.63715e-12 2.82947e-12 0 0 -1.66615e-11 -1.02123e-11 1.02015e-11 1.66646e-11 0 0 -2.04652e-11 -1.2607e-11 1.25589e-11 2.04799e-11 0 0 -1.71353e-11 -1.06238e-11 1.05855e-11 1.71106e-11 0 0 -1.08703e-11 -6.75539e-12 6.72269e-12 1.08172e-11 0 0 -5.20862e-12 -3.25064e-12 3.18658e-12 5.18166e-12 0 0 -1.86627e-12 -1.20451e-12 1.11561e-12 1.82765e-12 0 0 -5.14217e-13 -3.75547e-13 2.82092e-13 4.64168e-13 0 0 -1.30015e-13 -1.1471e-13 1.42287e-14 1.02909e-13 0 0 -4.17676e-14 -6.17546e-14 -4.49722e-14 2.32096e-15 0 0 -6.84949e-15 -5.87634e-14 -4.73272e-14 -5.22031e-14 0 0 -7.78948e-15 -3.92788e-14 -6.16578e-14 -6.46791e-14 0 0 -6.56258e-15 -3.54078e-14 -5.46635e-14 -7.58745e-14 0 0 -1.21723e-15 -1.43925e-14 -6.91207e-14 -7.3937e-14 0 0 -8.71865e-15 1.73105e-14 -9.61954e-14 -7.87655e-14 0 0 5.91152e-15 -6.08954e-15 -6.75101e-14 -9.89364e-14 0 0 1.73448e-14 -2.30256e-14 -4.0946e-14 -9.41263e-14 0 0 4.29487e-15 -1.96676e-14 -2.58501e-14 -9.98557e-14 0 0 -1.56527e-14 -1.17369e-14 -1.80331e-14 -9.83657e-14 0 0 -2.21796e-14 -1.67143e-14 -1.16048e-14 -9.70164e-14 0 0 -9.33176e-15 -4.3166e-14 -3.37911e-15 -7.81367e-14 0 0 4.71473e-15 -5.00014e-14 -3.97197e-14 -1.0335e-14 0 0 3.2166e-15 -3.78118e-14 -8.07423e-14 3.4166e-14 0 0 -2.38031e-14 5.48265e-16 -1.13358e-13 3.07865e-14 0 0 -4.00951e-14 3.38669e-14 -1.28472e-13 1.84689e-14 0 0 -1.79669e-14 1.75121e-14 -1.12413e-13 2.7913e-14 0 0 6.79482e-16 -1.43411e-14 -8.12285e-14 2.47654e-14 0 0 1.46921e-14 -3.89309e-14 -2.04132e-14 -2.8213e-14 0 0 1.26502e-14 -2.77255e-14 -1.24161e-14 -5.13339e-14 0 0 -3.43897e-14 5.70207e-14 -9.71225e-14 2.83476e-15 0 0 -4.18542e-14 1.12406e-13 -1.45873e-13 -3.74083e-15 0 0 2.35721e-14 5.92064e-14 -8.90712e-14 -4.51007e-14 0 0 6.1545e-14 -5.58149e-15 1.39274e-14 -5.4544e-14 0 0 4.79805e-14 -6.78081e-15 3.08696e-14 1.12251e-14 0 0 7.17845e-14 -2.45399e-14 -1.6603e-14 1.37489e-13 0 0 1.10276e-13 -3.27933e-14 -2.03924e-14 1.53644e-13 0 0 4.67755e-14 2.24334e-14 2.58474e-14 8.423e-14 0 0 -6.52829e-15 1.38115e-14 9.5001e-14 2.20836e-14 0 0 2.26727e-14 -1.52133e-14 5.87518e-14 2.43086e-14 0 0 -5.95813e-15 5.3662e-14 -5.79313e-14 6.58969e-14 0 0 -2.35946e-14 5.5154e-14 -5.49643e-14 5.14165e-14 0 0 1.52287e-14 -2.92051e-14 4.73627e-14 -1.081e-14 0 0 3.02862e-14 -3.13827e-14 2.55816e-14 4.23163e-14 0 0 1.97037e-14 2.83003e-14 -6.0547e-14 1.33536e-13 0 0 2.13848e-14 4.5336e-14 -1.05115e-13 1.67184e-13 0 0 -4.13095e-15 7.50323e-14 -1.65376e-13 1.63025e-13 0 0 4.42949e-14 2.27957e-14 -1.46156e-13 9.19098e-14 0 0 1.26494e-13 -6.97017e-14 -7.8429e-14 1.8832e-14 0 0 6.91253e-14 -4.59932e-14 -3.91237e-14 -4.3745e-15 0 0 8.69839e-15 -1.99071e-14 -2.99129e-14 1.28342e-14 0 0 1.26374e-14 -1.62544e-14 -4.03107e-14 1.65572e-14 0 0 4.4835e-14 -2.87606e-14 -1.95918e-14 -2.41072e-14 0 0 6.2477e-14 -1.54534e-14 -3.00424e-14 -4.15526e-14 0 0 3.67052e-14 6.09701e-14 -5.46033e-14 -6.45468e-14 0 0 4.43968e-14 5.91187e-14 4.31764e-14 -1.36492e-13 0 0 7.10479e-14 9.36413e-15 1.06554e-13 -1.27542e-13 0 0 5.97541e-14 -1.86151e-15 6.20611e-14 -3.34016e-14 0 0 4.87796e-14 3.28661e-15 2.12674e-14 4.67487e-15 0 0 0 0 0 0 0
				</DataArray>
				<DataArray Name="VitesseY" type="Float32" format="ascii">