<?xml version="1.0"?>
<VTKFile type="PolyData">
	<PolyData>
		<Piece NumberOfPoints="1206" NumberOfPolys="1000">
			<Points>
				<DataArray type="Float32" NumberOfComponents="3" format="ascii">
 0 0 0 0.02 0 0 0.04 0 0 0.06 0 0 0.08 0 0 0.1 0 0 0 0.005 0 0.02 0.005 0 0.04 0.005 0 0.06 0.005 0 0.08 0.005 0 0.1 0.005 0 0 0.01 0 0.02 0.01 0 0.04 0.01 0 0.06 0.01 0 0.08 0.01 0 0.1 0.01 0 0 0.015 0 0.02 0.015 0 0.04 0.015 0 0.06 0.015 0 0.08 0.015 0 0.1 0.015 0 0 0.02 0 0.02 0.02 0 0.04 0.02 0 0.06 0.02 0 0.08 0.02 0 0.1 0.02 0 0 0.025 0 0.02 0.025 0 0.04 0.025 0 0.06 0.025 0 0.08 0.025 0 0.1 0.025 0 0 0.03 0 0.02 0.03 0 0.04 0.03 0 0.06 0.03 0 0.08 0.03 0 0.1 0.03 0 0 0.035 0 0.02 0.035 0 0.04 0.035 0 0.06 0.035 0 0.08 0.035 0 0.1 0.035 0 0 0.04 0 0.02 0.04 0 0.04 0.04 0 0.06 0.04 0 0.08 0.04 0 0.1 0.04 0 0 0.045 0 0.02 0.045 0 0.04 0.045 0 0.06 0.045 0 0.08 0.045 0 0.1 0.045 0 0 0.05 0 0.02 0.05 0 0.04 0.05 0 0.06 0.05 0 0.08 0.05 0 0.1 0.05 0 0 0.055 0 0.02 0.055 0 0.04 0.055 0 0.06 0.055 0 0.08 0.055 0 0.1 0.055 0 0 0.06 0 0.02 0.06 0 0.04 0.06 0 0.06 0.06 0 0.08 0.06 0 0.1 0.06 0 0 0.065 0 0.02 0.065 0 0.04 0.065 0 0.06 0.065 0 0.08 0.065 0 0.1 0.065 0 0 0.07 0 0.02 0.07 0 0.04 0.07 0 0.06 0.07 0 0.08 0.07 0 0.1 0.07 0 0 0.075 0 0.02 0.075 0 0.04 0.075 0 0.06 0.075 0 0.08 0.075 0 0.1 0.075 0 0 0.08 0 0.02 0.08 0 0.04 0.08 0 0.06 0.08 0 0.08 0.08 0 0.1 0.08 0 0 0.085 0 0.02 0.085 0 0.04 0.085 0 0.06 0.085 0 0.08 0.085 0 0.1 0.085 0 0 0.09 0 0.02 0.09 0 0.04 0.09 0 0.06 0.09 0 0.08 0.09 0 0.1 0.09 0 0 0.095 0 0.02 0.095 0 0.04 0.095 0 0.06 0.095 0 0.08 0.095 0 0.1 0.095 0 0 0.1 0 0.02 0.1 0 0.04 0.1 0 0.06 0.1 0 0.08 0.1 0 0.1 0.1 0 0 0.105 0 0.02 0.105 0 0.04 0.105 0 0.06 0.105 0 0.08 0.105 0 0.1 0.105 0 0 0.11 0 0.02 0.11 0 0.04 0.11 0 0.06 0.11 0 0.08 0.11 0 0.1 0.11 0 0 0.115 0 0.02 0.115 0 0.04 0.115 0 0.06 0.115 0 0.08 0.115 0 0.1 0.115 0 0 0.12 0 0.02 0.12 0 0.04 0.12 0 0.06 0.12 0 0.08 0.12 0 0.1 0.12 0 0 0.125 0 0.02 0.125 0 0.04 0.125 0 0.06 0.125 0 0.08 0.125 0 0.1 0.125 0 0 0.13 0 0.02 0.13 0 0.04 0.13 0 0.06 0.13 0 0.08 0.13 0 0.1 0.13 0 0 0.135 0 0.02 0.135 0 0.04 0.135 0 0.06 0.135 0 0.08 0.135 0 0.1 0.135 0 0 0.14 0 0.02 0.14 0 0.04 0.14 0 0.06 0.14 0 0.08 0.14 0 0.1 0.14 0 0 0.145 0 0.02 0.145 0 0.04 0.145 0 0.06 0.145 0 0.08 0.145 0 0.1 0.145 0 0 0.15 0 0.02 0.15 0 0.04 0.15 0 0.06 0.15 0 0.08 0.15 0 0.1 0.15 0 0 0.155 0 0.02 0.155 0 0.04 0.155 0 0.06 0.155 0 0.08 0.155 0 0.1 0.155 0 0 0.16 0 0.02 0.16 0 0.04 0.16 0 0.06 0.16 0 0.08 0.16 0 0.1 0.16 0 0 0.165 0 0.02 0.165 0 0.04 0.165 0 0.06 0.165 0 0.08 0.165 0 0.1 0.165 0 0 0.17 0 0.02 0.17 0 0.04 0.17 0 0.06 0.17 0 0.08 0.17 0 0.1 0.17 0 0 0.175 0 0.02 0.175 0 0.04 0.175 0 0.06 0.175 0 0.08 0.175 0 0.1 0.175 0 0 0.18 0 0.02 0.18 0 0.04 0.18 0 0.06 0.18 0 0.08 0.18 0 0.1 0.18 0 0 0.185 0 0.02 0.185 0 0.04 0.185 0 0.06 0.185 0 0.08 0.185 0 0.1 0.185 0 0 0.19 0 0.02 0.19 0 0.04 0.19 0 0.06 0.19 0 0.08 0.19 0 0.1 0.19 0 0 0.195 0 0.02 0.195 0 0.04 0.195 0 0.06 0.195 0 0.08 0.195 0 0.1 0.195 0 0 0.2 0 0.02 0.2 0 0.04 0.2 0 0.06 0.2 0 0.08 0.2 0 0.1 0.2 0 0 0.205 0 0.02 0.205 0 0.04 0.205 0 0.06 0.205 0 0.08 0.205 0 0.1 0.205 0 0 0.21 0 0.02 0.21 0 0.04 0.21 0 0.06 0.21 0 0.08 0.21 0 0.1 0.21 0 0 0.215 0 0.02 0.215 0 0.04 0.215 0 0.06 0.215 0 0.08 0.215 0 0.1 0.215 0 0 0.22 0 0.02 0.22 0 0.04 0.22 0 0.06 0.22 0 0.08 0.22 0 0.1 0.22 0 0 0.225 0 0.02 0.225 0 0.04 0.225 0 0.06 0.225 0 0.08 0.225 0 0.1 0.225 0 0 0.23 0 0.02 0.23 0 0.04 0.23 0 0.06 0.23 0 0.08 0.23 0 0.1 0.23 0 0 0.235 0 0.02 0.235 0 0.04 0.235 0 0.06 0.235 0 0.08 0.235 0 0.1 0.235 0 0 0.24 0 0.02 0.24 0 0.04 0.24 0 0.06 0.24 0 0.08 0.24 0 0.1 0.24 0 0 0.245 0 0.02 0.245 0 0.04 0.245 0 0.06 0.245 0 0.08 0.245 0 0.1 0.245 0 0 0.25 0 0.02 0.25 0 0.04 0.25 0 0.06 0.25 0 0.08 0.25 0 0.1 0.25 0 0 0.255 0 0.02 0.255 0 0.04 0.255 0 0.06 0.255 0 0.08 0.255 0 0.1 0.255 0 0 0.26 0 0.02 0.26 0 0.04 0.26 0 0.06 0.26 0 0.08 0.26 0 0.1 0.26 0 0 0.265 0 0.02 0.265 0 0.04 0.265 0 0.06 0.265 0 0.08 0.265 0 0.1 0.265 0 0 0.27 0 0.02 0.27 0 0.04 0.27 0 0.06 0.27 0 0.08 0.27 0 0.1 0.27 0 0 0.275 0 0.02 0.275 0 0.04 0.275 0 0.06 0.275 0 0.08 0.275 0 0.1 0.275 0 0 0.28 0 0.02 0.28 0 0.04 0.28 0 0.06 0.28 0 0.08 0.28 0 0.1 0.28 0 0 0.285 0 0.02 0.285 0 0.04 0.285 0 0.06 0.285 0 0.08 0.285 0 0.1 0.285 0 0 0.29 0 0.02 0.29 0 0.04 0.29 0 0.06 0.29 0 0.08 0.29 0 0.1 0.29 0 0 0.295 0 0.02 0.295 0 0.04 0.295 0 0.06 0.295 0 0.08 0.295 0 0.1 0.295 0 0 0.3 0 0.02 0.3 0 0.04 0.3 0 0.06 0.3 0 0.08 0.3 0 0.1 0.3 0 0 0.305 0 0.02 0.305 0 0.04 0.305 0 0.06 0.305 0 0.08 0.305 0 0.1 0.305 0 0 0.31 0 0.02 0.31 0 0.04 0.31 0 0.06 0.31 0 0.08 0.31 0 0.1 0.31 0 0 0.315 0 0.02 0.315 0 0.04 0.315 0 0.06 0.315 0 0.08 0.315 0 0.1 0.315 0 0 0.32 0 0.02 0.32 0 0.04 0.32 0 0.06 0.32 0 0.08 0.32 0 0.1 0.32 0 0 0.325 0 0.02 0.325 0 0.04 0.325 0 0.06 0.325 0 0.08 0.325 0 0.1 0.325 0 0 0.33 0 0.02 0.33 0 0.04 0.33 0 0.06 0.33 0 0.08 0.33 0 0.1 0.33 0 0 0.335 0 0.02 0.335 0 0.04 0.335 0 0.06 0.335 0 0.08 0.335 0 0.1 0.335 0 0 0.34 0 0.02 0.34 0 0.04 0.34 0 0.06 0.34 0 0.08 0.34 0 0.1 0.34 0 0 0.345 0 0.02 0.345 0 0.04 0.345 0 0.06 0.345 0 0.08 0.345 0 0.1 0.345 0 0 0.35 0 0.02 0.35 0 0.04 0.35 0 0.06 0.35 0 0.08 0.35 0 0.1 0.35 0 0 0.355 0 0.02 0.355 0 0.04 0.355 0 0.06 0.355 0 0.08 0.355 0 0.1 0.355 0 0 0.36 0 0.02 0.36 0 0.04 0.36 0 0.06 0.36 0 0.08 0.36 0 0.1 0.36 0 0 0.365 0 0.02 0.365 0 0.04 0.365 0 0.06 0.365 0 0.08 0.365 0 0.1 0.365 0 0 0.37 0 0.02 0.37 0 0.04 0.37 0 0.06 0.37 0 0.08 0.37 0 0.1 0.37 0 0 0.375 0 0.02 0.375 0 0.04 0.375 0 0.06 0.375 0 0.08 0.375 0 0.1 0.375 0 0 0.38 0 0.02 0.38 0 0.04 0.38 0 0.06 0.38 0 0.08 0.38 0 0.1 0.38 0 0 0.385 0 0.02 0.385 0 0.04 0.385 0 0.06 0.385 0 0.08 0.385 0 0.1 0.385 0 0 0.39 0 0.02 0.39 0 0.04 0.39 0 0.06 0.39 0 0.08 0.39 0 0.1 0.39 0 0 0.395002 0 0.02 0.395002 0 0.04 0.395002 0 0.06 0.395002 0 0.08 0.395002 0 0.1 0.395002 0 0 0.400007 0 0.02 0.400007 0 0.04 0.400007 0 0.06 0.400007 0 0.08 0.400007 0 0.1 0.400007 0 0 0.405027 0 0.02 0.405027 0 0.04 0.405027 0 0.06 0.405027 0 0.08 0.405027 0 0.1 0.405027 0 0 0.410084 0 0.02 0.410084 0 0.04 0.410084 0 0.06 0.410084 0 0.08 0.410084 0 0.1 0.410084 0 0 0.41522 0 0.02 0.41522 0 0.04 0.41522 0 0.06 0.41522 0 0.08 0.41522 0 0.1 0.41522 0 0 0.420495 0 0.02 0.420495 0 0.04 0.420495 0 0.06 0.420495 0 0.08 0.420495 0 0.1 0.420495 0 0 0.425972 0 0.02 0.425972 0 0.04 0.425972 0 0.06 0.425972 0 0.08 0.425972 0 0.1 0.425972 0 0 0.431709 0 0.02 0.431709 0 0.04 0.431709 0 0.06 0.431709 0 0.08 0.431709 0 0.1 0.431709 0 0 0.43776 0 0.02 0.43776 0 0.04 0.43776 0 0.06 0.43776 0 0.08 0.43776 0 0.1 0.43776 0 0 0.444178 0 0.02 0.444178 0 0.04 0.444178 0 0.06 0.444178 0 0.08 0.444178 0 0.1 0.444178 0 0 0.451025 0 0.02 0.451025 0 0.04 0.451025 0 0.06 0.451025 0 0.08 0.451025 0 0.1 0.451025 0 0 0.458372 0 0.02 0.458372 0 0.04 0.458372 0 0.06 0.458372 0 0.08 0.458372 0 0.1 0.458372 0 0 0.466308 0 0.02 0.466308 0 0.04 0.466308 0 0.06 0.466308 0 0.08 0.466308 0 0.1 0.466308 0 0 0.474945 0 0.02 0.474945 0 0.04 0.474945 0 0.06 0.474945 0 0.08 0.474945 0 0.1 0.474945 0 0 0.484418 0 0.02 0.484418 0 0.04 0.484418 0 0.06 0.484418 0 0.08 0.484418 0 0.1 0.484418 0 0 0.494878 0 0.02 0.494878 0 0.04 0.494878 0 0.06 0.494878 0 0.08 0.494878 0 0.1 0.494878 0 0 0.506423 0 0.02 0.506423 0 0.04 0.506423 0 0.06 0.506423 0 0.08 0.506423 0 0.1 0.506423 0 0 0.518756 0 0.02 0.518756 0 0.04 0.518756 0 0.06 0.518756 0 0.08 0.518756 0 0.1 0.518756 0 0 0.530987 0 0.02 0.530987 0 0.04 0.530987 0 0.06 0.530987 0 0.08 0.530987 0 0.1 0.530987 0 0 0.542971 0 0.02 0.542971 0 0.04 0.542971 0 0.06 0.542971 0 0.08 0.542971 0 0.1 0.542971 0 0 0.554798 0 0.02 0.554798 0 0.04 0.554798 0 0.06 0.554798 0 0.08 0.554798 0 0.1 0.554798 0 0 0.566589 0 0.02 0.566589 0 0.04 0.566589 0 0.06 0.566589 0 0.08 0.566589 0 0.1 0.566589 0 0 0.569205 0 0.02 0.569205 0 0.04 0.569205 0 0.06 0.569205 0 0.08 0.569205 0 0.1 0.569205 0 0 0.571747 0 0.02 0.571747 0 0.04 0.571747 0 0.06 0.571747 0 0.08 0.571747 0 0.1 0.571747 0 0 0.574243 0 0.02 0.574243 0 0.04 0.574243 0 0.06 0.574243 0 0.08 0.574243 0 0.1 0.574243 0 0 0.576708 0 0.02 0.576708 0 0.04 0.576708 0 0.06 0.576708 0 0.08 0.576708 0 0.1 0.576708 0 0 0.579152 0 0.02 0.579152 0 0.04 0.579152 0 0.06 0.579152 0 0.08 0.579152 0 0.1 0.579152 0 0 0.58158 0 0.02 0.58158 0 0.04 0.58158 0 0.06 0.58158 0 0.08 0.58158 0 0.1 0.58158 0 0 0.584 0 0.02 0.584 0 0.04 0.584 0 0.06 0.584 0 0.08 0.584 0 0.1 0.584 0 0 0.586417 0 0.02 0.586417 0 0.04 0.586417 0 0.06 0.586417 0 0.08 0.586417 0 0.1 0.586417 0 0 0.588835 0 0.02 0.588835 0 0.04 0.588835 0 0.06 0.588835 0 0.08 0.588835 0 0.1 0.588835 0 0 0.591239 0 0.02 0.591239 0 0.04 0.591239 0 0.06 0.591239 0 0.08 0.591239 0 0.1 0.591239 0 0 0.593632 0 0.02 0.593632 0 0.04 0.593632 0 0.06 0.593632 0 0.08 0.593632 0 0.1 0.593632 0 0 0.596022 0 0.02 0.596022 0 0.04 0.596022 0 0.06 0.596022 0 0.08 0.596022 0 0.1 0.596022 0 0 0.598409 0 0.02 0.598409 0 0.04 0.598409 0 0.06 0.598409 0 0.08 0.598409 0 0.1 0.598409 0 0 0.600798 0 0.02 0.600798 0 0.04 0.600798 0 0.06 0.600798 0 0.08 0.600798 0 0.1 0.600798 0 0 0.603185 0 0.02 0.603185 0 0.04 0.603185 0 0.06 0.603185 0 0.08 0.603185 0 0.1 0.603185 0 0 0.605568 0 0.02 0.605568 0 0.04 0.605568 0 0.06 0.605568 0 0.08 0.605568 0 0.1 0.605568 0 0 0.607945 0 0.02 0.607945 0 0.04 0.607945 0 0.06 0.607945 0 0.08 0.607945 0 0.1 0.607945 0 0 0.610328 0 0.02 0.610328 0 0.04 0.610328 0 0.06 0.610328 0 0.08 0.610328 0 0.1 0.610328 0 0 0.612742 0 0.02 0.612742 0 0.04 0.612742 0 0.06 0.612742 0 0.08 0.612742 0 0.1 0.612742 0 0 0.615196 0 0.02 0.615196 0 0.04 0.615196 0 0.06 0.615196 0 0.08 0.615196 0 0.1 0.615196 0 0 0.617724 0 0.02 0.617724 0 0.04 0.617724 0 0.06 0.617724 0 0.08 0.617724 0 0.1 0.617724 0 0 0.620334 0 0.02 0.620334 0 0.04 0.620334 0 0.06 0.620334 0 0.08 0.620334 0 0.1 0.620334 0 0 0.623097 0 0.02 0.623097 0 0.04 0.623097 0 0.06 0.623097 0 0.08 0.623097 0 0.1 0.623097 0 0 0.62604 0 0.02 0.62604 0 0.04 0.62604 0 0.06 0.62604 0 0.08 0.62604 0 0.1 0.62604 0 0 0.629249 0 0.02 0.629249 0 0.04 0.629249 0 
[...]
			<PointData Scalars="VitesseX">
				<DataArray Name="VitesseX" type="Float32" format="ascii">
 0 0 0 0 0 0 0 -2.01314e-15 -8.97263e-16 3.60958e-15 1.36747e-15 0 0 -8.48326e-16 -1.06681e-15 3.58782e-15 1.0226e-15 0 0 -1.43891e-16 -5.9425e-16 3.40008e-15 8.80402e-16 0 0 -7.54704e-16 1.07331e-16 4.95055e-15 6.52462e-16 0 0 -1.39958e-15 2.03485e-16 7.37394e-15 1.83316e-15 0 0 1.72553e-16 -5.22308e-16 7.14704e-15 4.02837e-15 0 0 1.17068e-15 1.1101e-15 3.7534e-15 7.91653e-15 0 0 7.89485e-16 2.37704e-15 2.28642e-15 8.901e-15 0 0 1.24183e-15 -3.55396e-16 4.50895e-15 6.09202e-15 0 0 3.93482e-16 8.91069e-16 2.2497e-15 7.23731e-15 0 0 -2.77361e-15 4.29055e-15 6.63305e-16 7.87755e-15 0 0 -1.3369e-15 2.32907e-15 1.14283e-15 8.15037e-15 0 0 -7.60256e-16 4.88542e-15 -3.90859e-15 1.14769e-14 0 0 1.0466e-15 1.17294e-15 1.10796e-15 8.54936e-15 0 0 3.99356e-15 -1.89076e-15 4.00918e-15 3.85994e-15 0 0 6.17868e-16 2.99418e-15 3.83571e-15 -1.36248e-15 0 0 -1.24067e-15 3.98484e-15 7.03479e-15 -5.9734e-15 0 0 1.82294e-16 2.98033e-15 4.85393e-15 -5.37585e-15 0 0 4.12079e-15 -1.2123e-15 3.344e-15 -3.42798e-15 0 0 3.85834e-15 1.52019e-15 -6.30615e-16 1.28035e-15 0 0 1.44076e-15 8.18497e-15 -6.03543e-15 3.2479e-15 0 0 3.93282e-15 7.718e-15 -1.03373e-14 4.35339e-15 0 0 2.09573e-15 8.34081e-15 -1.44507e-14 6.52763e-15 0 0 -1.75646e-15 7.84249e-15 -9.08201e-15 3.67053e-15 0 0 1.85063e-15 -1.62646e-15 5.37022e-15 -6.05347e-15 0 0 7.15018e-15 -6.86941e-15 6.3358e-15 -8.12881e-15 0 0 -3.6482e-16 9.24708e-15 -7.30063e-15 -4.60606e-15 0 0 -1.24739e-15 9.20076e-15 -3.32494e-15 -1.2139e-14 0 0 -2.90124e-15 1.50768e-15 4.0074e-16 -9.9578e-15 0 0 -4.59056e-15 -1.20998e-15 -2.6068e-15 3.34795e-15 0 0 1.89848e-15 -5.80633e-15 4.19379e-15 4.99711e-15 0 0 -1.73409e-16 -1.0877e-15 6.21283e-15 1.01452e-15 0 0 -7.23671e-15 6.89428e-15 -9.23815e-16 6.6839e-15 0 0 -2.3515e-15 2.58624e-15 2.65348e-15 9.36305e-15 0 0 3.46837e-15 1.61099e-15 3.10931e-15 7.39118e-15 0 0 7.46709e-15 5.94228e-15 -1.03279e-15 1.21283e-14 0 0 8.17273e-15 9.23209e-15 3.11351e-15 2.26974e-14 0 0 4.12728e-15 1.78432e-14 7.87122e-15 1.41176e-14 0 0 1.1436e-14 1.14005e-14 1.46887e-14 -5.95772e-15 0 0 6.72352e-15 1.17471e-14 1.1365e-14 -4.97515e-15 0 0 6.0591e-15 1.17897e-14 9.51256e-15 -2.49025e-15 0 0 3.33833e-15 1.18715e-14 1.17171e-14 3.41997e-15 0 0 3.7957e-15 4.2869e-15 1.63111e-14 1.28704e-14 0 0 1.03047e-14 8.31565e-16 1.53321e-14 5.72267e-15 0 0 9.08141e-15 9.60539e-15 5.2685e-15 1.07633e-15 0 0 1.39767e-14 7.22281e-15 -2.19685e-15 5.10671e-15 0 0 1.58021e-14 1.8445e-15 -1.35714e-15 2.19365e-15 0 0 8.74431e-15 9.9161e-15 -7.48022e-15 -2.92989e-16 0 0 7.46933e-15 1.0191e-14 3.25374e-15 -5.53552e-15 0 0 9.01273e-15 -5.39876e-15 2.95728e-14 -1.08334e-14 0 0 5.01193e-15 -1.20748e-14 4.45273e-14 -1.48131e-14 0 0 -2.70638e-15 6.39156e-15 1.75672e-14 1.49729e-15 0 0 1.34416e-15 1.41022e-14 -9.87391e-15 1.52917e-14 0 0 -2.06626e-15 7.07461e-15 6.51235e-15 1.81912e-15 0 0 -1.51644e-14 1.30439e-14 1.90506e-15 1.28434e-14 0 0 -3.88079e-15 -6.02746e-15 9.59808e-15 2.12266e-14 0 0 -9.21419e-15 -8.94996e-15 2.21669e-14 1.92745e-14 0 0 -8.6975e-15 -5.57926e-15 1.92381e-14 8.14195e-15 0 0 1.82235e-15 -6.01432e-15 1.45553e-14 -9.67292e-16 0 0 -5.71281e-15 1.32405e-14 -1.46045e-15 3.91589e-15 0 0 5.14593e-16 8.42418e-15 -2.00308e-15 7.38521e-15 0 0 -9.02611e-16 1.32594e-14 3.46078e-15 3.55885e-15 0 0 1.54454e-15 6.05832e-15 1.79852e-14 -5.0823e-15 0 0 1.49583e-14 -1.40244e-14 2.93996e-14 -9.52004e-15 0 0 1.39406e-14 2.4043e-15 1.85207e-14 -1.10613e-14 0 0 8.70939e-15 1.86909e-14 6.741e-15 1.71474e-15 0 0 1.75385e-14 1.60446e-14 -6.82951e-16 2.85008e-14 0 0 1.16391e-14 4.31488e-14 4.51979e-16 1.03257e-14 0 0 -5.57747e-15 6.3863e-14 3.5485e-15 2.66615e-15 0 0 1.33011e-14 2.01204e-14 1.1977e-14 2.17338e-14 0 0 1.76145e-15 -2.10423e-14 4.39225e-14 2.27371e-14 0 0 -7.45633e-15 -2.81143e-14 3.90306e-14 2.07601e-14 0 0 1.54999e-14 -3.68218e-14 2.21946e-14 -2.20413e-14 0 0 1.2383e-14 -4.10349e-14 1.9924e-14 -3.57128e-14 0 0 -3.29201e-15 -1.53835e-15 -9.8325e-15 -3.41667e-14 0 0 1.1979e-14 2.04273e-14 -2.44138e-14 -2.86055e-14 0 0 2.49995e-14 -9.93467e-15 -2.41086e-14 -1.93095e-14 0 0 -7.76081e-15 -3.73882e-15 -3.53231e-14 -1.89314e-14 0 0 -9.71895e-15 6.50893e-15 -2.14655e-14 -1.35399e-14 0 0 -4.17431e-14 -3.37835e-14 2.53037e-14 1.00097e-14 0 0 -2.27284e-13 -1.45936e-13 1.26511e-13 1.97969e-13 0 0 -8.84779e-13 -5.68628e-13 5.38629e-13 9.00874e-13 0 0 -3.16298e-12 -1.96174e-12 1.93431e-12 3.18318e-12 0 0 -9.22456e-12 -5.69173e-12 5.67583e-12 9.23644e-12 0 0 -2.24349e-11 -1.3895e-11 1.38752e-11 2.24474e-11 0 0 -4.67512e-11 -2.89528e-11 2.89165e-11 4.67694e-11 0 0 -8.49883e-11 -5.25384e-11 5.25268e-11 8.498e-11 0 0 -1.36741e-10 -8.45414e-11 8.45458e-11 1.36729e-10 0 0 -1.96627e-10 -1.21584e-10 1.2157e-10 1.9663e-10 0 0 -2.52873e-10 -1.56374e-10 1.5638e-10 2.52859e-10 0 0 -2.87358e-10 -1.77802e-10 1.77804e-10 2.87361e-10 0 0 -2.77067e-10 -1.71531e-10 1.71523e-10 2.77076e-10 0 0 -1.9695e-10 -1.21866e-10 1.21874e-10 1.96949e-10 0 0 -2.53781e-11 -2.17226e-11 2.17536e-11 2.5383e-11 0 0 1.59919e-10 1.90551e-10 -1.90506e-10 -1.59908e-10 0 0 4.56759e-10 -4.14735e-10 4.14848e-10 -4.56693e-10 0 0 -1.13555e-09 7.12558e-10 -7.12318e-10 1.13569e-09 0 0 -1.39193e-09 -2.15685e-09 2.1571e-09 1.39207e-09 0 0 -7.8308e-09 1.1549e-09 -1.15481e-09 7.83085e-09 0 0 -8.6924e-09 3.5802e-09 -3.58028e-09 8.69237e-09 0 0 3.24311e-08 -2.35137e-08 2.35135e-08 -3.24313e-08 0 0 1.81927e-08 -7.01937e-09 7.01909e-09 -1.81929e-08 0 0 1.22281e-08 -2.13948e-09 2.1392e-09 -1.22283e-08 0 0 8.95288e-09 -5.29271e-10 5.28968e-10 -8.95307e-09 0 0 6.65732e-09 2.2203e-10 -2.22349e-10 -6.65747e-09 0 0 4.77803e-09 8.12697e-10 -8.12943e-10 -4.77813e-09 0 0 3.17945e-09 1.34873e-09 -1.34882e-09 -3.17947e-09 0 0 1.98248e-09 1.56353e-09 -1.56335e-09 -1.98236e-09 0 0 1.22287e-09 1.35803e-09 -1.35758e-09 -1.22259e-09 0 0 7.29322e-10 9.67981e-10 -9.67297e-10 -7.28871e-10 0 0 3.52095e-10 5.28839e-10 -5.28008e-10 -3.51538e-10 0 0 -4.24852e-12 1.26397e-10 -1.255e-10 4.85029e-12 0 0 -3.30689e-10 -1.76099e-10 1.76988e-10 3.31351e-10 0 0 -6.19681e-10 -3.86487e-10 3.87368e-10 6.20347e-10 0 0 -8.63539e-10 -5.42148e-10 5.43013e-10 8.64191e-10 0 0 -1.06112e-09 -6.62003e-10 6.62833e-10 1.06177e-09 0 0 -1.17539e-09 -7.30329e-10 7.31159e-10 1.17596e-09 0 0 -1.20624e-09 -7.48027e-10 7.48864e-10 1.20677e-09 0 0 -1.16201e-09 -7.19899e-10 7.20715e-10 1.16256e-09 0 0 -1.05086e-09 -6.50627e-10 6.51417e-10 1.05141e-09 0 0 -8.93963e-10 -5.53251e-10 5.54012e-10 8.94524e-10 0 0 -7.11414e-10 -4.40124e-10 4.40859e-10 7.11941e-10 0 0 -5.21432e-10 -3.22449e-10 3.23177e-10 5.2186e-10 0 0 -3.43194e-10 -2.12147e-10 2.12824e-10 3.43581e-10 0 0 -1.92649e-10 -1.19012e-10 1.19604e-10 1.92993e-10 0 0 -8.31486e-11 -5.12793e-11 5.1774e-11 8.34217e-11 0 0 -1.8729e-11 -1.14775e-11 1.1847e-11 1.89281e-11 0 0 6.90612e-12 4.34696e-12 -4.09732e-12 -6.76224e-12 0 0 9.58101e-12 5.96578e-12 -5.82193e-12 -9.48523e-12 0 0 5.16747e-12 3.22184e-12 -3.15892e-12 -5.11285e-12 0 0 1.81542e-12 1.12913e-12 -1.10125e-12 -1.78159e-12 0 0 4.97706e-13 2.85466e-13 -2.69626e-13 -4.90225e-13 0 0 1.09294e-13 5.05138e-14 -4.42714e-14 -1.05395e-13 0 0 1.26909e-14 2.93405e-15 -6.24175e-15 -3.2905e-15 0 0 -3.78688e-15 -3.06036e-15 -8.92863e-15 -6.13264e-16 0 0 -1.83163e-14 -2.5608e-15 3.80553e-16 8.75837e-15 0 0 -1.94274e-14 -3.63213e-15 9.89515e-15 -7.79487e-15 0 0 -3.84863e-15 -1.47867e-14 1.83337e-14 -1.08902e-14 0 0 6.89103e-15 -1.69322e-14 1.58145e-14 1.98664e-14 0 0 9.96753e-16 -1.68405e-15 4.13956e-15 2.51264e-14 0 0 5.61896e-15 1.64938e-16 1.4059e-15 4.91426e-14 0 0 8.58812e-15 2.898e-15 5.6195e-15 5.58021e-14 0 0 2.36814e-15 1.09576e-14 3.53191e-15 5.11834e-14 0 0 3.22342e-15 2.02777e-14 7.91762e-16 5.47479e-14 0 0 4.59476e-15 2.56825e-14 8.89023e-15 6.42351e-14 0 0 7.54767e-15 9.45664e-15 4.81692e-14 6.37272e-14 0 0 1.35235e-14 -1.04008e-14 9.38033e-14 5.51651e-14 0 0 -2.70683e-15 1.26075e-14 8.79548e-14 6.41058e-14 0 0 -5.49723e-15 2.32567e-14 9.1435e-14 3.35228e-14 0 0 2.40738e-14 1.746e-14 8.12671e-14 6.26971e-14 0 0 1.28707e-14 3.45962e-14 4.28291e-14 1.19533e-13 0 0 9.69561e-15 4.07119e-15 9.82581e-14 7.47871e-14 0 0 -8.56447e-15 3.42713e-14 1.40165e-13 2.21375e-14 0 0 -2.96627e-15 5.26917e-14 1.07198e-13 2.46931e-14 0 0 1.36505e-14 3.89417e-14 6.62638e-14 6.03195e-14 0 0 -4.31891e-15 6.47627e-14 2.08068e-14 1.15433e-13 0 0 2.56791e-14 3.18084e-14 -4.89442e-15 1.43096e-13 0 0 3.06081e-14 1.54512e-14 4.7719e-15 5.68686e-14 0 0 -4.93009e-15 2.71469e-14 3.49475e-14 2.30854e-14 0 0 -2.12801e-14 2.57342e-14 3.4689e-14 1.04399e-13 0 0 -1.57053e-15 -1.51402e-14 7.31218e-14 8.75736e-14 0 0 2.57344e-14 -2.61429e-14 7.93439e-14 9.54245e-15 0 0 1.64893e-14 -6.47031e-16 3.15894e-14 -1.20973e-14 0 0 2.68098e-14 -1.15299e-14 3.50301e-14 8.02835e-15 0 0 -1.89196e-14 5.32434e-14 3.85531e-14 7.4844e-14 0 0 -4.05295e-14 1.07246e-13 2.59487e-14 1.38341e-13 0 0 -6.93856e-15 1.20378e-13 -1.72513e-14 1.55238e-13 0 0 -1.94282e-14 1.11215e-13 -3.66616e-14 1.40388e-13 0 0 9.04673e-15 2.13133e-14 2.49764e-14 7.29488e-14 0 0 4.89412e-15 2.11114e-15 6.5914e-14 2.17524e-14 0 0 -1.80671e-14 1.36805e-14 9.43999e-14 6.99445e-15 0 0 -2.84522e-14 4.06247e-14 8.80002e-14 -3.96229e-15 0 0 -2.1846e-14 7.3703e-14 3.16113e-14 -1.99525e-14 0 0 -2.07534e-15 5.4454e-14 2.1423e-14 -1.92169e-14 0 0 -2.92635e-15 5.82365e-14 -1.75882e-15 9.66985e-15 0 0 2.2397e-14 2.07897e-14 8.51968e-15 6.04379e-16 0 0 5.2978e-15 5.55752e-15 2.90777e-14 2.46863e-14 0 0 -7.48267e-15 1.92463e-14 -8.21788e-15 7.42485e-14 0 0 1.47917e-14 -1.63194e-15 -1.47341e-15 5.09175e-14 0 0 -1.0099e-14 3.00391e-14 -1.2626e-14 3.46484e-14 0 0 -5.64181e-14 8.18061e-14 -3.22451e-14 6.23911e-14 0 0 -2.38884e-14 3.13502e-14 2.70053e-14 6.06475e-14 0 0 1.57573e-14 -2.24427e-14 1.03001e-13 1.39887e-14 0 0 -3.08542e-14 3.04805e-14 1.02681e-13 -2.07061e-14 0 0 -2.64427e-14 2.16605e-14 9.28815e-14 3.2605e-15 0 0 1.41979e-14 -4.48247e-15 4.8865e-14 6.70005e-14 0 0 2.13091e-14 1.32753e-14 -3.57376e-15 8.79948e-14 0 0 1.67434e-14 1.80952e-14 2.2377e-14 8.30931e-14 0 0 6.41918e-15 4.85e-14 9.69829e-15 9.28517e-14 0 0 -6.95114e-15 6.03368e-14 5.92683e-15 8.61156e-14 0 0 5.47388e-15 2.10052e-14 3.14172e-14 6.72043e-14 0 0 4.33343e-14 -2.75657e-14 1.39654e-14 6.46365e-14 0 0 5.1734e-14 -4.58624e-14 4.685e-14 1.703e-14 0 0 1.79933e-14 -2.85078e-15 6.11214e-14 -8.04979e-16 0 0 7.67596e-15 4.14117e-14 1.12491e-14 3.47449e-14 0 0 1.82897e-14 3.43441e-14 2.03628e-14 6.14444e-15 0 0 3.44732e-14 -1.58498e-14 1.04298e-13 -5.09832e-14 0 0 3.03819e-14 -4.2451e-14 1.40374e-13 2.17967e-14 0 0 6.86338e-15 1.29278e-14 4.48572e-14 1.49145e-13 0 0 0 0 0 0 0
				</DataArray>
				<DataArray Name="VitesseY" type="Float32" format="ascii">