<?xml version="1.0"?>
<VTKFile type="PolyData">
	<PolyData>
		<Piece NumberOfPoints="1206" NumberOfPolys="1000">
			<Points>
				<DataArray type="Float32" NumberOfComponents="3" format="ascii">
 0 0 0 0.02 0 0 0.04 0 0 0.06 0 0 0.08 0 0 0.1 0 0 0 0.005 0 0.02 0.005 0 0.04 0.005 0 0.06 0.005 0 0.08 0.005 0 0.1 0.005 0 0 0.01 0 0.02 0.01 0 0.04 0.01 0 0.06 0.01 0 0.08 0.01 0 0.1 0.01 0 0 0.015 0 0.02 0.015 0 0.04 0.015 0 0.06 0.015 0 0.08 0.015 0 0.1 0.015 0 0 0.02 0 0.02 0.02 0 0.04 0.02 0 0.06 0.02 0 0.08 0.02 0 0.1 0.02 0 0 0.025 0 0.02 0.025 0 0.04 0.025 0 0.06 0.025 0 0.08 0.025 0 0.1 0.025 0 0 0.03 0 0.02 0.03 0 0.04 0.03 0 0.06 0.03 0 0.08 0.03 0 0.1 0.03 0 0 0.035 0 0.02 0.035 0 0.04 0.035 0 0.06 0.035 0 0.08 0.035 0 0.1 0.035 0 0 0.04 0 0.02 0.04 0 0.04 0.04 0 0.06 0.04 0 0.08 0.04 0 0.1 0.04 0 0 0.045 0 0.02 0.045 0 0.04 0.045 0 0.06 0.045 0 0.08 0.045 0 0.1 0.045 0 0 0.05 0 0.02 0.05 0 0.04 0.05 0 0.06 0.05 0 0.08 0.05 0 0.1 0.05 0 0 0.055 0 0.02 0.055 0 0.04 0.055 0 0.06 0.055 0 0.08 0.055 0 0.1 0.055 0 0 0.06 0 0.02 0.06 0 0.04 0.06 0 0.06 0.06 0 0.08 0.06 0 0.1 0.06 0 0 0.065 0 0.02 0.065 0 0.04 0.065 0 0.06 0.065 0 0.08 0.065 0 0.1 0.065 0 0 0.07 0 0.02 0.07 0 0.04 0.07 0 0.06 0.07 0 0.08 0.07 0 0.1 0.07 0 0 0.075 0 0.02 0.075 0 0.04 0.075 0 0.06 0.075 0 0.08 0.075 0 0.1 0.075 0 0 0.08 0 0.02 0.08 0 0.04 0.08 0 0.06 0.08 0 0.08 0.08 0 0.1 0.08 0 0 0.085 0 0.02 0.085 0 0.04 0.085 0 0.06 0.085 0 0.08 0.085 0 0.1 0.085 0 0 0.09 0 0.02 0.09 0 0.04 0.09 0 0.06 0.09 0 0.08 0.09 0 0.1 0.09 0 0 0.095 0 0.02 0.095 0 0.04 0.095 0 0.06 0.095 0 0.08 0.095 0 0.1 0.095 0 0 0.1 0 0.02 0.1 0 0.04 0.1 0 0.06 0.1 0 0.08 0.1 0 0.1 0.1 0 0 0.105 0 0.02 0.105 0 0.04 0.105 0 0.06 0.105 0 0.08 0.105 0 0.1 0.105 0 0 0.11 0 0.02 0.11 0 0.04 0.11 0 0.06 0.11 0 0.08 0.11 0 0.1 0.11 0 0 0.115 0 0.02 0.115 0 0.04 0.115 0 0.06 0.115 0 0.08 0.115 0 0.1 0.115 0 0 0.12 0 0.02 0.12 0 0.04 0.12 0 0.06 0.12 0 0.08 0.12 0 0.1 0.12 0 0 0.125 0 0.02 0.125 0 0.04 0.125 0 0.06 0.125 0 0.08 0.125 0 0.1 0.125 0 0 0.13 0 0.02 0.13 0 0.04 0.13 0 0.06 0.13 0 0.08 0.13 0 0.1 0.13 0 0 0.135 0 0.02 0.135 0 0.04 0.135 0 0.06 0.135 0 0.08 0.135 0 0.1 0.135 0 0 0.14 0 0.02 0.14 0 0.04 0.14 0 0.06 0.14 0 0.08 0.14 0 0.1 0.14 0 0 0.145 0 0.02 0.145 0 0.04 0.145 0 0.06 0.145 0 0.08 0.145 0 0.1 0.145 0 0 0.15 0 0.02 0.15 0 0.04 0.15 0 0.06 0.15 0 0.08 0.15 0 0.1 0.15 0 0 0.155 0 0.02 0.155 0 0.04 0.155 0 0.06 0.155 0 0.08 0.155 0 0.1 0.155 0 0 0.16 0 0.02 0.16 0 0.04 0.16 0 0.06 0.16 0 0.08 0.16 0 0.1 0.16 0 0 0.165 0 0.02 0.165 0 0.04 0.165 0 0.06 0.165 0 0.08 0.165 0 0.1 0.165 0 0 0.17 0 0.02 0.17 0 0.04 0.17 0 0.06 0.17 0 0.08 0.17 0 0.1 0.17 0 0 0.175 0 0.02 0.175 0 0.04 0.175 0 0.06 0.175 0 0.08 0.175 0 0.1 0.175 0 0 0.18 0 0.02 0.18 0 0.04 0.18 0 0.06 0.18 0 0.08 0.18 0 0.1 0.18 0 0 0.185 0 0.02 0.185 0 0.04 0.185 0 0.06 0.185 0 0.08 0.185 0 0.1 0.185 0 0 0.19 0 0.02 0.19 0 0.04 0.19 0 0.06 0.19 0 0.08 0.19 0 0.1 0.19 0 0 0.195 0 0.02 0.195 0 0.04 0.195 0 0.06 0.195 0 0.08 0.195 0 0.1 0.195 0 0 0.2 0 0.02 0.2 0 0.04 0.2 0 0.06 0.2 0 0.08 0.2 0 0.1 0.2 0 0 0.205 0 0.02 0.205 0 0.04 0.205 0 0.06 0.205 0 0.08 0.205 0 0.1 0.205 0 0 0.21 0 0.02 0.21 0 0.04 0.21 0 0.06 0.21 0 0.08 0.21 0 0.1 0.21 0 0 0.215 0 0.02 0.215 0 0.04 0.215 0 0.06 0.215 0 0.08 0.215 0 0.1 0.215 0 0 0.22 0 0.02 0.22 0 0.04 0.22 0 0.06 0.22 0 0.08 0.22 0 0.1 0.22 0 0 0.225 0 0.02 0.225 0 0.04 0.225 0 0.06 0.225 0 0.08 0.225 0 0.1 0.225 0 0 0.23 0 0.02 0.23 0 0.04 0.23 0 0.06 0.23 0 0.08 0.23 0 0.1 0.23 0 0 0.235 0 0.02 0.235 0 0.04 0.235 0 0.06 0.235 0 0.08 0.235 0 0.1 0.235 0 0 0.24 0 0.02 0.24 0 0.04 0.24 0 0.06 0.24 0 0.08 0.24 0 0.1 0.24 0 0 0.245 0 0.02 0.245 0 0.04 0.245 0 0.06 0.245 0 0.08 0.245 0 0.1 0.245 0 0 0.25 0 0.02 0.25 0 0.04 0.25 0 0.06 0.25 0 0.08 0.25 0 0.1 0.25 0 0 0.255 0 0.02 0.255 0 0.04 0.255 0 0.06 0.255 0 0.08 0.255 0 0.1 0.255 0 0 0.26 0 0.02 0.26 0 0.04 0.26 0 0.06 0.26 0 0.08 0.26 0 0.1 0.26 0 0 0.265 0 0.02 0.265 0 0.04 0.265 0 0.06 0.265 0 0.08 0.265 0 0.1 0.265 0 0 0.27 0 0.02 0.27 0 0.04 0.27 0 0.06 0.27 0 0.08 0.27 0 0.1 0.27 0 0 0.275 0 0.02 0.275 0 0.04 0.275 0 0.06 0.275 0 0.08 0.275 0 0.1 0.275 0 0 0.28 0 0.02 0.28 0 0.04 0.28 0 0.06 0.28 0 0.08 0.28 0 0.1 0.28 0 0 0.285 0 0.02 0.285 0 0.04 0.285 0 0.06 0.285 0 0.08 0.285 0 0.1 0.285 0 0 0.29 0 0.02 0.29 0 0.04 0.29 0 0.06 0.29 0 0.08 0.29 0 0.1 0.29 0 0 0.295 0 0.02 0.295 0 0.04 0.295 0 0.06 0.295 0 0.08 0.295 0 0.1 0.295 0 0 0.3 0 0.02 0.3 0 0.04 0.3 0 0.06 0.3 0 0.08 0.3 0 0.1 0.3 0 0 0.305 0 0.02 0.305 0 0.04 0.305 0 0.06 0.305 0 0.08 0.305 0 0.1 0.305 0 0 0.31 0 0.02 0.31 0 0.04 0.31 0 0.06 0.31 0 0.08 0.31 0 0.1 0.31 0 0 0.315 0 0.02 0.315 0 0.04 0.315 0 0.06 0.315 0 0.08 0.315 0 0.1 0.315 0 0 0.32 0 0.02 0.32 0 0.04 0.32 0 0.06 0.32 0 0.08 0.32 0 0.1 0.32 0 0 0.325 0 0.02 0.325 0 0.04 0.325 0 0.06 0.325 0 0.08 0.325 0 0.1 0.325 0 0 0.33 0 0.02 0.33 0 0.04 0.33 0 0.06 0.33 0 0.08 0.33 0 0.1 0.33 0 0 0.335 0 0.02 0.335 0 0.04 0.335 0 0.06 0.335 0 0.08 0.335 0 0.1 0.335 0 0 0.34 0 0.02 0.34 0 0.04 0.34 0 0.06 0.34 0 0.08 0.34 0 0.1 0.34 0 0 0.345 0 0.02 0.345 0 0.04 0.345 0 0.06 0.345 0 0.08 0.345 0 0.1 0.345 0 0 0.35 0 0.02 0.35 0 0.04 0.35 0 0.06 0.35 0 0.08 0.35 0 0.1 0.35 0 0 0.355 0 0.02 0.355 0 0.04 0.355 0 0.06 0.355 0 0.08 0.355 0 0.1 0.355 0 0 0.36 0 0.02 0.36 0 0.04 0.36 0 0.06 0.36 0 0.08 0.36 0 0.1 0.36 0 0 0.365 0 0.02 0.365 0 0.04 0.365 0 0.06 0.365 0 0.08 0.365 0 0.1 0.365 0 0 0.37 0 0.02 0.37 0 0.04 0.37 0 0.06 0.37 0 0.08 0.37 0 0.1 0.37 0 0 0.375 0 0.02 0.375 0 0.04 0.375 0 0.06 0.375 0 0.08 0.375 0 0.1 0.375 0 0 0.38 0 0.02 0.38 0 0.04 0.38 0 0.06 0.38 0 0.08 0.38 0 0.1 0.38 0 0 0.385 0 0.02 0.385 0 0.04 0.385 0 0.06 0.385 0 0.08 0.385 0 0.1 0.385 0 0 0.39 0 0.02 0.39 0 0.04 0.39 0 0.06 0.39 0 0.08 0.39 0 0.1 0.39 0 0 0.395 0 0.02 0.395 0 0.04 0.395 0 0.06 0.395 0 0.08 0.395 0 0.1 0.395 0 0 0.4 0 0.02 0.4 0 0.04 0.4 0 0.06 0.4 0 0.08 0.4 0 0.1 0.4 0 0 0.405 0 0.02 0.405 0 0.04 0.405 0 0.06 0.405 0 0.08 0.405 0 0.1 0.405 0 0 0.41 0 0.02 0.41 0 0.04 0.41 0 0.06 0.41 0 0.08 0.41 0 0.1 0.41 0 0 0.415 0 0.02 0.415 0 0.04 0.415 0 0.06 0.415 0 0.08 0.415 0 0.1 0.415 0 0 0.42 0 0.02 0.42 0 0.04 0.42 0 0.06 0.42 0 0.08 0.42 0 0.1 0.42 0 0 0.425 0 0.02 0.425 0 0.04 0.425 0 0.06 0.425 0 0.08 0.425 0 0.1 0.425 0 0 0.43 0 0.02 0.43 0 0.04 0.43 0 0.06 0.43 0 0.08 0.43 0 0.1 0.43 0 0 0.435 0 0.02 0.435 0 0.04 0.435 0 0.06 0.435 0 0.08 0.435 0 0.1 0.435 0 0 0.44 0 0.02 0.44 0 0.04 0.44 0 0.06 0.44 0 0.08 0.44 0 0.1 0.44 0 0 0.445 0 0.02 0.445 0 0.04 0.445 0 0.06 0.445 0 0.08 0.445 0 0.1 0.445 0 0 0.45 0 0.02 0.45 0 0.04 0.45 0 0.06 0.45 0 0.08 0.45 0 0.1 0.45 0 0 0.455 0 0.02 0.455 0 0.04 0.455 0 0.06 0.455 0 0.08 0.455 0 0.1 0.455 0 0 0.46 0 0.02 0.46 0 0.04 0.46 0 0.06 0.46 0 0.08 0.46 0 0.1 0.46 0 0 0.465 0 0.02 0.465 0 0.04 0.465 0 0.06 0.465 0 0.08 0.465 0 0.1 0.465 0 0 0.47 0 0.02 0.47 0 0.04 0.47 0 0.06 0.47 0 0.08 0.47 0 0.1 0.47 0 0 0.475 0 0.02 0.475 0 0.04 0.475 0 0.06 0.475 0 0.08 0.475 0 0.1 0.475 0 0 0.480005 0 0.02 0.480005 0 0.04 0.480005 0 0.06 0.480005 0 0.08 0.480005 0 0.1 0.480005 0 0 0.485059 0 0.02 0.485059 0 0.04 0.485059 0 0.06 0.485059 0 0.08 0.485059 0 0.1 0.485059 0 0 0.490463 0 0.02 0.490463 0 0.04 0.490463 0 0.06 0.490463 0 0.08 0.490463 0 0.1 0.490463 0 0 0.497282 0 0.02 0.497282 0 0.04 0.497282 0 0.06 0.497282 0 0.08 0.497282 0 0.1 0.497282 0 0 0.508351 0 0.02 0.508351 0 0.04 0.508351 0 0.06 0.508351 0 0.08 0.508351 0 0.1 0.508351 0 0 0.511047 0 0.02 0.511047 0 0.04 0.511047 0 0.06 0.511047 0 0.08 0.511047 0 0.1 0.511047 0 0 0.514004 0 0.02 0.514004 0 0.04 0.514004 0 0.06 0.514004 0 0.08 0.514004 0 0.1 0.514004 0 0 0.517349 0 0.02 0.517349 0 0.04 0.517349 0 0.06 0.517349 0 0.08 0.517349 0 0.1 0.517349 0 0 0.521162 0 0.02 0.521162 0 0.04 0.521162 0 0.06 0.521162 0 0.08 0.521162 0 0.1 0.521162 0 0 0.525449 0 0.02 0.525449 0 0.04 0.525449 0 0.06 0.525449 0 0.08 0.525449 0 0.1 0.525449 0 0 0.530124 0 0.02 0.530124 0 0.04 0.530124 0 0.06 0.530124 0 0.08 0.530124 0 0.1 0.530124 0 0 0.535024 0 0.02 0.535024 0 0.04 0.535024 0 0.06 0.535024 0 0.08 0.535024 0 0.1 0.535024 0 0 0.540004 0 0.02 0.540004 0 0.04 0.540004 0 0.06 0.540004 0 0.08 0.540004 0 0.1 0.540004 0 0 0.545001 0 0.02 0.545001 0 0.04 0.545001 0 0.06 0.545001 0 0.08 0.545001 0 0.1 0.545001 0 0 0.55 0 0.02 0.55 0 0.04 0.55 0 0.06 0.55 0 0.08 0.55 0 0.1 0.55 0 0 0.555 0 0.02 0.555 0 0.04 0.555 0 0.06 0.555 0 0.08 0.555 0 0.1 0.555 0 0 0.56 0 0.02 0.56 0 0.04 0.56 0 0.06 0.56 0 0.08 0.56 0 0.1 0.56 0 0 0.565 0 0.02 0.565 0 0.04 0.565 0 0.06 0.565 0 0.08 0.565 0 0.1 0.565 0 0 0.57 0 0.02 0.57 0 0.04 0.57 0 0.06 0.57 0 0.08 0.57 0 0.1 0.57 0 0 0.575 0 0.02 0.575 0 0.04 0.575 0 0.06 0.575 0 0.08 0.575 0 0.1 0.575 0 0 0.58 0 0.02 0.58 0 0.04 0.58 0 0.06 0.58 0 0.08 0.58 0 0.1 0.58 0 0 0.585 0 0.02 0.585 0 0.04 0.585 0 0.06 0.585 0 0.08 0.585 0 0.1 0.585 0 0 0.59 0 0.02 0.59 0 0.04 0.59 0 0.06 0.59 0 0.08 0.59 0 0.1 0.59 0 0 0.595 0 0.02 0.595 0 0.04 0.595 0 0.06 0.595 0 0.08 0.595 0 0.1 0.595 0 0 0.6 0 0.02 0.6 0 0.04 0.6 0 0.06 0.6 0 0.08 0.6 0 0.1 0.6 0 0 0.605 0 0.02 0.605 0 0.04 0.605 0 0.06 0.605 0 0.08 0.605 0 0.1 0.605 0 0 0.61 0 0.02 0.61 0 0.04 0.61 0 0.06 0.61 0 0.08 0.61 0 0.1 0.61 0 0 0.615 0 0.02 0.615 0 0.04 0.615 0 0.06 0.615 0 0.08 0.615 0 0.1 0.615 0 0 0.62 0 0.02 0.62 0 0.04 0.62 0 0.06 0.62 0 0.08 0.62 0 0.1 0.62 0 0 0.625 0 0.02 0.625 0 0.04 0.625 0 0.06 0.625 0 0.08 0.625 0 0.1 0.625 0 0 0.63 0 0.02 0.63 0 0.04 0.63 0 0.06 0.63 0 0.08 0.63 0 0.1 0.63 0 0 0.635 0 0.02 0.635 0 0.04 0.635 0 0.06 0.635 0 0.08 0.635 0 0.1 0.635 0 0 0.64 0 0.02 0.64 0 0.04 0.64 0 0.06 0.64 0 0.08 0.64 0 0.1 0.64 0 0 0.645 0 0.02 0.645 0 0.04 0.645 0 0.06 0.645 0 0.08 0.645 0 0.1 0.645 0 0 0.65 0 0.02 0.65 0 0.04 0.65 0 0.06 0.65 0 0.08 0.65 0 0.1 0.65 0 0 0.655 0 0.02 0.655 0 0.04 0.655 0 0.06 0.655 0 0.08 0.655 0 0.1 0.655 0 0 0.66 0 0.02 0.66 0 0.04 0.66 0 0.06 0.66 0 0.08 0.66 0 0.1 0.66 0 0 0.665 0 0.02 0.665 0 0.04 0.665 0 0.06 0.665 0 0.08 0.665 0 0.1 0.665 0 0 0.67 0 0.02 0.67 0 0.04 0.67 0 0.06 0.67 0 
[...]
			<PointData Scalars="VitesseX">
				<DataArray Name="VitesseX" type="Float32" format="ascii">
 0 0 0 0 0 0 0 0 -3.52231e-16 7.57023e-16 -5.02276e-16 0 0 1.27307e-17 1.4402e-16 8.48881e-17 -1.49132e-16 0 0 1.26422e-16 -4.02391e-16 6.40242e-16 -1.90778e-16 0 0 1.5772e-16 -1.50151e-16 -1.59846e-16 1.35541e-16 0 0 -7.95426e-17 9.38354e-16 -1.48587e-15 1.08443e-15 0 0 -5.16055e-17 2.60825e-16 2.20527e-16 -6.22072e-16 0 0 7.86053e-17 -1.25078e-15 2.82612e-15 -2.70014e-15 0 0 5.06683e-17 -7.05342e-16 1.44719e-15 -5.79569e-16 0 0 -8.80578e-17 1.14475e-15 -2.09348e-15 8.56197e-16 0 0 -8.80578e-17 -8.80578e-17 -1.03004e-15 1.16318e-15 0 0 -2.30984e-16 6.07258e-16 -1.88716e-15 3.49483e-15 0 0 3.6334e-16 -1.54411e-15 5.89891e-16 1.86727e-15 0 0 6.17168e-17 -2.95506e-16 -1.41955e-15 1.99072e-15 0 0 -3.48842e-16 1.09972e-15 -1.30565e-15 4.42896e-16 0 0 1.83765e-16 -2.34118e-15 4.35886e-15 -2.67566e-15 0 0 -2.11066e-16 1.84191e-15 -3.15159e-15 2.38659e-15 0 0 1.73308e-16 1.25298e-15 -2.26284e-15 5.03409e-15 0 0 -2.36859e-16 4.90062e-16 -1.16139e-15 5.87275e-15 0 0 -4.01088e-16 1.07899e-15 -2.08682e-15 5.84372e-15 0 0 4.28489e-16 -2.28539e-15 4.2418e-15 5.62604e-16 0 0 -1.80262e-16 -1.03058e-15 2.70783e-15 -2.71596e-15 0 0 -3.88606e-16 1.95927e-15 -3.11167e-15 5.3224e-15 0 0 0 2.99396e-15 -6.07599e-15 1.25774e-14 0 0 0 -1.50432e-15 3.05267e-15 2.27624e-15 0 0 0 -6.00261e-15 1.21813e-14 -9.00699e-15 0 0 0 -8.89693e-16 2.8249e-15 -2.28954e-15 0 0 -5.13122e-16 5.10392e-15 -8.35942e-15 3.29809e-15 0 0 -3.13444e-16 3.00483e-15 -5.30585e-15 2.46941e-16 0 0 1.99678e-16 -3.02548e-15 5.95185e-15 -4.09858e-15 0 0 0 -1.54101e-15 3.12605e-15 -1.40689e-15 0 0 0 -1.54101e-15 3.12605e-15 -3.40002e-15 0 0 0 3.73797e-16 7.51787e-17 -3.50207e-15 0 0 0 5.19248e-15 -9.69428e-15 9.88946e-15 0 0 0 -1.2573e-15 2.55863e-15 1.25195e-15 0 0 0 -3.03799e-15 6.16405e-15 -5.11202e-15 0 0 0 -2.61177e-15 2.18403e-15 2.9809e-15 0 0 0 4.39214e-15 -8.23528e-15 8.67468e-15 0 0 0 4.17947e-15 -7.79929e-15 9.17226e-15 0 0 0 -1.32746e-15 -3.45646e-16 3.68152e-15 0 0 0 -1.54101e-15 3.05372e-15 -2.42523e-15 0 0 4.21734e-16 -2.94775e-15 5.57974e-15 -3.56411e-15 0 0 -3.50287e-16 4.13158e-15 -6.59914e-15 -2.20145e-16 0 0 -7.72021e-16 1.12534e-15 9.2484e-16 -7.35415e-15 0 0 0 -5.55018e-15 1.07631e-14 -8.43491e-15 0 0 0 3.52986e-15 -7.23697e-15 7.4957e-15 0 0 0 3.12605e-15 -1.2307e-14 1.18331e-14 0 0 0 3.12605e-15 -1.11863e-14 1.05016e-14 0 0 0 3.19838e-15 -3.77767e-15 1.30317e-15 0 0 0 -6.00365e-15 1.21813e-14 -1.22537e-14 0 0 0 -6.07599e-15 1.23281e-14 -1.23281e-14 0 0 0 -6.00365e-15 1.21813e-14 -9.82787e-15 0 0 0 8.42448e-15 -1.41797e-14 1.26065e-14 0 0 1.10072e-16 3.76163e-15 -4.86109e-15 7.84071e-15 0 0 -4.72438e-16 1.14031e-15 1.01714e-14 -1.44895e-14 0 0 -3.62765e-16 9.59737e-15 -8.6676e-15 -6.643e-15 0 0 2.19745e-16 -6.11692e-15 2.52154e-15 -2.70035e-15 0 0 0 1.9175e-15 -7.7218e-15 7.35205e-15 0 0 0 2.34462e-15 -7.13118e-15 4.86427e-15 0 0 0 -5.53725e-15 4.76208e-15 -6.77087e-15 0 0 0 -2.22105e-16 -2.0088e-15 -2.45498e-16 0 0 0 -1.20323e-15 -1.55578e-16 9.19249e-15 0 0 0 2.11416e-15 -1.46264e-15 4.98992e-15 0 0 0 5.754e-16 6.95178e-15 -1.21958e-14 0 0 0 2.78728e-16 7.53884e-15 -1.38936e-14 0 0 0 3.74726e-15 -4.62107e-15 -2.31383e-15 0 0 0 1.92977e-15 -3.74549e-15 8.16308e-15 0 0 0 1.84417e-15 -3.56713e-15 8.07033e-15 0 0 5.96476e-16 -5.19065e-15 1.041e-14 -9.00343e-15 0 0 2.4173e-15 -2.61252e-15 2.86791e-15 -8.74868e-15 0 0 3.01803e-15 1.41899e-14 -2.67944e-14 1.23964e-14 0 0 1.1972e-15 4.19166e-15 -3.28175e-15 -4.67837e-15 0 0 0 -5.32643e-16 2.46166e-15 -9.2726e-15 0 0 7.11352e-16 4.2474e-15 -6.57632e-15 7.47018e-15 0 0 2.48789e-15 1.82279e-14 -1.81012e-14 1.10725e-14 0 0 8.50557e-16 2.57657e-14 -2.95184e-14 1.82234e-14 0 0 -9.25977e-16 -4.07721e-16 3.70844e-15 1.1462e-15 0 0 0 -5.03845e-15 7.62221e-15 -8.51193e-15 0 0 0 -3.72294e-15 6.15993e-15 -8.9098e-15 0 0 1.47812e-16 6.62964e-15 1.45955e-15 6.55762e-15 0 0 -5.48294e-16 1.51378e-14 -5.30859e-15 1.99908e-14 0 0 1.91972e-15 4.67994e-15 2.75474e-15 5.37375e-16 0 0 1.32315e-15 1.48453e-14 -1.11667e-14 3.85068e-15 0 0 1.35994e-15 5.69193e-15 1.38237e-14 -5.71969e-15 0 0 2.93816e-15 -1.06914e-14 3.32571e-14 -8.4243e-15 0 0 2.22578e-15 5.05143e-15 7.4533e-16 2.09365e-14 0 0 2.48612e-15 1.1791e-14 -1.1265e-14 1.41779e-14 0 0 5.45882e-16 -2.95186e-15 9.96922e-15 -1.17358e-14 0 0 0 -4.22211e-15 1.00947e-14 -5.2266e-15 0 0 -6.48953e-19 -3.52687e-15 1.06587e-14 1.46651e-14 0 0 -5.86287e-16 4.88537e-15 -3.44761e-15 1.77839e-14 0 0 -1.76491e-16 7.97729e-15 -1.49955e-14 1.42707e-14 0 0 1.53672e-15 -6.2359e-15 1.31618e-14 6.37614e-15 0 0 -1.90673e-16 -1.625e-15 9.69931e-15 4.99777e-16 0 0 -2.43611e-14 -1.52237e-14 1.95965e-14 2.21589e-14 0 0 -8.10825e-13 -5.02425e-13 5.1551e-13 8.13528e-13 0 0 -1.66678e-11 -1.02958e-11 1.03086e-11 1.66704e-11 0 0 -1.94888e-10 -1.19984e-10 1.19996e-10 1.94882e-10 0 0 -1.22255e-09 -7.35686e-10 7.35695e-10 1.22254e-09 0 0 -6.87822e-09 1.38804e-09 -1.38803e-09 6.87822e-09 0 0 4.97231e-11 -2.17974e-09 2.17977e-09 -4.97442e-11 0 0 4.2095e-08 -2.24602e-08 2.24603e-08 -4.20951e-08 0 0 2.16337e-08 5.89238e-11 -5.88721e-11 -2.16337e-08 0 0 1.18919e-08 5.05633e-09 -5.0563e-09 -1.18919e-08 0 0 6.43173e-09 3.76587e-09 -3.7658e-09 -6.43174e-09 0 0 2.81981e-09 1.73382e-09 -1.73375e-09 -2.81982e-09 0 0 8.34478e-10 5.15544e-10 -5.15525e-10 -8.34441e-10 0 0 1.45935e-10 9.02162e-11 -9.01947e-11 -1.45906e-10 0 0 1.66194e-11 1.02816e-11 -1.0255e-11 -1.66127e-11 0 0 1.56162e-12 9.5998e-13 -9.3452e-13 -1.55434e-12 0 0 1.34576e-13 8.43646e-14 -5.19751e-14 -1.31121e-13 0 0 1.75003e-14 1.81493e-14 4.65605e-15 1.53713e-15 0 0 2.4142e-15 2.23902e-14 -8.21734e-15 1.92234e-14 0 0 3.46709e-15 8.33011e-15 4.39602e-15 1.51117e-14 0 0 1.06692e-14 3.26964e-15 2.19405e-15 2.9381e-14 0 0 6.06372e-17 1.69842e-14 -1.79331e-14 3.92474e-14 0 0 2.86944e-15 9.94334e-15 -4.79202e-15 1.86255e-14 0 0 6.84739e-15 2.28953e-15 1.95404e-14 -5.43694e-15 0 0 -5.78351e-16 1.52663e-14 -8.6004e-15 1.31289e-14 0 0 -1.51454e-15 4.26278e-15 -4.42088e-15 -1.19538e-15 0 0 0 3.42262e-15 -6.80811e-15 -1.05457e-14 0 0 -1.16362e-16 4.97212e-15 -9.55217e-15 -1.05577e-14 0 0 -5.29547e-16 -8.12797e-15 1.07165e-14 -9.69841e-15 0 0 1.47323e-15 1.08072e-14 -1.9183e-14 2.10099e-14 0 0 3.4846e-15 7.08555e-15 -8.09785e-15 -4.45031e-15 0 0 1.47868e-15 3.1401e-15 -8.30151e-15 -7.06649e-15 0 0 -1.19507e-16 1.27137e-14 -9.10737e-15 -8.56277e-15 0 0 8.53481e-16 6.67943e-15 2.63554e-14 -3.29475e-14 0 0 3.67778e-15 1.53349e-14 -8.42423e-15 1.0424e-14 0 0 2.8243e-15 5.599e-15 -1.25813e-14 6.61296e-15 0 0 0 3.06683e-15 -6.09495e-15 -5.96661e-15 0 0 0 3.8504e-15 -7.65172e-15 -4.97076e-15 0 0 2.2858e-15 3.38147e-15 6.95455e-15 -3.16713e-15 0 0 4.9531e-15 1.84657e-14 -1.46379e-14 3.14072e-14 0 0 2.6673e-15 4.17488e-15 -7.32581e-16 1.01454e-14 0 0 0 1.57545e-15 -4.24182e-15 1.3571e-14 0 0 5.83608e-16 2.69957e-15 -5.94955e-15 5.1213e-15 0 0 1.15638e-15 -7.27523e-15 8.68598e-15 -1.17956e-14 0 0 5.72776e-16 7.88677e-15 -3.36473e-15 3.52625e-15 0 0 9.70891e-16 4.89131e-15 9.85987e-15 -2.18975e-14 0 0 6.99624e-15 -7.44682e-16 -2.13071e-15 -2.12031e-14 0 0 8.2935e-15 1.88574e-14 -3.56252e-14 6.92424e-15 0 0 1.84573e-15 5.37985e-15 -3.40242e-15 -1.04662e-14 0 0 3.20313e-15 8.72951e-15 -5.90067e-15 -1.22888e-14 0 0 1.70039e-14 1.83567e-14 -4.29063e-14 2.47165e-14 0 0 1.15349e-14 -4.77112e-15 -5.11994e-15 1.19855e-15 0 0 -1.27072e-15 1.20168e-14 -1.14969e-14 -1.99878e-14 0 0 5.72776e-16 6.44119e-15 7.5192e-15 -3.40023e-14 0 0 1.54701e-15 -5.24305e-15 3.20902e-14 -3.88109e-14 0 0 8.23742e-15 1.66828e-14 -1.88318e-15 -1.95193e-14 0 0 1.19952e-14 1.43796e-14 -7.02413e-15 -1.12592e-14 0 0 6.07763e-15 2.47321e-14 -3.00682e-14 9.38048e-15 0 0 1.35648e-15 9.37251e-15 1.87317e-15 -8.07962e-15 0 0 1.67596e-15 1.01285e-15 9.44439e-15 -1.55015e-14 0 0 2.49476e-15 1.08369e-14 -1.65229e-14 -8.81408e-15 0 0 1.40241e-15 7.9091e-15 -2.02702e-14 1.07789e-14 0 0 2.35499e-16 7.5155e-15 -1.14147e-14 3.32079e-15 0 0 7.96276e-15 -5.86949e-15 4.59754e-15 2.93691e-16 0 0 1.35799e-14 1.27934e-14 -3.06581e-14 2.9238e-14 0 0 4.75074e-15 3.84874e-14 -3.97709e-14 -3.88014e-15 0 0 1.80361e-14 1.44255e-14 -9.02205e-15 -9.15973e-15 0 0 1.98671e-14 2.6777e-15 1.0435e-14 -1.18203e-15 0 0 5.84861e-15 8.80008e-15 7.96998e-15 -8.45369e-15 0 0 2.96392e-15 3.29455e-14 -3.20918e-14 7.18775e-15 0 0 4.54071e-15 4.12122e-14 -3.92392e-14 9.58632e-15 0 0 1.52497e-14 2.15748e-14 -4.28662e-14 4.25307e-15 0 0 1.05017e-14 2.47969e-14 -3.87631e-14 -8.33832e-15 0 0 1.94475e-15 8.07394e-15 1.20282e-14 -1.31823e-14 0 0 0 6.94676e-15 -2.84776e-15 1.45038e-14 0 0 -3.0068e-15 -1.35163e-15 -3.20444e-15 2.91388e-15 0 0 4.72961e-16 -1.17641e-14 2.41015e-14 -2.82196e-14 0 0 6.88503e-15 4.33733e-16 1.95606e-15 -4.97135e-15 0 0 3.40526e-15 -7.56055e-15 1.11723e-14 6.02922e-15 0 0 0 4.51291e-15 3.20668e-15 -6.50969e-15 0 0 -3.58889e-16 6.43942e-15 4.21395e-16 -1.52354e-14 0 0 4.53843e-15 -5.68003e-15 1.42479e-14 -1.73624e-14 0 0 6.64091e-15 1.09173e-14 -1.82162e-14 4.45105e-15 0 0 1.50773e-15 1.23649e-15 -4.08872e-15 1.64043e-14 0 0 2.37908e-15 -8.34557e-15 9.7706e-15 1.44539e-14 0 0 -4.83444e-16 -1.63769e-14 2.35675e-14 3.97783e-16 0 0 2.37483e-15 -1.2615e-14 6.77071e-15 5.52964e-15 0 0 1.0454e-14 1.75361e-14 -4.6307e-14 2.77538e-14 0 0 5.5546e-15 5.84595e-15 -1.41688e-14 1.82526e-14 0 0 -1.68704e-15 6.59864e-15 -8.39603e-15 2.08774e-14 0 0 -3.49034e-15 4.15926e-15 -3.45186e-15 5.88452e-15 0 0 1.04318e-15 -7.78864e-15 7.75176e-15 3.73441e-16 0 0 -6.79456e-16 9.69152e-15 -2.00577e-14 1.80642e-14 0 0 -2.95315e-15 -3.05631e-15 9.90516e-15 5.32058e-15 0 0 1.35864e-15 -2.29271e-15 7.64568e-15 -5.40767e-15 0 0 -9.06226e-16 -8.09615e-15 1.14052e-14 -2.19219e-14 0 0 -1.37996e-15 -4.84014e-15 5.21344e-15 -7.38106e-15 0 0 6.96858e-15 2.41364e-14 -3.48713e-14 8.00116e-15 0 0 7.50641e-15 -7.65112e-15 2.15437e-14 -4.22689e-14 0 0 4.13417e-15 -1.04542e-14 2.37679e-14 -3.44285e-14 0 0 3.17593e-15 1.40783e-14 -2.53083e-14 2.92792e-14 0 0 4.68594e-16 1.1617e-14 -2.7033e-14 4.18738e-14 0 0 -2.91863e-16 1.90399e-14 -2.84853e-14 2.50818e-14 0 0 -6.99901e-15 -5.029e-15 1.6222e-14 -4.6255e-15 0 0 -6.70715e-15 -5.96742e-15 1.16102e-14 -7.34702e-15 0 0 0 1.94912e-14 -3.58764e-14 2.37393e-14 0 0 0 0 0 0 0
				</DataArray>
				<DataArray Name="VitesseY" type="Float32" format="ascii">