<?xml version="1.0"?>
<VTKFile type="PolyData">
	<PolyData>
		<Piece NumberOfPoints="1206" NumberOfPolys="1000">
			<Points>
				<DataArray type="Float32" NumberOfComponents="3" format="ascii">
 0 0 0 0.02 0 0 0.04 0 0 0.06 0 0 0.08 0 0 0.1 0 0 0 0.005 0 0.02 0.005 0 0.04 0.005 0 0.06 0.005 0 0.08 0.005 0 0.1 0.005 0 0 0.01 0 0.02 0.01 0 0.04 0.01 0 0.06 0.01 0 0.08 0.01 0 0.1 0.01 0 0 0.015 0 0.02 0.015 0 0.04 0.015 0 0.06 0.015 0 0.08 0.015 0 0.1 0.015 0 0 0.02 0 0.02 0.02 0 0.04 0.02 0 0.06 0.02 0 0.08 0.02 0 0.1 0.02 0 0 0.025 0 0.02 0.025 0 0.04 0.025 0 0.06 0.025 0 0.08 0.025 0 0.1 0.025 0 0 0.03 0 0.02 0.03 0 0.04 0.03 0 0.06 0.03 0 0.08 0.03 0 0.1 0.03 0 0 0.035 0 0.02 0.035 0 0.04 0.035 0 0.06 0.035 0 0.08 0.035 0 0.1 0.035 0 0 0.04 0 0.02 0.04 0 0.04 0.04 0 0.06 0.04 0 0.08 0.04 0 0.1 0.04 0 0 0.045 0 0.02 0.045 0 0.04 0.045 0 0.06 0.045 0 0.08 0.045 0 0.1 0.045 0 0 0.05 0 0.02 0.05 0 0.04 0.05 0 0.06 0.05 0 0.08 0.05 0 0.1 0.05 0 0 0.055 0 0.02 0.055 0 0.04 0.055 0 0.06 0.055 0 0.08 0.055 0 0.1 0.055 0 0 0.06 0 0.02 0.06 0 0.04 0.06 0 0.06 0.06 0 0.08 0.06 0 0.1 0.06 0 0 0.065 0 0.02 0.065 0 0.04 0.065 0 0.06 0.065 0 0.08 0.065 0 0.1 0.065 0 0 0.07 0 0.02 0.07 0 0.04 0.07 0 0.06 0.07 0 0.08 0.07 0 0.1 0.07 0 0 0.075 0 0.02 0.075 0 0.04 0.075 0 0.06 0.075 0 0.08 0.075 0 0.1 0.075 0 0 0.08 0 0.02 0.08 0 0.04 0.08 0 0.06 0.08 0 0.08 0.08 0 0.1 0.08 0 0 0.085 0 0.02 0.085 0 0.04 0.085 0 0.06 0.085 0 0.08 0.085 0 0.1 0.085 0 0 0.09 0 0.02 0.09 0 0.04 0.09 0 0.06 0.09 0 0.08 0.09 0 0.1 0.09 0 0 0.095 0 0.02 0.095 0 0.04 0.095 0 0.06 0.095 0 0.08 0.095 0 0.1 0.095 0 0 0.1 0 0.02 0.1 0 0.04 0.1 0 0.06 0.1 0 0.08 0.1 0 0.1 0.1 0 0 0.105 0 0.02 0.105 0 0.04 0.105 0 0.06 0.105 0 0.08 0.105 0 0.1 0.105 0 0 0.11 0 0.02 0.11 0 0.04 0.11 0 0.06 0.11 0 0.08 0.11 0 0.1 0.11 0 0 0.115 0 0.02 0.115 0 0.04 0.115 0 0.06 0.115 0 0.08 0.115 0 0.1 0.115 0 0 0.12 0 0.02 0.12 0 0.04 0.12 0 0.06 0.12 0 0.08 0.12 0 0.1 0.12 0 0 0.125 0 0.02 0.125 0 0.04 0.125 0 0.06 0.125 0 0.08 0.125 0 0.1 0.125 0 0 0.13 0 0.02 0.13 0 0.04 0.13 0 0.06 0.13 0 0.08 0.13 0 0.1 0.13 0 0 0.135 0 0.02 0.135 0 0.04 0.135 0 0.06 0.135 0 0.08 0.135 0 0.1 0.135 0 0 0.14 0 0.02 0.14 0 0.04 0.14 0 0.06 0.14 0 0.08 0.14 0 0.1 0.14 0 0 0.145 0 0.02 0.145 0 0.04 0.145 0 0.06 0.145 0 0.08 0.145 0 0.1 0.145 0 0 0.15 0 0.02 0.15 0 0.04 0.15 0 0.06 0.15 0 0.08 0.15 0 0.1 0.15 0 0 0.155 0 0.02 0.155 0 0.04 0.155 0 0.06 0.155 0 0.08 0.155 0 0.1 0.155 0 0 0.16 0 0.02 0.16 0 0.04 0.16 0 0.06 0.16 0 0.08 0.16 0 0.1 0.16 0 0 0.165 0 0.02 0.165 0 0.04 0.165 0 0.06 0.165 0 0.08 0.165 0 0.1 0.165 0 0 0.17 0 0.02 0.17 0 0.04 0.17 0 0.06 0.17 0 0.08 0.17 0 0.1 0.17 0 0 0.175 0 0.02 0.175 0 0.04 0.175 0 0.06 0.175 0 0.08 0.175 0 0.1 0.175 0 0 0.18 0 0.02 0.18 0 0.04 0.18 0 0.06 0.18 0 0.08 0.18 0 0.1 0.18 0 0 0.185 0 0.02 0.185 0 0.04 0.185 0 0.06 0.185 0 0.08 0.185 0 0.1 0.185 0 0 0.19 0 0.02 0.19 0 0.04 0.19 0 0.06 0.19 0 0.08 0.19 0 0.1 0.19 0 0 0.195 0 0.02 0.195 0 0.04 0.195 0 0.06 0.195 0 0.08 0.195 0 0.1 0.195 0 0 0.2 0 0.02 0.2 0 0.04 0.2 0 0.06 0.2 0 0.08 0.2 0 0.1 0.2 0 0 0.205 0 0.02 0.205 0 0.04 0.205 0 0.06 0.205 0 0.08 0.205 0 0.1 0.205 0 0 0.21 0 0.02 0.21 0 0.04 0.21 0 0.06 0.21 0 0.08 0.21 0 0.1 0.21 0 0 0.215 0 0.02 0.215 0 0.04 0.215 0 0.06 0.215 0 0.08 0.215 0 0.1 0.215 0 0 0.22 0 0.02 0.22 0 0.04 0.22 0 0.06 0.22 0 0.08 0.22 0 0.1 0.22 0 0 0.225 0 0.02 0.225 0 0.04 0.225 0 0.06 0.225 0 0.08 0.225 0 0.1 0.225 0 0 0.23 0 0.02 0.23 0 0.04 0.23 0 0.06 0.23 0 0.08 0.23 0 0.1 0.23 0 0 0.235 0 0.02 0.235 0 0.04 0.235 0 0.06 0.235 0 0.08 0.235 0 0.1 0.235 0 0 0.24 0 0.02 0.24 0 0.04 0.24 0 0.06 0.24 0 0.08 0.24 0 0.1 0.24 0 0 0.245 0 0.02 0.245 0 0.04 0.245 0 0.06 0.245 0 0.08 0.245 0 0.1 0.245 0 0 0.25 0 0.02 0.25 0 0.04 0.25 0 0.06 0.25 0 0.08 0.25 0 0.1 0.25 0 0 0.255 0 0.02 0.255 0 0.04 0.255 0 0.06 0.255 0 0.08 0.255 0 0.1 0.255 0 0 0.26 0 0.02 0.26 0 0.04 0.26 0 0.06 0.26 0 0.08 0.26 0 0.1 0.26 0 0 0.265 0 0.02 0.265 0 0.04 0.265 0 0.06 0.265 0 0.08 0.265 0 0.1 0.265 0 0 0.27 0 0.02 0.27 0 0.04 0.27 0 0.06 0.27 0 0.08 0.27 0 0.1 0.27 0 0 0.275 0 0.02 0.275 0 0.04 0.275 0 0.06 0.275 0 0.08 0.275 0 0.1 0.275 0 0 0.28 0 0.02 0.28 0 0.04 0.28 0 0.06 0.28 0 0.08 0.28 0 0.1 0.28 0 0 0.285 0 0.02 0.285 0 0.04 0.285 0 0.06 0.285 0 0.08 0.285 0 0.1 0.285 0 0 0.29 0 0.02 0.29 0 0.04 0.29 0 0.06 0.29 0 0.08 0.29 0 0.1 0.29 0 0 0.295 0 0.02 0.295 0 0.04 0.295 0 0.06 0.295 0 0.08 0.295 0 0.1 0.295 0 0 0.3 0 0.02 0.3 0 0.04 0.3 0 0.06 0.3 0 0.08 0.3 0 0.1 0.3 0 0 0.305 0 0.02 0.305 0 0.04 0.305 0 0.06 0.305 0 0.08 0.305 0 0.1 0.305 0 0 0.31 0 0.02 0.31 0 0.04 0.31 0 0.06 0.31 0 0.08 0.31 0 0.1 0.31 0 0 0.315 0 0.02 0.315 0 0.04 0.315 0 0.06 0.315 0 0.08 0.315 0 0.1 0.315 0 0 0.32 0 0.02 0.32 0 0.04 0.32 0 0.06 0.32 0 0.08 0.32 0 0.1 0.32 0 0 0.325 0 0.02 0.325 0 0.04 0.325 0 0.06 0.325 0 0.08 0.325 0 0.1 0.325 0 0 0.33 0 0.02 0.33 0 0.04 0.33 0 0.06 0.33 0 0.08 0.33 0 0.1 0.33 0 0 0.335 0 0.02 0.335 0 0.04 0.335 0 0.06 0.335 0 0.08 0.335 0 0.1 0.335 0 0 0.34 0 0.02 0.34 0 0.04 0.34 0 0.06 0.34 0 0.08 0.34 0 0.1 0.34 0 0 0.345 0 0.02 0.345 0 0.04 0.345 0 0.06 0.345 0 0.08 0.345 0 0.1 0.345 0 0 0.35 0 0.02 0.35 0 0.04 0.35 0 0.06 0.35 0 0.08 0.35 0 0.1 0.35 0 0 0.355001 0 0.02 0.355001 0 0.04 0.355001 0 0.06 0.355001 0 0.08 0.355001 0 0.1 0.355001 0 0 0.360005 0 0.02 0.360005 0 0.04 0.360005 0 0.06 0.360005 0 0.08 0.360005 0 0.1 0.360005 0 0 0.365016 0 0.02 0.365016 0 0.04 0.365016 0 0.06 0.365016 0 0.08 0.365016 0 0.1 0.365016 0 0 0.370047 0 0.02 0.370047 0 0.04 0.370047 0 0.06 0.370047 0 0.08 0.370047 0 0.1 0.370047 0 0 0.375119 0 0.02 0.375119 0 0.04 0.375119 0 0.06 0.375119 0 0.08 0.375119 0 0.1 0.375119 0 0 0.380264 0 0.02 0.380264 0 0.04 0.380264 0 0.06 0.380264 0 0.08 0.380264 0 0.1 0.380264 0 0 0.385519 0 0.02 0.385519 0 0.04 0.385519 0 0.06 0.385519 0 0.08 0.385519 0 0.1 0.385519 0 0 0.39092 0 0.02 0.39092 0 0.04 0.39092 0 0.06 0.39092 0 0.08 0.39092 0 0.1 0.39092 0 0 0.396498 0 0.02 0.396498 0 0.04 0.396498 0 0.06 0.396498 0 0.08 0.396498 0 0.1 0.396498 0 0 0.402278 0 0.02 0.402278 0 0.04 0.402278 0 0.06 0.402278 0 0.08 0.402278 0 0.1 0.402278 0 0 0.408286 0 0.02 0.408286 0 0.04 0.408286 0 0.06 0.408286 0 0.08 0.408286 0 0.1 0.408286 0 0 0.414547 0 0.02 0.414547 0 0.04 0.414547 0 0.06 0.414547 0 0.08 0.414547 0 0.1 0.414547 0 0 0.421088 0 0.02 0.421088 0 0.04 0.421088 0 0.06 0.421088 0 0.08 0.421088 0 0.1 0.421088 0 0 0.427942 0 0.02 0.427942 0 0.04 0.427942 0 0.06 0.427942 0 0.08 0.427942 0 0.1 0.427942 0 0 0.435145 0 0.02 0.435145 0 0.04 0.435145 0 0.06 0.435145 0 0.08 0.435145 0 0.1 0.435145 0 0 0.442737 0 0.02 0.442737 0 0.04 0.442737 0 0.06 0.442737 0 0.08 0.442737 0 0.1 0.442737 0 0 0.450769 0 0.02 0.450769 0 0.04 0.450769 0 0.06 0.450769 0 0.08 0.450769 0 0.1 0.450769 0 0 0.459298 0 0.02 0.459298 0 0.04 0.459298 0 0.06 0.459298 0 0.08 0.459298 0 0.1 0.459298 0 0 0.468393 0 0.02 0.468393 0 0.04 0.468393 0 0.06 0.468393 0 0.08 0.468393 0 0.1 0.468393 0 0 0.478132 0 0.02 0.478132 0 0.04 0.478132 0 0.06 0.478132 0 0.08 0.478132 0 0.1 0.478132 0 0 0.488599 0 0.02 0.488599 0 0.04 0.488599 0 0.06 0.488599 0 0.08 0.488599 0 0.1 0.488599 0 0 0.499858 0 0.02 0.499858 0 0.04 0.499858 0 0.06 0.499858 0 0.08 0.499858 0 0.1 0.499858 0 0 0.51185 0 0.02 0.51185 0 0.04 0.51185 0 0.06 0.51185 0 0.08 0.51185 0 0.1 0.51185 0 0 0.524127 0 0.02 0.524127 0 0.04 0.524127 0 0.06 0.524127 0 0.08 0.524127 0 0.1 0.524127 0 0 0.536236 0 0.02 0.536236 0 0.04 0.536236 0 0.06 0.536236 0 0.08 0.536236 0 0.1 0.536236 0 0 0.54818 0 0.02 0.54818 0 0.04 0.54818 0 0.06 0.54818 0 0.08 0.54818 0 0.1 0.54818 0 0 0.560006 0 0.02 0.560006 0 0.04 0.560006 0 0.06 0.560006 0 0.08 0.560006 0 0.1 0.560006 0 0 0.571776 0 0.02 0.571776 0 0.04 0.571776 0 0.06 0.571776 0 0.08 0.571776 0 0.1 0.571776 0 0 0.583528 0 0.02 0.583528 0 0.04 0.583528 0 0.06 0.583528 0 0.08 0.583528 0 0.1 0.583528 0 0 0.595287 0 0.02 0.595287 0 0.04 0.595287 0 0.06 0.595287 0 0.08 0.595287 0 0.1 0.595287 0 0 0.597898 0 0.02 0.597898 0 0.04 0.597898 0 0.06 0.597898 0 0.08 0.597898 0 0.1 0.597898 0 0 0.600436 0 0.02 0.600436 0 0.04 0.600436 0 0.06 0.600436 0 0.08 0.600436 0 0.1 0.600436 0 0 0.602928 0 0.02 0.602928 0 0.04 0.602928 0 0.06 0.602928 0 0.08 0.602928 0 0.1 0.602928 0 0 0.60539 0 0.02 0.60539 0 0.04 0.60539 0 0.06 0.60539 0 0.08 0.60539 0 0.1 0.60539 0 0 0.607831 0 0.02 0.607831 0 0.04 0.607831 0 0.06 0.607831 0 0.08 0.607831 0 0.1 0.607831 0 0 0.610257 0 0.02 0.610257 0 0.04 0.610257 0 0.06 0.610257 0 0.08 0.610257 0 0.1 0.610257 0 0 0.612673 0 0.02 0.612673 0 0.04 0.612673 0 0.06 0.612673 0 0.08 0.612673 0 0.1 0.612673 0 0 0.615086 0 0.02 0.615086 0 0.04 0.615086 0 0.06 0.615086 0 0.08 0.615086 0 0.1 0.615086 0 0 0.6175 0 0.02 0.6175 0 0.04 0.6175 0 0.06 0.6175 0 0.08 0.6175 0 0.1 0.6175 0 0 0.619898 0 0.02 0.619898 0 0.04 0.619898 0 0.06 0.619898 0 0.08 0.619898 0 0.1 0.619898 0 0 0.622286 0 0.02 0.622286 0 0.04 0.622286 0 0.06 0.622286 0 0.08 0.622286 0 0.1 0.622286 0 0 0.624668 0 0.02 0.624668 0 0.04 0.624668 0 0.06 0.624668 0 0.08 0.624668 0 0.1 0.624668 0 0 0.627047 0 0.02 0.627047 0 0.04 0.627047 0 0.06 0.627047 0 0.08 0.627047 0 0.1 0.627047 0 0 0.629425 0 0.02 0.629425 0 0.04 0.629425 0 0.06 0.629425 0 0.08 0.629425 0 0.1 0.629425 0 0 0.631803 0 0.02 0.631803 0 0.04 0.631803 0 0.06 0.631803 0 0.08 0.631803 0 0.1 0.631803 0 0 0.634177 0 0.02 0.634177 0 0.04 0.634177 0 0.06 0.634177 0 0.08 0.634177 0 0.1 0.634177 0 0 0.63655 0 0.02 0.63655 0 0.04 0.63655 0 0.06 0.63655 0 0.08 0.63655 0 0.1 0.63655 0 0 0.638921 0 0.02 0.638921 0 0.04 0.638921 0 0.06 0.638921 0 0.08 0.638921 0 0.1 0.638921 0 0 0.641293 0 0.02 0.641293 0 0.04 0.641293 0 0.06 0.641293 0 0.08 0.641293 0 0.1 0.641293 0 0 0.643664 0 0.02 0.643664 0 0.04 0.643664 0 0.06 0.643664 0 0.08 0.643664 0 0.1 0.643664 0 0 0.646034 0 0.02 0.646034 0 0.04 0.646034 0 0.06 0.646034 0 0.08 0.646034 0 0.1 0.646034 0 0 0.648403 0 0.02 0.648403 0 0.04 0.648403 0 0.06 0.648403 0 0.08 0.648403 0 0.1 0.648403 0 0 0.650772 0 0.02 0.650772 0 0.04 0.650772 0 0.06 0.650772 0 
[...]
			<PointData Scalars="VitesseX">
				<DataArray Name="VitesseX" type="Float32" format="ascii">
 0 0 0 0 0 0 0 -8.57296e-17 3.28533e-15 5.91406e-15 9.8922e-15 0 0 3.05978e-17 2.31289e-15 5.26117e-15 9.90569e-15 0 0 5.90898e-16 1.09755e-15 4.03146e-15 9.63905e-15 0 0 -2.79114e-16 2.07323e-15 1.30067e-15 1.06974e-14 0 0 -9.89331e-16 3.18532e-15 4.64051e-17 1.10052e-14 0 0 -4.75085e-16 2.08515e-15 3.90906e-16 1.02932e-14 0 0 -2.23935e-15 3.16641e-15 -4.91345e-16 1.01489e-14 0 0 -2.81902e-15 5.14798e-15 -2.18529e-15 1.03235e-14 0 0 -1.63672e-15 6.04663e-15 -4.48155e-15 9.27018e-15 0 0 1.50518e-15 4.1152e-15 -5.12116e-15 8.64636e-15 0 0 3.42453e-15 2.8583e-15 -5.22781e-15 8.77966e-15 0 0 7.74016e-16 5.67901e-15 -5.04691e-15 6.40701e-15 0 0 1.19631e-15 8.98198e-16 2.35554e-15 2.63341e-15 0 0 2.08829e-15 -4.25012e-15 4.53137e-15 3.48391e-15 0 0 -1.16054e-15 -1.19739e-16 -3.18468e-17 7.70678e-15 0 0 -3.45641e-16 -5.78115e-16 1.87917e-16 1.15657e-14 0 0 2.41457e-16 5.31559e-16 -5.19904e-15 1.7086e-14 0 0 -2.13207e-15 2.67036e-16 -4.36868e-15 1.67512e-14 0 0 -2.78987e-15 -3.68676e-15 1.93637e-15 1.17109e-14 0 0 -4.16375e-15 -1.99481e-15 1.023e-15 9.40405e-15 0 0 -1.25388e-15 -4.40387e-15 5.37009e-15 7.64784e-15 0 0 1.46012e-15 -4.55563e-15 6.28907e-15 5.43069e-15 0 0 -3.0395e-16 -3.17989e-15 3.54497e-15 8.22117e-16 0 0 8.47431e-17 -4.54704e-15 1.9112e-15 -1.87138e-15 0 0 -3.24848e-15 1.94917e-15 -6.82311e-15 2.17749e-15 0 0 -8.84097e-15 2.39438e-15 1.56313e-15 -2.53342e-15 0 0 6.80153e-16 -9.68678e-15 1.47736e-14 -8.10563e-15 0 0 3.90892e-15 -8.62712e-16 4.00536e-15 7.75058e-15 0 0 4.6177e-16 9.17131e-15 -6.7216e-16 1.7369e-14 0 0 8.22286e-16 7.41388e-15 5.06132e-15 7.85262e-15 0 0 3.30187e-15 6.21267e-15 1.62948e-15 1.66792e-15 0 0 1.14241e-14 7.49888e-15 -5.40132e-15 -5.40068e-15 0 0 1.37706e-14 1.15091e-14 -7.80976e-15 -1.07047e-14 0 0 9.78001e-15 9.75566e-15 -5.82766e-16 -9.4992e-15 0 0 -3.17038e-16 7.65901e-15 3.97356e-15 -5.65197e-15 0 0 -5.96643e-15 2.41277e-15 3.20969e-15 1.29739e-15 0 0 3.08922e-15 -8.0722e-15 4.78844e-15 6.36524e-15 0 0 1.36708e-15 -4.42653e-15 4.20007e-15 6.73376e-15 0 0 -9.4389e-15 9.60168e-16 7.60181e-15 1.37933e-14 0 0 -7.88428e-15 -2.34265e-15 8.88439e-15 1.49663e-14 0 0 8.315e-15 -1.53164e-14 5.4457e-15 8.85596e-15 0 0 5.56477e-15 -9.18349e-15 -3.62051e-15 6.74728e-15 0 0 -7.6766e-15 1.49428e-14 -1.0522e-14 3.63777e-15 0 0 -1.1425e-15 8.88865e-15 -1.50393e-15 1.01841e-15 0 0 1.45273e-15 -3.29864e-15 8.41881e-15 -8.66022e-15 0 0 -7.99174e-16 -5.83517e-15 1.1337e-14 -9.24016e-15 0 0 -3.77609e-15 1.01818e-15 7.33148e-15 -4.9911e-15 0 0 1.96411e-15 -1.08727e-14 2.59573e-14 -1.3754e-14 0 0 1.68228e-17 -1.25613e-14 2.77713e-14 -3.85852e-15 0 0 -1.04494e-14 1.48299e-14 -1.36715e-14 2.78219e-14 0 0 -8.35599e-15 2.13875e-14 -2.64618e-14 3.7322e-14 0 0 -6.1572e-16 9.28669e-15 -3.66151e-15 1.69602e-14 0 0 9.29673e-15 -5.04223e-16 8.68196e-15 1.51501e-15 0 0 1.80888e-15 1.49116e-14 -1.26645e-15 9.0231e-15 0 0 3.10105e-16 1.80423e-14 -3.74357e-15 2.95301e-14 0 0 1.29445e-14 6.9423e-15 -1.87541e-15 2.87332e-14 0 0 6.82413e-15 1.61273e-14 3.16623e-15 -1.20368e-14 0 0 5.95621e-16 2.49068e-14 2.0462e-16 -2.17983e-14 0 0 1.30006e-14 2.90613e-14 2.56778e-15 -1.21385e-14 0 0 2.90689e-14 1.09135e-14 3.14294e-14 4.43674e-16 0 0 2.44948e-14 -5.83368e-16 2.75672e-14 2.83405e-14 0 0 -9.86705e-15 4.02668e-14 9.93931e-16 6.70938e-15 0 0 -1.77289e-14 3.52256e-14 3.26015e-15 -6.55073e-15 0 0 -6.71695e-15 -1.21432e-14 2.77923e-15 1.50518e-14 0 0 -2.20123e-14 -3.43107e-14 -1.75514e-15 2.01379e-14 0 0 -4.40913e-14 -4.76388e-14 1.92666e-15 1.33135e-14 0 0 -1.73456e-14 -5.61568e-14 -1.40045e-14 7.37972e-16 0 0 2.45684e-14 -6.23286e-14 -3.11672e-14 -1.60997e-14 0 0 6.80779e-15 -5.40073e-14 -2.10221e-14 -2.86702e-14 0 0 -2.97479e-14 -2.83469e-14 9.5624e-15 -3.92848e-14 0 0 -2.8982e-14 -1.28205e-14 -3.293e-15 -2.14738e-14 0 0 -3.05238e-14 -1.06342e-14 -2.09497e-14 -4.82013e-15 0 0 -3.66557e-14 -1.8119e-14 -1.46683e-14 2.15321e-14 0 0 -5.38062e-14 -3.55757e-14 -1.13178e-14 6.94206e-14 0 0 -1.91877e-13 -1.07953e-13 7.00967e-14 1.67372e-13 0 0 -5.53089e-13 -3.4386e-13 3.22086e-13 5.31018e-13 0 0 -1.44638e-12 -9.15937e-13 8.7723e-13 1.45032e-12 0 0 -3.35581e-12 -2.12815e-12 2.07837e-12 3.34973e-12 0 0 -6.86309e-12 -4.25271e-12 4.23121e-12 6.85207e-12 0 0 -1.24388e-11 -7.66548e-12 7.64032e-12 1.24227e-11 0 0 -2.01746e-11 -1.24782e-11 1.24336e-11 2.01573e-11 0 0 -2.94429e-11 -1.81995e-11 1.81719e-11 2.94417e-11 0 0 -3.84632e-11 -2.38126e-11 2.3805e-11 3.8429e-11 0 0 -4.42206e-11 -2.73746e-11 2.73539e-11 4.41826e-11 0 0 -4.24082e-11 -2.62155e-11 2.61834e-11 4.23906e-11 0 0 -2.78208e-11 -1.72142e-11 1.71983e-11 2.77713e-11 0 0 5.03457e-12 3.05153e-12 -3.09083e-12 -5.04144e-12 0 0 6.11374e-11 3.7729e-11 -3.77692e-11 -6.1118e-11 0 0 1.44214e-10 8.9095e-11 -8.911e-11 -1.44225e-10 0 0 2.5581e-10 1.58092e-10 -1.58104e-10 -2.55796e-10 0 0 3.93437e-10 2.43274e-10 -2.43289e-10 -3.93418e-10 0 0 5.44583e-10 3.35314e-10 -3.35328e-10 -5.44593e-10 0 0 6.03708e-10 3.92162e-10 -3.92178e-10 -6.03723e-10 0 0 4.41224e-10 1.59061e-10 -1.59107e-10 -4.41236e-10 0 0 -3.34264e-11 1.77944e-10 -1.77997e-10 3.33836e-11 0 0 -2.79658e-10 -1.82722e-10 1.82705e-10 2.79624e-10 0 0 -7.60063e-10 -6.93318e-10 6.93349e-10 7.60095e-10 0 0 -1.37692e-09 -2.34312e-09 2.34321e-09 1.377e-09 0 0 -8.60611e-09 3.09495e-09 -3.09479e-09 8.60622e-09 0 0 -8.84299e-09 4.98926e-09 -4.98906e-09 8.84314e-09 0 0 3.04541e-08 -1.83635e-08 1.83639e-08 -3.04538e-08 0 0 1.61516e-08 -1.70232e-09 1.70273e-09 -1.61513e-08 0 0 1.0261e-08 3.2115e-09 -3.21104e-09 -1.02607e-08 0 0 7.22756e-09 4.64647e-09 -4.64603e-09 -7.22727e-09 0 0 5.39792e-09 4.80789e-09 -4.80749e-09 -5.39759e-09 0 0 4.26225e-09 4.33471e-09 -4.33435e-09 -4.26196e-09 0 0 3.53901e-09 3.6464e-09 -3.64614e-09 -3.53876e-09 0 0 3.0168e-09 2.95586e-09 -2.95569e-09 -3.01668e-09 0 0 2.66001e-09 2.27344e-09 -2.27339e-09 -2.66e-09 0 0 2.43687e-09 1.66039e-09 -1.66045e-09 -2.43688e-09 0 0 2.23769e-09 1.21879e-09 -1.21891e-09 -2.23774e-09 0 0 2.00231e-09 9.64321e-10 -9.64451e-10 -2.00238e-09 0 0 1.7545e-09 8.48276e-10 -8.48404e-10 -1.75455e-09 0 0 1.52524e-09 7.98136e-10 -7.98241e-10 -1.52527e-09 0 0 1.35395e-09 7.75887e-10 -7.75933e-10 -1.35401e-09 0 0 1.23352e-09 7.53492e-10 -7.53492e-10 -1.23358e-09 0 0 1.10818e-09 6.94932e-10 -6.94908e-10 -1.10824e-09 0 0 9.83215e-10 6.17126e-10 -6.17109e-10 -9.83239e-10 0 0 8.87809e-10 5.53788e-10 -5.53755e-10 -8.87795e-10 0 0 8.05315e-10 4.99613e-10 -4.99491e-10 -8.05347e-10 0 0 7.38366e-10 4.56682e-10 -4.56506e-10 -7.38409e-10 0 0 6.49782e-10 4.01426e-10 -4.01248e-10 -6.49771e-10 0 0 5.34705e-10 3.30238e-10 -3.30071e-10 -5.34646e-10 0 0 4.18327e-10 2.58381e-10 -2.58236e-10 -4.18279e-10 0 0 2.94165e-10 1.81736e-10 -1.81614e-10 -2.94152e-10 0 0 1.68984e-10 1.04405e-10 -1.0429e-10 -1.68987e-10 0 0 4.71432e-11 2.92106e-11 -2.91221e-11 -4.71084e-11 0 0 -6.94346e-11 -4.26597e-11 4.27539e-11 6.94569e-11 0 0 -1.67471e-10 -1.03134e-10 1.0325e-10 1.67483e-10 0 0 -2.43163e-10 -1.49846e-10 1.49969e-10 2.43206e-10 0 0 -2.88856e-10 -1.7807e-10 1.78209e-10 2.88841e-10 0 0 -3.05292e-10 -1.8828e-10 1.88404e-10 3.05322e-10 0 0 -2.95192e-10 -1.82056e-10 1.8217e-10 2.95327e-10 0 0 -2.67507e-10 -1.65052e-10 1.65154e-10 2.67627e-10 0 0 -2.23042e-10 -1.37721e-10 1.37757e-10 2.23139e-10 0 0 -1.68002e-10 -1.03753e-10 1.03726e-10 1.68057e-10 0 0 -1.11956e-10 -6.91592e-11 6.9119e-11 1.11957e-10 0 0 -6.36629e-11 -3.93467e-11 3.93116e-11 6.36449e-11 0 0 -2.95824e-11 -1.82652e-11 1.82161e-11 2.95431e-11 0 0 -1.07154e-11 -6.61651e-12 6.56534e-12 1.06934e-11 0 0 -2.93956e-12 -1.8289e-12 1.78728e-12 2.94205e-12 0 0 -6.31102e-13 -3.87247e-13 3.45768e-13 6.07563e-13 0 0 -1.18988e-13 -8.15773e-14 4.44664e-14 9.10853e-14 0 0 -2.19096e-14 -2.46182e-14 -1.95783e-14 -7.33559e-15 0 0 -1.14735e-15 -1.70422e-14 -3.7161e-14 -2.61088e-14 0 0 2.47448e-15 -8.15416e-15 -3.67164e-14 -2.75761e-14 0 0 -2.39203e-15 1.99609e-15 -2.88703e-14 -3.49014e-14 0 0 -1.10384e-14 1.74548e-14 -2.80773e-14 -3.34618e-14 0 0 -9.64726e-15 2.15482e-14 -4.46052e-14 -2.5253e-14 0 0 1.11957e-14 2.26077e-15 -4.08231e-14 -5.38107e-15 0 0 1.64781e-14 7.88912e-15 -3.74971e-14 3.86318e-15 0 0 1.46322e-16 2.32969e-14 -6.06476e-14 5.13896e-14 0 0 9.88546e-15 2.48784e-15 -5.30501e-14 7.91646e-14 0 0 5.95286e-15 -5.15572e-15 -3.43979e-14 5.81606e-14 0 0 1.421e-14 -2.41151e-14 -6.79966e-15 4.96993e-14 0 0 2.66107e-14 -5.43273e-14 4.55319e-14 2.68026e-14 0 0 -9.65853e-15 -8.1109e-15 4.28274e-14 4.28049e-15 0 0 -4.74978e-14 7.02182e-14 -1.30554e-14 1.43166e-14 0 0 -4.2064e-14 9.23056e-14 -1.53548e-14 -1.53722e-14 0 0 -4.98458e-15 5.99833e-14 2.68702e-14 -3.06992e-14 0 0 5.71604e-15 6.13906e-14 2.81093e-14 3.14037e-14 0 0 1.28355e-14 9.24217e-14 2.42932e-14 2.13012e-15 0 0 8.28761e-17 1.28506e-13 2.60175e-14 -4.28749e-14 0 0 -1.40656e-14 1.10733e-13 5.48623e-14 -4.01183e-14 0 0 2.42731e-15 4.63942e-14 7.24327e-14 -3.48489e-14 0 0 2.30071e-14 -1.84429e-14 9.52492e-14 -1.51153e-14 0 0 3.61801e-14 -3.08357e-14 1.21879e-13 -5.11267e-14 0 0 4.18257e-14 1.75108e-14 4.15564e-14 -6.42529e-14 0 0 2.2108e-14 3.82346e-14 -1.9674e-14 -2.94635e-14 0 0 1.36857e-14 1.59972e-14 -1.85466e-14 -7.65121e-16 0 0 5.41456e-14 -7.8727e-14 5.22793e-14 8.7898e-15 0 0 5.90476e-14 -1.11912e-13 8.07023e-14 4.03167e-14 0 0 8.21785e-15 -4.15737e-14 1.70179e-14 1.24527e-13 0 0 -3.87145e-14 -1.57956e-14 4.87197e-15 1.39721e-13 0 0 -5.20725e-14 -3.97269e-14 2.23464e-14 5.98828e-14 0 0 -6.62601e-14 -2.63211e-14 2.99127e-14 8.29295e-15 0 0 -7.30081e-14 -1.70804e-15 2.13141e-14 5.90051e-15 0 0 -3.24969e-14 -4.47532e-14 4.19616e-14 -1.1001e-14 0 0 -2.82812e-14 -1.76423e-14 3.08433e-15 1.92905e-14 0 0 -1.20329e-14 -4.79638e-15 -5.90489e-16 4.59014e-15 0 0 2.69e-14 -6.98131e-14 9.22474e-14 -8.96502e-14 0 0 2.70312e-14 -7.06457e-14 9.99253e-14 -7.22596e-14 0 0 6.10383e-15 1.05249e-14 1.89433e-14 2.17956e-14 0 0 -2.58185e-14 7.37843e-14 -8.05239e-15 7.11857e-15 0 0 7.50891e-15 -1.16593e-15 5.07017e-14 -4.54324e-14 0 0 4.04298e-14 -5.1294e-14 6.08302e-14 -6.94967e-14 0 0 3.7476e-14 -3.51619e-14 5.44537e-14 -5.52834e-14 0 0 3.02087e-15 2.48061e-14 4.99596e-14 -3.38363e-14 0 0 8.32599e-15 5.33005e-14 8.06466e-14 -1.0738e-13 0 0 4.05442e-14 5.69775e-14 1.2732e-13 -1.3123e-13 0 0 6.33616e-14 8.28265e-14 5.14803e-14 -9.66729e-15 0 0 7.16374e-14 9.29e-14 1.0481e-14 2.62706e-14 0 0 3.9938e-14 9.79609e-14 5.7879e-14 -8.13398e-15 0 0 2.35806e-15 7.62544e-14 6.16027e-14 4.3288e-14 0 0 2.55664e-14 2.94154e-14 5.63103e-14 8.9713e-14 0 0 3.44017e-14 6.09233e-14 -2.82793e-15 8.74721e-14 0 0 -1.58056e-14 1.54485e-13 -8.18143e-14 6.33094e-14 0 0 -1.36032e-14 1.33053e-13 -1.34323e-14 8.31645e-15 0 0 1.16615e-14 6.40622e-14 1.12939e-13 -7.24514e-14 0 0 0 0 0 0 0
				</DataArray>
				<DataArray Name="VitesseY" type="Float32" format="ascii">