<?xml version="1.0"?>
<VTKFile type="PolyData">
	<PolyData>
		<Piece NumberOfPoints="1206" NumberOfPolys="1000">
			<Points>
				<DataArray type="Float32" NumberOfComponents="3" format="ascii">
 0 0 0 0.02 0 0 0.04 0 0 0.06 0 0 0.08 0 0 0.1 0 0 0 0.005 0 0.02 0.005 0 0.04 0.005 0 0.06 0.005 0 0.08 0.005 0 0.1 0.005 0 0 0.01 0 0.02 0.01 0 0.04 0.01 0 0.06 0.01 0 0.08 0.01 0 0.1 0.01 0 0 0.015 0 0.02 0.015 0 0.04 0.015 0 0.06 0.015 0 0.08 0.015 0 0.1 0.015 0 0 0.02 0 0.02 0.02 0 0.04 0.02 0 0.06 0.02 0 0.08 0.02 0 0.1 0.02 0 0 0.025 0 0.02 0.025 0 0.04 0.025 0 0.06 0.025 0 0.08 0.025 0 0.1 0.025 0 0 0.03 0 0.02 0.03 0 0.04 0.03 0 0.06 0.03 0 0.08 0.03 0 0.1 0.03 0 0 0.035 0 0.02 0.035 0 0.04 0.035 0 0.06 0.035 0 0.08 0.035 0 0.1 0.035 0 0 0.04 0 0.02 0.04 0 0.04 0.04 0 0.06 0.04 0 0.08 0.04 0 0.1 0.04 0 0 0.045 0 0.02 0.045 0 0.04 0.045 0 0.06 0.045 0 0.08 0.045 0 0.1 0.045 0 0 0.05 0 0.02 0.05 0 0.04 0.05 0 0.06 0.05 0 0.08 0.05 0 0.1 0.05 0 0 0.055 0 0.02 0.055 0 0.04 0.055 0 0.06 0.055 0 0.08 0.055 0 0.1 0.055 0 0 0.06 0 0.02 0.06 0 0.04 0.06 0 0.06 0.06 0 0.08 0.06 0 0.1 0.06 0 0 0.065 0 0.02 0.065 0 0.04 0.065 0 0.06 0.065 0 0.08 0.065 0 0.1 0.065 0 0 0.07 0 0.02 0.07 0 0.04 0.07 0 0.06 0.07 0 0.08 0.07 0 0.1 0.07 0 0 0.075 0 0.02 0.075 0 0.04 0.075 0 0.06 0.075 0 0.08 0.075 0 0.1 0.075 0 0 0.08 0 0.02 0.08 0 0.04 0.08 0 0.06 0.08 0 0.08 0.08 0 0.1 0.08 0 0 0.085 0 0.02 0.085 0 0.04 0.085 0 0.06 0.085 0 0.08 0.085 0 0.1 0.085 0 0 0.09 0 0.02 0.09 0 0.04 0.09 0 0.06 0.09 0 0.08 0.09 0 0.1 0.09 0 0 0.095 0 0.02 0.095 0 0.04 0.095 0 0.06 0.095 0 0.08 0.095 0 0.1 0.095 0 0 0.1 0 0.02 0.1 0 0.04 0.1 0 0.06 0.1 0 0.08 0.1 0 0.1 0.1 0 0 0.105 0 0.02 0.105 0 0.04 0.105 0 0.06 0.105 0 0.08 0.105 0 0.1 0.105 0 0 0.11 0 0.02 0.11 0 0.04 0.11 0 0.06 0.11 0 0.08 0.11 0 0.1 0.11 0 0 0.115 0 0.02 0.115 0 0.04 0.115 0 0.06 0.115 0 0.08 0.115 0 0.1 0.115 0 0 0.12 0 0.02 0.12 0 0.04 0.12 0 0.06 0.12 0 0.08 0.12 0 0.1 0.12 0 0 0.125 0 0.02 0.125 0 0.04 0.125 0 0.06 0.125 0 0.08 0.125 0 0.1 0.125 0 0 0.13 0 0.02 0.13 0 0.04 0.13 0 0.06 0.13 0 0.08 0.13 0 0.1 0.13 0 0 0.135 0 0.02 0.135 0 0.04 0.135 0 0.06 0.135 0 0.08 0.135 0 0.1 0.135 0 0 0.14 0 0.02 0.14 0 0.04 0.14 0 0.06 0.14 0 0.08 0.14 0 0.1 0.14 0 0 0.145 0 0.02 0.145 0 0.04 0.145 0 0.06 0.145 0 0.08 0.145 0 0.1 0.145 0 0 0.15 0 0.02 0.15 0 0.04 0.15 0 0.06 0.15 0 0.08 0.15 0 0.1 0.15 0 0 0.155 0 0.02 0.155 0 0.04 0.155 0 0.06 0.155 0 0.08 0.155 0 0.1 0.155 0 0 0.16 0 0.02 0.16 0 0.04 0.16 0 0.06 0.16 0 0.08 0.16 0 0.1 0.16 0 0 0.165 0 0.02 0.165 0 0.04 0.165 0 0.06 0.165 0 0.08 0.165 0 0.1 0.165 0 0 0.17 0 0.02 0.17 0 0.04 0.17 0 0.06 0.17 0 0.08 0.17 0 0.1 0.17 0 0 0.175 0 0.02 0.175 0 0.04 0.175 0 0.06 0.175 0 0.08 0.175 0 0.1 0.175 0 0 0.18 0 0.02 0.18 0 0.04 0.18 0 0.06 0.18 0 0.08 0.18 0 0.1 0.18 0 0 0.185 0 0.02 0.185 0 0.04 0.185 0 0.06 0.185 0 0.08 0.185 0 0.1 0.185 0 0 0.19 0 0.02 0.19 0 0.04 0.19 0 0.06 0.19 0 0.08 0.19 0 0.1 0.19 0 0 0.195 0 0.02 0.195 0 0.04 0.195 0 0.06 0.195 0 0.08 0.195 0 0.1 0.195 0 0 0.2 0 0.02 0.2 0 0.04 0.2 0 0.06 0.2 0 0.08 0.2 0 0.1 0.2 0 0 0.205 0 0.02 0.205 0 0.04 0.205 0 0.06 0.205 0 0.08 0.205 0 0.1 0.205 0 0 0.21 0 0.02 0.21 0 0.04 0.21 0 0.06 0.21 0 0.08 0.21 0 0.1 0.21 0 0 0.215 0 0.02 0.215 0 0.04 0.215 0 0.06 0.215 0 0.08 0.215 0 0.1 0.215 0 0 0.22 0 0.02 0.22 0 0.04 0.22 0 0.06 0.22 0 0.08 0.22 0 0.1 0.22 0 0 0.225 0 0.02 0.225 0 0.04 0.225 0 0.06 0.225 0 0.08 0.225 0 0.1 0.225 0 0 0.23 0 0.02 0.23 0 0.04 0.23 0 0.06 0.23 0 0.08 0.23 0 0.1 0.23 0 0 0.235 0 0.02 0.235 0 0.04 0.235 0 0.06 0.235 0 0.08 0.235 0 0.1 0.235 0 0 0.24 0 0.02 0.24 0 0.04 0.24 0 0.06 0.24 0 0.08 0.24 0 0.1 0.24 0 0 0.245 0 0.02 0.245 0 0.04 0.245 0 0.06 0.245 0 0.08 0.245 0 0.1 0.245 0 0 0.25 0 0.02 0.25 0 0.04 0.25 0 0.06 0.25 0 0.08 0.25 0 0.1 0.25 0 0 0.255 0 0.02 0.255 0 0.04 0.255 0 0.06 0.255 0 0.08 0.255 0 0.1 0.255 0 0 0.26 0 0.02 0.26 0 0.04 0.26 0 0.06 0.26 0 0.08 0.26 0 0.1 0.26 0 0 0.265 0 0.02 0.265 0 0.04 0.265 0 0.06 0.265 0 0.08 0.265 0 0.1 0.265 0 0 0.27 0 0.02 0.27 0 0.04 0.27 0 0.06 0.27 0 0.08 0.27 0 0.1 0.27 0 0 0.275 0 0.02 0.275 0 0.04 0.275 0 0.06 0.275 0 0.08 0.275 0 0.1 0.275 0 0 0.28 0 0.02 0.28 0 0.04 0.28 0 0.06 0.28 0 0.08 0.28 0 0.1 0.28 0 0 0.285 0 0.02 0.285 0 0.04 0.285 0 0.06 0.285 0 0.08 0.285 0 0.1 0.285 0 0 0.29 0 0.02 0.29 0 0.04 0.29 0 0.06 0.29 0 0.08 0.29 0 0.1 0.29 0 0 0.295 0 0.02 0.295 0 0.04 0.295 0 0.06 0.295 0 0.08 0.295 0 0.1 0.295 0 0 0.3 0 0.02 0.3 0 0.04 0.3 0 0.06 0.3 0 0.08 0.3 0 0.1 0.3 0 0 0.305 0 0.02 0.305 0 0.04 0.305 0 0.06 0.305 0 0.08 0.305 0 0.1 0.305 0 0 0.31 0 0.02 0.31 0 0.04 0.31 0 0.06 0.31 0 0.08 0.31 0 0.1 0.31 0 0 0.315001 0 0.02 0.315001 0 0.04 0.315001 0 0.06 0.315001 0 0.08 0.315001 0 0.1 0.315001 0 0 0.320003 0 0.02 0.320003 0 0.04 0.320003 0 0.06 0.320003 0 0.08 0.320003 0 0.1 0.320003 0 0 0.32501 0 0.02 0.32501 0 0.04 0.32501 0 0.06 0.32501 0 0.08 0.32501 0 0.1 0.32501 0 0 0.330028 0 0.02 0.330028 0 0.04 0.330028 0 0.06 0.330028 0 0.08 0.330028 0 0.1 0.330028 0 0 0.335069 0 0.02 0.335069 0 0.04 0.335069 0 0.06 0.335069 0 0.08 0.335069 0 0.1 0.335069 0 0 0.340152 0 0.02 0.340152 0 0.04 0.340152 0 0.06 0.340152 0 0.08 0.340152 0 0.1 0.340152 0 0 0.345302 0 0.02 0.345302 0 0.04 0.345302 0 0.06 0.345302 0 0.08 0.345302 0 0.1 0.345302 0 0 0.350545 0 0.02 0.350545 0 0.04 0.350545 0 0.06 0.350545 0 0.08 0.350545 0 0.1 0.350545 0 0 0.355902 0 0.02 0.355902 0 0.04 0.355902 0 0.06 0.355902 0 0.08 0.355902 0 0.1 0.355902 0 0 0.361393 0 0.02 0.361393 0 0.04 0.361393 0 0.06 0.361393 0 0.08 0.361393 0 0.1 0.361393 0 0 0.367034 0 0.02 0.367034 0 0.04 0.367034 0 0.06 0.367034 0 0.08 0.367034 0 0.1 0.367034 0 0 0.372839 0 0.02 0.372839 0 0.04 0.372839 0 0.06 0.372839 0 0.08 0.372839 0 0.1 0.372839 0 0 0.378823 0 0.02 0.378823 0 0.04 0.378823 0 0.06 0.378823 0 0.08 0.378823 0 0.1 0.378823 0 0 0.385 0 0.02 0.385 0 0.04 0.385 0 0.06 0.385 0 0.08 0.385 0 0.1 0.385 0 0 0.391385 0 0.02 0.391385 0 0.04 0.391385 0 0.06 0.391385 0 0.08 0.391385 0 0.1 0.391385 0 0 0.397997 0 0.02 0.397997 0 0.04 0.397997 0 0.06 0.397997 0 0.08 0.397997 0 0.1 0.397997 0 0 0.404855 0 0.02 0.404855 0 0.04 0.404855 0 0.06 0.404855 0 0.08 0.404855 0 0.1 0.404855 0 0 0.411979 0 0.02 0.411979 0 0.04 0.411979 0 0.06 0.411979 0 0.08 0.411979 0 0.1 0.411979 0 0 0.419394 0 0.02 0.419394 0 0.04 0.419394 0 0.06 0.419394 0 0.08 0.419394 0 0.1 0.419394 0 0 0.427128 0 0.02 0.427128 0 0.04 0.427128 0 0.06 0.427128 0 0.08 0.427128 0 0.1 0.427128 0 0 0.435213 0 0.02 0.435213 0 0.04 0.435213 0 0.06 0.435213 0 0.08 0.435213 0 0.1 0.435213 0 0 0.443683 0 0.02 0.443683 0 0.04 0.443683 0 0.06 0.443683 0 0.08 0.443683 0 0.1 0.443683 0 0 0.45258 0 0.02 0.45258 0 0.04 0.45258 0 0.06 0.45258 0 0.08 0.45258 0 0.1 0.45258 0 0 0.46195 0 0.02 0.46195 0 0.04 0.46195 0 0.06 0.46195 0 0.08 0.46195 0 0.1 0.46195 0 0 0.471845 0 0.02 0.471845 0 0.04 0.471845 0 0.06 0.471845 0 0.08 0.471845 0 0.1 0.471845 0 0 0.482318 0 0.02 0.482318 0 0.04 0.482318 0 0.06 0.482318 0 0.08 0.482318 0 0.1 0.482318 0 0 0.493413 0 0.02 0.493413 0 0.04 0.493413 0 0.06 0.493413 0 0.08 0.493413 0 0.1 0.493413 0 0 0.505127 0 0.02 0.505127 0 0.04 0.505127 0 0.06 0.505127 0 0.08 0.505127 0 0.1 0.505127 0 0 0.517286 0 0.02 0.517286 0 0.04 0.517286 0 0.06 0.517286 0 0.08 0.517286 0 0.1 0.517286 0 0 0.529453 0 0.02 0.529453 0 0.04 0.529453 0 0.06 0.529453 0 0.08 0.529453 0 0.1 0.529453 0 0 0.541487 0 0.02 0.541487 0 0.04 0.541487 0 0.06 0.541487 0 0.08 0.541487 0 0.1 0.541487 0 0 0.553395 0 0.02 0.553395 0 0.04 0.553395 0 0.06 0.553395 0 0.08 0.553395 0 0.1 0.553395 0 0 0.565212 0 0.02 0.565212 0 0.04 0.565212 0 0.06 0.565212 0 0.08 0.565212 0 0.1 0.565212 0 0 0.57698 0 0.02 0.57698 0 0.04 0.57698 0 0.06 0.57698 0 0.08 0.57698 0 0.1 0.57698 0 0 0.588725 0 0.02 0.588725 0 0.04 0.588725 0 0.06 0.588725 0 0.08 0.588725 0 0.1 0.588725 0 0 0.600464 0 0.02 0.600464 0 0.04 0.600464 0 0.06 0.600464 0 0.08 0.600464 0 0.1 0.600464 0 0 0.612201 0 0.02 0.612201 0 0.04 0.612201 0 0.06 0.612201 0 0.08 0.612201 0 0.1 0.612201 0 0 0.623951 0 0.02 0.62395 0 0.04 0.62395 0 0.06 0.62395 0 0.08 0.62395 0 0.1 0.623951 0 0 0.626561 0 0.02 0.626561 0 0.04 0.626561 0 0.06 0.626561 0 0.08 0.626561 0 0.1 0.626561 0 0 0.629098 0 0.02 0.629098 0 0.04 0.629098 0 0.06 0.629098 0 0.08 0.629098 0 0.1 0.629098 0 0 0.631589 0 0.02 0.631589 0 0.04 0.631589 0 0.06 0.631589 0 0.08 0.631589 0 0.1 0.631589 0 0 0.63405 0 0.02 0.63405 0 0.04 0.63405 0 0.06 0.63405 0 0.08 0.63405 0 0.1 0.63405 0 0 0.63649 0 0.02 0.63649 0 0.04 0.63649 0 0.06 0.63649 0 0.08 0.63649 0 0.1 0.63649 0 0 0.638913 0 0.02 0.638913 0 0.04 0.638913 0 0.06 0.638913 0 0.08 0.638913 0 0.1 0.638913 0 0 0.641327 0 0.02 0.641327 0 0.04 0.641327 0 0.06 0.641327 0 0.08 0.641327 0 0.1 0.641327 0 0 0.643738 0 0.02 0.643738 0 0.04 0.643738 0 0.06 0.643738 0 0.08 0.643738 0 0.1 0.643738 0 0 0.64615 0 0.02 0.64615 0 0.04 0.64615 0 0.06 0.64615 0 0.08 0.64615 0 0.1 0.64615 0 0 0.648547 0 0.02 0.648547 0 0.04 0.648547 0 0.06 0.648547 0 0.08 0.648547 0 0.1 0.648547 0 0 0.650932 0 0.02 0.650932 0 0.04 0.650932 0 0.06 0.650932 0 0.08 0.650932 0 0.1 0.650932 0 0 0.653313 0 0.02 0.653313 0 0.04 0.653313 0 0.06 0.653313 0 0.08 0.653313 0 0.1 0.653313 0 0 0.655691 0 0.02 0.655691 0 0.04 0.655691 0 0.06 0.655691 0 0.08 0.655691 0 0.1 0.655691 0 0 0.65807 0 0.02 0.65807 0 0.04 0.65807 0 0.06 0.65807 0 0.08 0.65807 0 0.1 0.65807 0 0 0.660448 0 0.02 0.660448 0 0.04 0.660448 0 0.06 0.660448 0 0.08 0.660448 0 0.1 0.660448 0 0 0.662822 0 0.02 0.662822 0 0.04 0.662822 0 0.06 0.662822 0 0.08 0.662822 0 0.1 0.662822 0 0 0.665194 0 0.02 0.665194 0 0.04 0.665194 0 0.06 0.665194 0 0.08 0.665194 0 0.1 0.665194 0 0 0.667563 0 0.02 0.667563 0 0.04 0.667563 0 0.06 0.667563 0 0.08 0.667563 0 0.1 0.667563 0 0 0.669932 0 0.02 0.669932 0 0.04 0.669932 0 0.06 0.669932 0 0.08 0.669932 0 0.1 0.669932 0 0 0.6723 0 0.02 0.6723 0 0.04 0.6723 0 0.06 0.6723 0 0.08 0.6723 0 0.1 0.6723 0 0 0.674665 0 0.02 0.674665 0 0.04 0.674665 0 0.06 0.674665 0 0.08 0.674665 0 0.1 0.674665 0 0 0.677029 0 0.02 0.67702
[...]
			<PointData Scalars="VitesseX">
				<DataArray Name="VitesseX" type="Float32" format="ascii">
 0 0 0 0 0 0 0 2.37228e-15 1.93336e-15 2.65988e-15 7.99876e-15 0 0 1.72743e-15 1.76461e-15 3.65919e-15 7.35552e-15 0 0 1.69585e-15 2.22495e-15 2.77141e-15 8.18094e-15 0 0 2.9917e-15 1.72882e-15 2.36054e-15 9.13731e-15 0 0 2.68178e-15 3.15452e-15 1.68486e-15 9.51518e-15 0 0 1.54961e-15 5.06739e-15 1.11193e-15 9.65733e-15 0 0 1.92829e-15 4.63123e-15 2.05231e-15 1.07082e-14 0 0 1.80809e-15 2.66473e-15 4.34534e-15 1.04168e-14 0 0 8.19132e-16 6.65201e-16 6.8584e-15 9.23692e-15 0 0 1.18549e-15 -1.44262e-15 8.48688e-15 8.223e-15 0 0 1.33267e-15 -2.09084e-15 7.85006e-15 7.12066e-15 0 0 -7.55357e-16 -1.17804e-15 8.46128e-15 3.37258e-15 0 0 -2.92763e-15 2.24835e-15 6.70083e-15 1.08243e-15 0 0 -5.1091e-15 1.01332e-14 -2.52394e-15 2.82111e-15 0 0 -4.01866e-15 7.73761e-15 5.52335e-16 -2.88943e-15 0 0 -2.90148e-15 3.56061e-15 6.2574e-15 -7.47444e-15 0 0 1.94724e-16 3.63492e-15 4.08734e-15 -8.90139e-15 0 0 2.77838e-16 8.50526e-15 -7.25957e-16 -9.54552e-15 0 0 -1.52377e-15 1.10278e-14 1.55201e-15 -6.76342e-15 0 0 4.11828e-15 2.14906e-15 1.00402e-14 -3.1937e-15 0 0 3.48898e-15 6.31891e-15 2.60784e-15 8.28776e-15 0 0 -4.10876e-16 1.30864e-14 -1.12735e-15 1.50697e-14 0 0 -3.62254e-15 1.21429e-14 2.41489e-15 1.26632e-14 0 0 -2.06838e-15 9.67852e-15 8.60069e-16 6.53428e-15 0 0 6.649e-15 4.22073e-16 4.76904e-15 -9.80272e-16 0 0 6.37513e-15 2.05172e-15 -8.86959e-16 3.93073e-15 0 0 -4.09399e-16 8.51237e-15 -5.44214e-16 -7.02582e-16 0 0 2.40224e-15 5.80853e-15 1.31999e-14 -1.79656e-14 0 0 2.50747e-15 7.2786e-15 4.21144e-15 -5.78681e-15 0 0 -4.99092e-15 5.8587e-15 -5.22769e-15 8.61381e-15 0 0 -7.34559e-15 -7.03847e-15 6.4853e-15 1.00489e-15 0 0 -5.5702e-15 -1.20052e-14 1.02573e-14 -7.40221e-16 0 0 -1.27534e-14 2.81572e-15 -3.15145e-15 1.17336e-14 0 0 -1.15116e-14 4.76324e-15 -5.92661e-15 1.51909e-14 0 0 -3.14185e-15 -2.92956e-15 1.56076e-15 4.17212e-15 0 0 -1.06806e-15 -6.04704e-15 4.15979e-15 -4.43495e-15 0 0 1.55397e-16 -1.57057e-15 -2.92538e-15 -6.07e-15 0 0 3.19252e-15 8.72951e-16 -1.01285e-15 -1.54302e-14 0 0 -2.60807e-16 4.55725e-15 3.26884e-16 -1.33059e-14 0 0 -9.88045e-15 1.39188e-14 -9.25234e-15 -6.68017e-15 0 0 -8.77134e-15 6.3983e-15 -1.40757e-14 4.63824e-16 0 0 -2.3472e-15 -9.36217e-15 -1.68992e-15 1.77397e-15 0 0 3.23124e-15 -9.10069e-15 5.62071e-15 -4.10709e-15 0 0 2.83702e-15 2.16441e-15 -2.53031e-15 -3.47832e-15 0 0 -7.95455e-16 5.23502e-15 6.04372e-16 -1.4291e-14 0 0 1.16833e-15 5.28813e-15 8.58991e-15 -2.12497e-14 0 0 8.10034e-15 -1.06664e-15 3.0032e-15 -7.43937e-15 0 0 3.4682e-15 1.05362e-15 -8.28165e-15 5.61269e-15 0 0 7.37703e-15 -1.01641e-15 -2.01781e-14 -2.09359e-15 0 0 3.3231e-14 -1.69414e-14 -5.83069e-15 -2.95157e-14 0 0 2.59036e-14 5.08953e-15 1.42328e-14 -4.60155e-14 0 0 4.42851e-15 1.28912e-14 1.88805e-14 -3.35599e-14 0 0 2.11339e-16 2.17668e-15 2.23432e-14 -3.09382e-14 0 0 -9.76717e-15 1.13348e-14 1.77964e-14 -2.90901e-14 0 0 9.38772e-15 -2.27467e-14 1.42084e-14 -1.60695e-14 0 0 1.23209e-14 -3.93747e-14 -6.41385e-15 9.46361e-15 0 0 -9.31573e-15 -2.0715e-14 -1.78412e-14 1.4603e-14 0 0 -3.16655e-14 -3.30591e-14 6.65819e-15 -1.78708e-14 0 0 -4.88012e-14 -4.42071e-14 -1.16927e-14 -2.26949e-14 0 0 -3.42836e-14 -3.17486e-14 -7.51592e-14 1.4952e-14 0 0 -1.77401e-14 -3.95844e-14 -6.27049e-14 7.69582e-15 0 0 8.48161e-15 -3.95302e-14 -3.49557e-14 -3.92442e-14 0 0 1.46538e-14 -1.85291e-14 -4.25487e-14 -4.97591e-14 0 0 1.00377e-14 -2.09765e-14 -4.73781e-14 -1.47808e-14 0 0 3.36422e-16 -2.79911e-14 -2.30104e-14 -2.3043e-14 0 0 -4.72842e-14 5.87622e-15 -8.63585e-15 -5.82538e-14 0 0 -6.26337e-14 2.79945e-14 -2.4889e-14 -1.27217e-15 0 0 -4.29627e-14 -1.17977e-14 -7.37427e-15 5.57491e-14 0 0 -7.44285e-14 -8.6183e-14 5.18167e-14 6.96287e-14 0 0 -2.48924e-13 -1.62657e-13 1.33266e-13 2.33107e-13 0 0 -5.76467e-13 -3.24398e-13 3.07139e-13 5.6624e-13 0 0 -1.1353e-12 -7.06429e-13 6.88826e-13 1.11176e-12 0 0 -2.03884e-12 -1.28356e-12 1.2461e-12 2.03682e-12 0 0 -3.31114e-12 -2.08318e-12 2.04816e-12 3.33533e-12 0 0 -4.91631e-12 -3.07412e-12 3.05201e-12 4.8902e-12 0 0 -6.53018e-12 -4.04022e-12 4.02123e-12 6.4599e-12 0 0 -7.5756e-12 -4.66921e-12 4.67118e-12 7.52844e-12 0 0 -7.24151e-12 -4.43328e-12 4.44691e-12 7.23677e-12 0 0 -4.4524e-12 -2.75867e-12 2.7502e-12 4.47195e-12 0 0 1.88732e-12 1.1244e-12 -1.13967e-12 -1.90004e-12 0 0 1.28546e-11 7.93145e-12 -7.9366e-12 -1.28902e-11 0 0 2.92525e-11 1.80338e-11 -1.80634e-11 -2.92429e-11 0 0 5.11102e-11 3.16169e-11 -3.16433e-11 -5.1118e-11 0 0 7.77852e-11 4.81111e-11 -4.81165e-11 -7.78044e-11 0 0 1.07512e-10 6.63998e-11 -6.64245e-11 -1.0746e-10 0 0 1.3711e-10 8.4756e-11 -8.47738e-11 -1.37082e-10 0 0 1.62361e-10 1.00383e-10 -1.00373e-10 -1.62395e-10 0 0 1.77344e-10 1.0965e-10 -1.09636e-10 -1.77357e-10 0 0 1.73103e-10 1.07024e-10 -1.0704e-10 -1.7311e-10 0 0 1.29038e-10 7.93955e-11 -7.9409e-11 -1.29067e-10 0 0 -3.07789e-11 -1.48097e-11 1.47998e-11 3.07433e-11 0 0 -2.61982e-10 -1.79085e-10 1.79054e-10 2.61951e-10 0 0 -4.41683e-10 -2.5296e-10 2.52941e-10 4.41674e-10 0 0 -5.32513e-10 -2.88509e-10 2.88517e-10 5.32524e-10 0 0 -5.3312e-10 -5.06403e-10 5.06459e-10 5.33158e-10 0 0 -8.60989e-10 -4.501e-10 4.502e-10 8.61055e-10 0 0 -1.66351e-09 -2.97591e-10 2.97722e-10 1.66359e-09 0 0 -1.52478e-09 -3.29188e-09 3.29203e-09 1.52486e-09 0 0 -8.84182e-09 1.96114e-09 -1.96098e-09 8.84192e-09 0 0 -9.81035e-09 4.71596e-09 -4.71577e-09 9.81048e-09 0 0 2.92014e-08 -1.94274e-08 1.94277e-08 -2.92011e-08 0 0 1.51041e-08 -3.05919e-09 3.05956e-09 -1.51039e-08 0 0 9.45959e-09 1.42724e-09 -1.42685e-09 -9.45942e-09 0 0 6.6662e-09 2.38712e-09 -2.38676e-09 -6.66599e-09 0 0 5.01081e-09 2.25023e-09 -2.2499e-09 -5.01059e-09 0 0 3.89863e-09 1.78047e-09 -1.78018e-09 -3.89844e-09 0 0 3.09599e-09 1.22232e-09 -1.22212e-09 -3.09587e-09 0 0 2.44742e-09 7.11026e-10 -7.10946e-10 -2.4474e-09 0 0 1.86738e-09 3.54396e-10 -3.54474e-10 -1.86739e-09 0 0 1.35016e-09 1.80516e-10 -1.80733e-10 -1.35021e-09 0 0 8.84638e-10 1.18708e-10 -1.18989e-10 -8.84788e-10 0 0 4.6842e-10 1.06311e-10 -1.06597e-10 -4.68572e-10 0 0 1.34942e-10 1.13568e-10 -1.13826e-10 -1.3504e-10 0 0 -1.04109e-10 7.93208e-11 -7.9525e-11 1.04027e-10 0 0 -2.57832e-10 -8.59357e-12 8.41912e-12 2.57767e-10 0 0 -3.61991e-10 -1.12473e-10 1.12333e-10 3.61916e-10 0 0 -4.32218e-10 -2.02713e-10 2.02599e-10 4.32164e-10 0 0 -4.75518e-10 -2.70098e-10 2.7e-10 4.75542e-10 0 0 -4.99272e-10 -3.08927e-10 3.08904e-10 4.99265e-10 0 0 -5.0772e-10 -3.22339e-10 3.22377e-10 5.07717e-10 0 0 -4.98412e-10 -3.15996e-10 3.16001e-10 4.98503e-10 0 0 -4.70835e-10 -2.9583e-10 2.9585e-10 4.70943e-10 0 0 -4.26918e-10 -2.66057e-10 2.66136e-10 4.27023e-10 0 0 -3.70036e-10 -2.29415e-10 2.29515e-10 3.70164e-10 0 0 -3.00323e-10 -1.85755e-10 1.85845e-10 3.00488e-10 0 0 -2.23217e-10 -1.38011e-10 1.38093e-10 2.23395e-10 0 0 -1.56933e-10 -9.70297e-11 9.71447e-11 1.57078e-10 0 0 -9.2549e-11 -5.71914e-11 5.73602e-11 9.26079e-11 0 0 -1.08721e-11 -6.66018e-12 6.8209e-12 1.0915e-11 0 0 8.10041e-11 5.01443e-11 -5.0006e-11 -8.09314e-11 0 0 1.50785e-10 9.33066e-11 -9.31374e-11 -1.50723e-10 0 0 2.02603e-10 1.25345e-10 -1.25179e-10 -2.02517e-10 0 0 2.60415e-10 1.61064e-10 -1.60921e-10 -2.60262e-10 0 0 3.14329e-10 1.94381e-10 -1.94236e-10 -3.14139e-10 0 0 3.60556e-10 2.22891e-10 -2.22752e-10 -3.60308e-10 0 0 3.85819e-10 2.38535e-10 -2.38377e-10 -3.85529e-10 0 0 3.8657e-10 2.3907e-10 -2.3885e-10 -3.86348e-10 0 0 3.69859e-10 2.28733e-10 -2.28495e-10 -3.69691e-10 0 0 3.41366e-10 2.11151e-10 -2.10937e-10 -3.41221e-10 0 0 2.99016e-10 1.84965e-10 -1.84785e-10 -2.98862e-10 0 0 2.52294e-10 1.56042e-10 -1.55894e-10 -2.52114e-10 0 0 2.04975e-10 1.26784e-10 -1.26661e-10 -2.04835e-10 0 0 1.5824e-10 9.78937e-11 -9.7815e-11 -1.58107e-10 0 0 1.15749e-10 7.161e-11 -7.15325e-11 -1.15634e-10 0 0 7.80455e-11 4.8293e-11 -4.81973e-11 -7.79644e-11 0 0 4.67695e-11 2.89431e-11 -2.88776e-11 -4.67257e-11 0 0 2.32976e-11 1.44138e-11 -1.439e-11 -2.3309e-11 0 0 8.34655e-12 5.126e-12 -5.14287e-12 -8.35144e-12 0 0 9.4861e-13 5.45038e-13 -6.16544e-13 -9.57531e-13 0 0 -1.24564e-12 -7.95035e-13 7.0174e-13 1.21099e-12 0 0 -1.07224e-12 -6.85311e-13 5.985e-13 1.00533e-12 0 0 -4.90862e-13 -3.26826e-13 2.25636e-13 3.93001e-13 0 0 -1.63291e-13 -1.39521e-13 4.30676e-14 4.49074e-14 0 0 -4.60251e-14 -7.31576e-14 -3.44984e-14 -4.83271e-14 0 0 -2.7424e-14 -2.8202e-14 -8.68276e-14 -6.21839e-14 0 0 -2.72311e-14 -8.0451e-15 -1.10382e-13 -5.92917e-14 0 0 -6.93662e-15 -3.61058e-14 -9.2207e-14 -7.20182e-14 0 0 2.42684e-15 -6.48394e-14 -6.44566e-14 -8.64273e-14 0 0 5.83489e-15 -9.4536e-14 -4.3396e-14 -6.07236e-14 0 0 -3.02781e-15 -9.00641e-14 -6.23816e-14 -3.87245e-14 0 0 -1.53368e-14 -7.97707e-14 -6.44369e-14 -7.08632e-14 0 0 -1.14727e-14 -8.63759e-14 -6.8736e-14 -8.05659e-14 0 0 -2.65183e-15 -9.69866e-14 -7.44227e-14 -6.47835e-14 0 0 -3.96594e-15 -9.94001e-14 -6.36195e-14 -7.69519e-14 0 0 -3.56201e-14 -6.07309e-14 -8.59887e-14 -6.22962e-14 0 0 -7.68244e-14 -6.39609e-15 -1.20019e-13 -2.14755e-14 0 0 -7.59865e-14 2.77119e-15 -1.28233e-13 8.12739e-16 0 0 -3.48097e-14 -3.59242e-14 -1.09628e-13 2.1463e-14 0 0 -2.28756e-14 -5.41303e-14 -7.80664e-14 3.40889e-14 0 0 -2.35821e-14 -5.74685e-14 -5.16747e-15 -3.40266e-14 0 0 -4.64242e-14 -1.59041e-14 2.05426e-14 -5.26292e-14 0 0 -4.32322e-14 2.20703e-14 -1.12457e-14 1.90707e-14 0 0 8.84093e-15 6.38087e-15 8.75988e-15 1.96915e-14 0 0 4.55037e-14 3.2626e-14 -2.75721e-14 3.53578e-14 0 0 6.91835e-14 5.47527e-14 6.49737e-15 -2.91933e-14 0 0 3.77838e-14 6.78498e-14 8.04078e-14 -1.10346e-13 0 0 -1.4412e-14 9.71502e-14 3.20405e-14 -1.55822e-14 0 0 -7.50254e-15 8.23992e-14 -8.80137e-15 9.43608e-14 0 0 5.50478e-14 6.96747e-16 4.13595e-14 8.53333e-14 0 0 3.35844e-14 9.76551e-15 8.84334e-14 2.56697e-16 0 0 -4.4836e-14 9.55328e-14 5.43578e-14 -2.44613e-14 0 0 -2.07409e-14 8.3933e-14 1.09041e-14 -2.09323e-14 0 0 5.90688e-14 1.35987e-14 -1.49041e-14 -8.12207e-15 0 0 5.78189e-14 -2.64407e-14 2.3771e-16 -2.56142e-15 0 0 -2.16583e-14 1.78991e-14 -3.83768e-14 2.04044e-14 0 0 -5.66375e-14 4.40333e-14 -7.28866e-14 4.68761e-14 0 0 -1.34247e-14 -1.72708e-14 -2.74337e-14 -4.8323e-15 0 0 3.09461e-14 -7.54789e-14 1.5015e-15 -4.57879e-14 0 0 7.95328e-15 -4.95605e-14 -6.25832e-14 5.42527e-15 0 0 1.20699e-14 -6.57255e-14 -8.89005e-14 2.3691e-14 0 0 5.03142e-14 -9.51639e-14 -7.94831e-14 -2.46588e-16 0 0 3.88714e-14 -5.58991e-14 -7.65995e-14 -1.14547e-14 0 0 5.5239e-15 -6.94518e-15 -4.06449e-14 -3.49791e-14 0 0 3.44311e-15 1.92234e-15 3.02291e-14 -1.22865e-13 0 0 2.91136e-15 5.97556e-15 3.18865e-14 -1.16458e-13 0 0 3.00174e-14 -1.54997e-14 -2.2882e-15 -3.45483e-14 0 0 8.07267e-14 -6.44726e-14 8.57496e-16 5.39845e-15 0 0 6.87982e-14 -6.02104e-14 -2.38069e-14 5.62525e-14 0 0 5.31222e-14 -3.39111e-14 -4.67932e-14 7.11907e-14 0 0 0 0 0 0 0
				</DataArray>
				<DataArray Name="VitesseY" type="Float32" format="ascii">