<?xml version="1.0"?>
<VTKFile type="PolyData">
	<PolyData>
		<Piece NumberOfPoints="1206" NumberOfPolys="1000">
			<Points>
				<DataArray type="Float32" NumberOfComponents="3" format="ascii">
 0 0 0 0.02 0 0 0.04 0 0 0.06 0 0 0.08 0 0 0.1 0 0 0 0.005 0 0.02 0.005 0 0.04 0.005 0 0.06 0.005 0 0.08 0.005 0 0.1 0.005 0 0 0.01 0 0.02 0.01 0 0.04 0.01 0 0.06 0.01 0 0.08 0.01 0 0.1 0.01 0 0 0.015 0 0.02 0.015 0 0.04 0.015 0 0.06 0.015 0 0.08 0.015 0 0.1 0.015 0 0 0.02 0 0.02 0.02 0 0.04 0.02 0 0.06 0.02 0 0.08 0.02 0 0.1 0.02 0 0 0.025 0 0.02 0.025 0 0.04 0.025 0 0.06 0.025 0 0.08 0.025 0 0.1 0.025 0 0 0.03 0 0.02 0.03 0 0.04 0.03 0 0.06 0.03 0 0.08 0.03 0 0.1 0.03 0 0 0.035 0 0.02 0.035 0 0.04 0.035 0 0.06 0.035 0 0.08 0.035 0 0.1 0.035 0 0 0.04 0 0.02 0.04 0 0.04 0.04 0 0.06 0.04 0 0.08 0.04 0 0.1 0.04 0 0 0.045 0 0.02 0.045 0 0.04 0.045 0 0.06 0.045 0 0.08 0.045 0 0.1 0.045 0 0 0.05 0 0.02 0.05 0 0.04 0.05 0 0.06 0.05 0 0.08 0.05 0 0.1 0.05 0 0 0.055 0 0.02 0.055 0 0.04 0.055 0 0.06 0.055 0 0.08 0.055 0 0.1 0.055 0 0 0.06 0 0.02 0.06 0 0.04 0.06 0 0.06 0.06 0 0.08 0.06 0 0.1 0.06 0 0 0.065 0 0.02 0.065 0 0.04 0.065 0 0.06 0.065 0 0.08 0.065 0 0.1 0.065 0 0 0.07 0 0.02 0.07 0 0.04 0.07 0 0.06 0.07 0 0.08 0.07 0 0.1 0.07 0 0 0.075 0 0.02 0.075 0 0.04 0.075 0 0.06 0.075 0 0.08 0.075 0 0.1 0.075 0 0 0.08 0 0.02 0.08 0 0.04 0.08 0 0.06 0.08 0 0.08 0.08 0 0.1 0.08 0 0 0.085 0 0.02 0.085 0 0.04 0.085 0 0.06 0.085 0 0.08 0.085 0 0.1 0.085 0 0 0.09 0 0.02 0.09 0 0.04 0.09 0 0.06 0.09 0 0.08 0.09 0 0.1 0.09 0 0 0.095 0 0.02 0.095 0 0.04 0.095 0 0.06 0.095 0 0.08 0.095 0 0.1 0.095 0 0 0.1 0 0.02 0.1 0 0.04 0.1 0 0.06 0.1 0 0.08 0.1 0 0.1 0.1 0 0 0.105 0 0.02 0.105 0 0.04 0.105 0 0.06 0.105 0 0.08 0.105 0 0.1 0.105 0 0 0.11 0 0.02 0.11 0 0.04 0.11 0 0.06 0.11 0 0.08 0.11 0 0.1 0.11 0 0 0.115 0 0.02 0.115 0 0.04 0.115 0 0.06 0.115 0 0.08 0.115 0 0.1 0.115 0 0 0.12 0 0.02 0.12 0 0.04 0.12 0 0.06 0.12 0 0.08 0.12 0 0.1 0.12 0 0 0.125 0 0.02 0.125 0 0.04 0.125 0 0.06 0.125 0 0.08 0.125 0 0.1 0.125 0 0 0.13 0 0.02 0.13 0 0.04 0.13 0 0.06 0.13 0 0.08 0.13 0 0.1 0.13 0 0 0.135 0 0.02 0.135 0 0.04 0.135 0 0.06 0.135 0 0.08 0.135 0 0.1 0.135 0 0 0.14 0 0.02 0.14 0 0.04 0.14 0 0.06 0.14 0 0.08 0.14 0 0.1 0.14 0 0 0.145 0 0.02 0.145 0 0.04 0.145 0 0.06 0.145 0 0.08 0.145 0 0.1 0.145 0 0 0.15 0 0.02 0.15 0 0.04 0.15 0 0.06 0.15 0 0.08 0.15 0 0.1 0.15 0 0 0.155 0 0.02 0.155 0 0.04 0.155 0 0.06 0.155 0 0.08 0.155 0 0.1 0.155 0 0 0.16 0 0.02 0.16 0 0.04 0.16 0 0.06 0.16 0 0.08 0.16 0 0.1 0.16 0 0 0.165 0 0.02 0.165 0 0.04 0.165 0 0.06 0.165 0 0.08 0.165 0 0.1 0.165 0 0 0.17 0 0.02 0.17 0 0.04 0.17 0 0.06 0.17 0 0.08 0.17 0 0.1 0.17 0 0 0.175 0 0.02 0.175 0 0.04 0.175 0 0.06 0.175 0 0.08 0.175 0 0.1 0.175 0 0 0.18 0 0.02 0.18 0 0.04 0.18 0 0.06 0.18 0 0.08 0.18 0 0.1 0.18 0 0 0.185 0 0.02 0.185 0 0.04 0.185 0 0.06 0.185 0 0.08 0.185 0 0.1 0.185 0 0 0.19 0 0.02 0.19 0 0.04 0.19 0 0.06 0.19 0 0.08 0.19 0 0.1 0.19 0 0 0.195 0 0.02 0.195 0 0.04 0.195 0 0.06 0.195 0 0.08 0.195 0 0.1 0.195 0 0 0.2 0 0.02 0.2 0 0.04 0.2 0 0.06 0.2 0 0.08 0.2 0 0.1 0.2 0 0 0.205 0 0.02 0.205 0 0.04 0.205 0 0.06 0.205 0 0.08 0.205 0 0.1 0.205 0 0 0.21 0 0.02 0.21 0 0.04 0.21 0 0.06 0.21 0 0.08 0.21 0 0.1 0.21 0 0 0.215 0 0.02 0.215 0 0.04 0.215 0 0.06 0.215 0 0.08 0.215 0 0.1 0.215 0 0 0.22 0 0.02 0.22 0 0.04 0.22 0 0.06 0.22 0 0.08 0.22 0 0.1 0.22 0 0 0.225 0 0.02 0.225 0 0.04 0.225 0 0.06 0.225 0 0.08 0.225 0 0.1 0.225 0 0 0.23 0 0.02 0.23 0 0.04 0.23 0 0.06 0.23 0 0.08 0.23 0 0.1 0.23 0 0 0.235 0 0.02 0.235 0 0.04 0.235 0 0.06 0.235 0 0.08 0.235 0 0.1 0.235 0 0 0.24 0 0.02 0.24 0 0.04 0.24 0 0.06 0.24 0 0.08 0.24 0 0.1 0.24 0 0 0.245 0 0.02 0.245 0 0.04 0.245 0 0.06 0.245 0 0.08 0.245 0 0.1 0.245 0 0 0.25 0 0.02 0.25 0 0.04 0.25 0 0.06 0.25 0 0.08 0.25 0 0.1 0.25 0 0 0.255 0 0.02 0.255 0 0.04 0.255 0 0.06 0.255 0 0.08 0.255 0 0.1 0.255 0 0 0.26 0 0.02 0.26 0 0.04 0.26 0 0.06 0.26 0 0.08 0.26 0 0.1 0.26 0 0 0.265 0 0.02 0.265 0 0.04 0.265 0 0.06 0.265 0 0.08 0.265 0 0.1 0.265 0 0 0.27 0 0.02 0.27 0 0.04 0.27 0 0.06 0.27 0 0.08 0.27 0 0.1 0.27 0 0 0.275 0 0.02 0.275 0 0.04 0.275 0 0.06 0.275 0 0.08 0.275 0 0.1 0.275 0 0 0.28 0 0.02 0.28 0 0.04 0.28 0 0.06 0.28 0 0.08 0.28 0 0.1 0.28 0 0 0.285 0 0.02 0.285 0 0.04 0.285 0 0.06 0.285 0 0.08 0.285 0 0.1 0.285 0 0 0.29 0 0.02 0.29 0 0.04 0.29 0 0.06 0.29 0 0.08 0.29 0 0.1 0.29 0 0 0.295 0 0.02 0.295 0 0.04 0.295 0 0.06 0.295 0 0.08 0.295 0 0.1 0.295 0 0 0.3 0 0.02 0.3 0 0.04 0.3 0 0.06 0.3 0 0.08 0.3 0 0.1 0.3 0 0 0.305 0 0.02 0.305 0 0.04 0.305 0 0.06 0.305 0 0.08 0.305 0 0.1 0.305 0 0 0.31 0 0.02 0.31 0 0.04 0.31 0 0.06 0.31 0 0.08 0.31 0 0.1 0.31 0 0 0.315 0 0.02 0.315 0 0.04 0.315 0 0.06 0.315 0 0.08 0.315 0 0.1 0.315 0 0 0.32 0 0.02 0.32 0 0.04 0.32 0 0.06 0.32 0 0.08 0.32 0 0.1 0.32 0 0 0.325 0 0.02 0.325 0 0.04 0.325 0 0.06 0.325 0 0.08 0.325 0 0.1 0.325 0 0 0.33 0 0.02 0.33 0 0.04 0.33 0 0.06 0.33 0 0.08 0.33 0 0.1 0.33 0 0 0.335 0 0.02 0.335 0 0.04 0.335 0 0.06 0.335 0 0.08 0.335 0 0.1 0.335 0 0 0.34 0 0.02 0.34 0 0.04 0.34 0 0.06 0.34 0 0.08 0.34 0 0.1 0.34 0 0 0.345 0 0.02 0.345 0 0.04 0.345 0 0.06 0.345 0 0.08 0.345 0 0.1 0.345 0 0 0.35 0 0.02 0.35 0 0.04 0.35 0 0.06 0.35 0 0.08 0.35 0 0.1 0.35 0 0 0.355 0 0.02 0.355 0 0.04 0.355 0 0.06 0.355 0 0.08 0.355 0 0.1 0.355 0 0 0.36 0 0.02 0.36 0 0.04 0.36 0 0.06 0.36 0 0.08 0.36 0 0.1 0.36 0 0 0.365 0 0.02 0.365 0 0.04 0.365 0 0.06 0.365 0 0.08 0.365 0 0.1 0.365 0 0 0.37 0 0.02 0.37 0 0.04 0.37 0 0.06 0.37 0 0.08 0.37 0 0.1 0.37 0 0 0.375 0 0.02 0.375 0 0.04 0.375 0 0.06 0.375 0 0.08 0.375 0 0.1 0.375 0 0 0.38 0 0.02 0.38 0 0.04 0.38 0 0.06 0.38 0 0.08 0.38 0 0.1 0.38 0 0 0.385 0 0.02 0.385 0 0.04 0.385 0 0.06 0.385 0 0.08 0.385 0 0.1 0.385 0 0 0.39 0 0.02 0.39 0 0.04 0.39 0 0.06 0.39 0 0.08 0.39 0 0.1 0.39 0 0 0.395 0 0.02 0.395 0 0.04 0.395 0 0.06 0.395 0 0.08 0.395 0 0.1 0.395 0 0 0.4 0 0.02 0.4 0 0.04 0.4 0 0.06 0.4 0 0.08 0.4 0 0.1 0.4 0 0 0.405 0 0.02 0.405 0 0.04 0.405 0 0.06 0.405 0 0.08 0.405 0 0.1 0.405 0 0 0.41 0 0.02 0.41 0 0.04 0.41 0 0.06 0.41 0 0.08 0.41 0 0.1 0.41 0 0 0.415 0 0.02 0.415 0 0.04 0.415 0 0.06 0.415 0 0.08 0.415 0 0.1 0.415 0 0 0.42 0 0.02 0.42 0 0.04 0.42 0 0.06 0.42 0 0.08 0.42 0 0.1 0.42 0 0 0.425 0 0.02 0.425 0 0.04 0.425 0 0.06 0.425 0 0.08 0.425 0 0.1 0.425 0 0 0.43 0 0.02 0.43 0 0.04 0.43 0 0.06 0.43 0 0.08 0.43 0 0.1 0.43 0 0 0.435002 0 0.02 0.435002 0 0.04 0.435002 0 0.06 0.435002 0 0.08 0.435002 0 0.1 0.435002 0 0 0.440009 0 0.02 0.440009 0 0.04 0.440009 0 0.06 0.440009 0 0.08 0.440009 0 0.1 0.440009 0 0 0.445043 0 0.02 0.445043 0 0.04 0.445043 0 0.06 0.445043 0 0.08 0.445043 0 0.1 0.445043 0 0 0.45016 0 0.02 0.45016 0 0.04 0.45016 0 0.06 0.45016 0 0.08 0.45016 0 0.1 0.45016 0 0 0.455468 0 0.02 0.455468 0 0.04 0.455468 0 0.06 0.455468 0 0.08 0.455468 0 0.1 0.455468 0 0 0.461116 0 0.02 0.461116 0 0.04 0.461116 0 0.06 0.461116 0 0.08 0.461116 0 0.1 0.461116 0 0 0.467264 0 0.02 0.467264 0 0.04 0.467264 0 0.06 0.467264 0 0.08 0.467264 0 0.1 0.467264 0 0 0.474086 0 0.02 0.474086 0 0.04 0.474086 0 0.06 0.474086 0 0.08 0.474086 0 0.1 0.474086 0 0 0.481798 0 0.02 0.481798 0 0.04 0.481798 0 0.06 0.481798 0 0.08 0.481798 0 0.1 0.481798 0 0 0.490693 0 0.02 0.490693 0 0.04 0.490693 0 0.06 0.490693 0 0.08 0.490693 0 0.1 0.490693 0 0 0.501152 0 0.02 0.501152 0 0.04 0.501152 0 0.06 0.501152 0 0.08 0.501152 0 0.1 0.501152 0 0 0.513308 0 0.02 0.513308 0 0.04 0.513308 0 0.06 0.513308 0 0.08 0.513308 0 0.1 0.513308 0 0 0.525764 0 0.02 0.525764 0 0.04 0.525764 0 0.06 0.525764 0 0.08 0.525764 0 0.1 0.525764 0 0 0.537783 0 0.02 0.537783 0 0.04 0.537783 0 0.06 0.537783 0 0.08 0.537783 0 0.1 0.537783 0 0 0.540422 0 0.02 0.540422 0 0.04 0.540422 0 0.06 0.540422 0 0.08 0.540422 0 0.1 0.540422 0 0 0.542986 0 0.02 0.542986 0 0.04 0.542986 0 0.06 0.542986 0 0.08 0.542986 0 0.1 0.542986 0 0 0.545504 0 0.02 0.545504 0 0.04 0.545504 0 0.06 0.545504 0 0.08 0.545504 0 0.1 0.545504 0 0 0.547992 0 0.02 0.547992 0 0.04 0.547992 0 0.06 0.547992 0 0.08 0.547992 0 0.1 0.547992 0 0 0.55046 0 0.02 0.55046 0 0.04 0.55046 0 0.06 0.55046 0 0.08 0.55046 0 0.1 0.55046 0 0 0.552912 0 0.02 0.552912 0 0.04 0.552912 0 0.06 0.552912 0 0.08 0.552912 0 0.1 0.552912 0 0 0.555356 0 0.02 0.555356 0 0.04 0.555356 0 0.06 0.555356 0 0.08 0.555356 0 0.1 0.555356 0 0 0.557802 0 0.02 0.557802 0 0.04 0.557802 0 0.06 0.557802 0 0.08 0.557802 0 0.1 0.557802 0 0 0.560274 0 0.02 0.560274 0 0.04 0.560274 0 0.06 0.560274 0 0.08 0.560274 0 0.1 0.560274 0 0 0.562788 0 0.02 0.562788 0 0.04 0.562788 0 0.06 0.562788 0 0.08 0.562788 0 0.1 0.562788 0 0 0.565362 0 0.02 0.565362 0 0.04 0.565362 0 0.06 0.565362 0 0.08 0.565362 0 0.1 0.565362 0 0 0.568075 0 0.02 0.568075 0 0.04 0.568075 0 0.06 0.568075 0 0.08 0.568075 0 0.1 0.568075 0 0 0.570969 0 0.02 0.570969 0 0.04 0.570969 0 0.06 0.570969 0 0.08 0.570969 0 0.1 0.570969 0 0 0.574138 0 0.02 0.574138 0 0.04 0.574138 0 0.06 0.574138 0 0.08 0.574138 0 0.1 0.574138 0 0 0.577631 0 0.02 0.577631 0 0.04 0.577631 0 0.06 0.577631 0 0.08 0.577631 0 0.1 0.577631 0 0 0.5815 0 0.02 0.5815 0 0.04 0.5815 0 0.06 0.5815 0 0.08 0.5815 0 0.1 0.5815 0 0 0.585745 0 0.02 0.585745 0 0.04 0.585745 0 0.06 0.585745 0 0.08 0.585745 0 0.1 0.585745 0 0 0.590314 0 0.02 0.590314 0 0.04 0.590314 0 0.06 0.590314 0 0.08 0.590314 0 0.1 0.590314 0 0 0.595112 0 0.02 0.595112 0 0.04 0.595112 0 0.06 0.595112 0 0.08 0.595112 0 0.1 0.595112 0 0 0.600035 0 0.02 0.600035 0 0.04 0.600035 0 0.06 0.600035 0 0.08 0.600035 0 0.1 0.600035 0 0 0.60501 0 0.02 0.60501 0 0.04 0.60501 0 0.06 0.60501 0 0.08 0.60501 0 0.1 0.60501 0 0 0.610003 0 0.02 0.610003 0 0.04 0.610003 0 0.06 0.610003 0 0.08 0.610003 0 0.1 0.610003 0 0 0.615001 0 0.02 0.615001 0 0.04 0.615001 0 0.06 0.615001 0 0.08 0.615001 0 0.1 0.615001 0 0 0.62 0 0.02 0.62 0 0.04 0.62 0 0.06 0.62 0 0.08 0.62 0 0.1 0.62 0 0 0.625 0 0.02 0.625 0 0.04 0.625 0 0.06 0.625 0 0.08 0.625 0 0.1 0.625 0 0 0.63 0 0.02 0.63 0 0.04 0.63 0 0.06 0.63 0 0.08 0.63 0 0.1 0.63 0 0 0.635 0 0.02 0.635 0 0.04 0.635 0 0.06 0.635 0 0.08 0.635 0 0.1 0.635 0 0 0.64 0 0.02 0
[...]
			<PointData Scalars="VitesseX">
				<DataArray Name="VitesseX" type="Float32" format="ascii">
 0 0 0 0 0 0 0 6.12286e-16 -1.35329e-15 1.62615e-15 1.92516e-16 0 0 -2.97875e-16 -3.61011e-16 1.85716e-15 -1.71944e-16 0 0 -1.31976e-15 6.89289e-16 1.79586e-15 4.12154e-16 0 0 -1.29012e-15 -9.6591e-17 2.6469e-15 1.17961e-15 0 0 -1.42238e-15 -2.25807e-16 2.07957e-15 2.86536e-15 0 0 -1.27672e-15 9.98044e-16 -9.39202e-17 3.56706e-15 0 0 9.91115e-16 -8.70654e-16 1.05715e-15 1.53744e-15 0 0 1.88072e-15 -2.10883e-15 3.0854e-15 2.50263e-16 0 0 1.58876e-17 4.01674e-16 2.52491e-15 4.60746e-16 0 0 1.61164e-15 1.17286e-16 8.92738e-16 2.71183e-15 0 0 2.89714e-15 -8.96172e-16 1.21935e-15 2.17956e-15 0 0 2.97075e-16 2.05216e-15 -8.33154e-16 1.75991e-15 0 0 1.53313e-15 -2.47717e-15 4.20147e-15 1.02929e-15 0 0 6.94907e-17 -2.70469e-15 8.69265e-15 3.30451e-16 0 0 -7.28603e-16 1.48536e-15 2.65755e-15 5.85375e-15 0 0 1.03967e-15 1.1488e-15 7.52253e-16 7.59205e-15 0 0 -2.0809e-15 3.13593e-15 6.3952e-16 7.66675e-15 0 0 -1.44892e-15 4.2234e-15 7.64956e-17 5.15344e-15 0 0 1.31529e-16 5.92737e-15 -1.85824e-15 3.21732e-15 0 0 -6.54593e-16 3.57751e-15 4.54725e-15 -5.53376e-17 0 0 6.23965e-16 -5.23727e-16 9.47738e-15 -2.09789e-15 0 0 2.23343e-15 -1.43499e-15 3.56847e-15 2.75286e-15 0 0 3.58508e-15 -2.98354e-15 4.7376e-15 2.77735e-15 0 0 1.23886e-16 -4.02504e-17 4.8315e-15 3.27717e-15 0 0 -2.27308e-15 6.97843e-15 -2.13298e-15 5.70949e-15 0 0 1.43962e-15 8.21641e-15 -2.58211e-15 2.00308e-15 0 0 4.67862e-15 6.79008e-15 5.64019e-15 -5.89897e-15 0 0 1.99786e-15 5.3087e-15 1.36301e-14 -1.15919e-14 0 0 -2.28827e-15 5.11394e-15 8.59172e-15 -6.46706e-16 0 0 4.72522e-15 -1.29915e-15 3.09126e-15 8.85411e-15 0 0 1.74203e-15 5.05265e-15 -3.03726e-15 5.26864e-15 0 0 -2.17745e-15 9.39028e-15 -3.53371e-15 4.91628e-15 0 0 4.36636e-15 -5.22498e-15 1.01634e-14 -1.68278e-15 0 0 -2.22295e-15 3.71356e-15 4.0101e-15 -5.59109e-15 0 0 -4.61681e-15 8.49509e-15 -1.68964e-15 -2.07568e-15 0 0 -3.79665e-15 -1.892e-15 5.10854e-15 5.60871e-16 0 0 -4.77348e-15 -1.74289e-15 4.59132e-15 -1.49118e-15 0 0 3.0195e-15 -6.9592e-16 -2.10845e-15 2.33331e-17 0 0 6.13222e-15 1.00164e-15 -5.93572e-15 4.75776e-15 0 0 6.29512e-15 -2.27235e-15 -2.39852e-15 7.33375e-15 0 0 2.73816e-17 3.38705e-15 -3.17665e-15 7.64527e-15 0 0 -1.47743e-15 4.8547e-15 4.85837e-15 -7.74882e-16 0 0 2.94166e-15 8.37703e-16 5.02475e-15 7.77893e-15 0 0 5.38574e-15 1.7995e-15 -3.49357e-15 2.05609e-14 0 0 1.0513e-14 -2.28605e-15 -2.51652e-15 1.26488e-14 0 0 7.41325e-15 -2.22573e-15 4.99014e-16 6.40606e-15 0 0 3.89962e-15 -9.77924e-15 1.11628e-14 8.85125e-15 0 0 7.1067e-16 -6.28008e-15 1.03016e-14 1.57509e-14 0 0 -3.73429e-15 1.05001e-14 5.80879e-15 1.23066e-14 0 0 -4.28125e-15 1.79068e-14 -4.01545e-15 1.46397e-14 0 0 -5.88284e-15 1.78211e-14 -7.5703e-15 1.65324e-14 0 0 1.05767e-14 -3.86754e-15 2.26122e-16 1.09497e-14 0 0 7.59112e-15 -5.37996e-15 -7.11803e-15 1.33322e-14 0 0 -8.09367e-16 7.13498e-15 2.50718e-15 -8.06877e-15 0 0 1.40924e-14 4.83363e-15 1.32312e-14 -1.92697e-14 0 0 3.10771e-15 1.59728e-14 6.32738e-15 -5.6152e-15 0 0 2.48482e-15 3.24234e-15 1.78356e-14 -5.10278e-15 0 0 7.68756e-15 3.09699e-15 8.19713e-15 -7.56859e-16 0 0 1.32506e-14 1.05466e-14 -5.57707e-15 -3.23774e-16 0 0 2.39445e-14 -7.88586e-16 1.39384e-14 -1.93702e-14 0 0 1.78338e-14 -2.43037e-15 1.62854e-14 -1.93816e-14 0 0 1.02708e-14 -2.14046e-15 2.61623e-15 -8.18142e-15 0 0 4.09041e-15 1.05324e-14 -1.36328e-14 1.85286e-16 0 0 6.64083e-15 6.97689e-15 -1.73972e-14 1.20598e-14 0 0 9.28991e-15 -5.01296e-15 -1.59126e-15 7.75667e-15 0 0 2.75729e-15 2.59265e-15 2.28476e-15 3.08353e-15 0 0 8.20888e-15 4.43258e-15 -9.21603e-16 6.51511e-15 0 0 1.82681e-14 5.92741e-15 2.37663e-16 3.30266e-15 0 0 2.31397e-14 2.83277e-15 -3.70457e-15 4.7328e-15 0 0 1.78366e-14 -5.63032e-15 8.0581e-15 -1.94581e-16 0 0 -2.56311e-15 2.01102e-14 -7.27089e-16 1.05087e-14 0 0 -3.3235e-15 2.17705e-14 3.56813e-15 9.67334e-15 0 0 8.31498e-16 6.34381e-15 1.93196e-14 6.92802e-15 0 0 -1.76117e-15 1.47881e-14 2.45657e-14 2.33561e-15 0 0 -8.93951e-16 1.02785e-14 4.1835e-14 -1.00298e-14 0 0 7.82007e-15 9.6349e-15 3.48934e-14 1.84149e-14 0 0 1.66761e-14 2.26607e-14 2.47915e-14 4.39415e-14 0 0 1.69449e-14 2.46811e-14 1.95413e-14 3.96781e-14 0 0 1.38184e-14 8.46052e-15 3.90141e-14 7.55591e-15 0 0 8.77979e-15 -1.5346e-15 3.61503e-14 -2.55682e-14 0 0 5.31101e-15 4.08812e-15 9.63192e-15 -1.66615e-14 0 0 1.23057e-14 8.66916e-15 1.73636e-14 4.60391e-15 0 0 1.6469e-14 1.01671e-14 1.78741e-14 -1.70383e-14 0 0 -3.52082e-15 1.79254e-14 9.88016e-15 -1.23361e-14 0 0 -7.11083e-15 4.64886e-15 1.73257e-15 2.45463e-14 0 0 -1.03618e-14 -1.21227e-15 1.89163e-14 2.51143e-14 0 0 -9.56763e-14 -4.42511e-14 6.56499e-14 1.11133e-13 0 0 -7.87184e-13 -4.7018e-13 4.77173e-13 7.89906e-13 0 0 -4.67413e-12 -2.88435e-12 2.90215e-12 4.68455e-12 0 0 -2.09938e-11 -1.29835e-11 1.2992e-11 2.10226e-11 0 0 -7.14929e-11 -4.41838e-11 4.41965e-11 7.14977e-11 0 0 -1.8981e-10 -1.17334e-10 1.17341e-10 1.89818e-10 0 0 -4.09665e-10 -2.53253e-10 2.53253e-10 4.09653e-10 0 0 -7.47366e-10 -4.62109e-10 4.62102e-10 7.47368e-10 0 0 -1.18938e-09 -7.35333e-10 7.35326e-10 1.1894e-09 0 0 -1.68556e-09 -1.06296e-09 1.06295e-09 1.68558e-09 0 0 -2.48675e-09 -1.00267e-09 1.00266e-09 2.48677e-09 0 0 -1.11255e-09 -5.09694e-09 5.09691e-09 1.11254e-09 0 0 -9.83386e-09 2.39289e-09 -2.39305e-09 9.83377e-09 0 0 -1.40242e-08 1.0182e-08 -1.01824e-08 1.4024e-08 0 0 2.16179e-08 -9.37769e-09 9.37689e-09 -2.16184e-08 0 0 9.04402e-09 4.63055e-09 -4.63133e-09 -9.04449e-09 0 0 5.19439e-09 6.36606e-09 -6.36675e-09 -5.19484e-09 0 0 4.44286e-09 4.27846e-09 -4.27906e-09 -4.44324e-09 0 0 4.36363e-09 2.00891e-09 -2.00946e-09 -4.3639e-09 0 0 3.97756e-09 1.0082e-09 -1.00875e-09 -3.97776e-09 0 0 3.41889e-09 9.86211e-10 -9.86813e-10 -3.41909e-09 0 0 3.04406e-09 1.28598e-09 -1.28666e-09 -3.04439e-09 0 0 2.9261e-09 1.55618e-09 -1.55697e-09 -2.92652e-09 0 0 2.92548e-09 1.71541e-09 -1.71633e-09 -2.92597e-09 0 0 2.90491e-09 1.76379e-09 -1.76484e-09 -2.90545e-09 0 0 2.75214e-09 1.68959e-09 -1.69066e-09 -2.75269e-09 0 0 2.44974e-09 1.50919e-09 -1.51014e-09 -2.45035e-09 0 0 1.99829e-09 1.23262e-09 -1.23348e-09 -1.99882e-09 0 0 1.45822e-09 9.00043e-10 -9.00774e-10 -1.45858e-09 0 0 9.14491e-10 5.64689e-10 -5.65173e-10 -9.14802e-10 0 0 4.68768e-10 2.89534e-10 -2.89812e-10 -4.68958e-10 0 0 1.85362e-10 1.14507e-10 -1.14633e-10 -1.85433e-10 0 0 5.43208e-11 3.35443e-11 -3.35889e-11 -5.43457e-11 0 0 1.206e-11 7.42412e-12 -7.44888e-12 -1.20415e-11 0 0 2.2108e-12 1.38136e-12 -1.38454e-12 -2.19128e-12 0 0 3.70139e-13 2.39529e-13 -2.31296e-13 -3.69624e-13 0 0 7.14692e-14 3.20822e-14 -2.14173e-14 -6.88378e-14 0 0 1.36202e-14 1.19495e-14 -1.02585e-14 4.82751e-15 0 0 1.0794e-14 1.01805e-15 -8.91396e-16 1.33901e-14 0 0 3.36296e-15 8.20352e-15 8.4507e-15 2.56884e-14 0 0 -1.10968e-16 3.8403e-15 2.54309e-14 2.48662e-14 0 0 1.10695e-14 -1.64498e-14 4.98493e-14 -3.07434e-16 0 0 -2.02692e-15 1.16099e-14 1.60226e-14 1.86868e-14 0 0 -1.24437e-15 1.53998e-14 -2.03735e-15 2.96185e-14 0 0 8.14657e-15 1.11635e-14 4.73197e-15 9.41729e-15 0 0 9.36697e-15 2.54571e-14 1.39275e-14 -1.09852e-16 0 0 1.49889e-14 3.06049e-14 9.22976e-15 1.60677e-14 0 0 1.96005e-15 4.14123e-14 -6.96918e-15 5.024e-14 0 0 1.05611e-14 1.81582e-14 8.78656e-15 7.66626e-14 0 0 2.22652e-14 1.96155e-14 -1.39918e-16 7.3368e-14 0 0 -1.56569e-15 3.9337e-14 1.53183e-14 2.64929e-14 0 0 -6.13376e-16 4.33889e-14 2.45135e-14 8.16788e-15 0 0 1.41341e-14 4.56726e-14 4.23401e-17 2.09439e-14 0 0 1.80122e-14 3.3163e-14 1.35271e-14 1.3487e-14 0 0 1.99749e-14 3.65618e-14 8.29644e-15 1.86991e-14 0 0 6.59396e-16 2.86863e-14 2.77025e-14 3.7379e-14 0 0 -1.18645e-14 3.27588e-14 2.46318e-14 3.64935e-14 0 0 4.06713e-14 1.96764e-14 1.14437e-14 -3.50308e-15 0 0 4.93789e-14 2.48697e-14 2.7388e-14 -3.30949e-14 0 0 2.92636e-14 3.41345e-14 4.28584e-14 -1.7225e-14 0 0 2.28074e-14 2.1644e-14 4.31812e-14 2.53184e-14 0 0 4.62902e-15 1.84201e-14 9.20156e-15 5.707e-14 0 0 2.43417e-14 -9.55368e-15 6.88026e-15 3.49725e-14 0 0 1.89538e-14 -1.51425e-14 1.53419e-14 1.1324e-14 0 0 1.89952e-14 -4.94364e-15 2.02868e-14 -2.38411e-14 0 0 3.26459e-14 3.17406e-14 9.3923e-15 -5.54067e-14 0 0 4.30268e-14 2.379e-14 1.52486e-14 -3.8421e-14 0 0 4.55399e-14 1.39102e-14 1.71969e-14 -1.77602e-14 0 0 3.38035e-14 7.99241e-15 4.05494e-14 -3.78597e-14 0 0 1.77559e-14 7.77623e-15 2.33023e-14 -1.65681e-14 0 0 -1.27507e-14 3.97752e-14 -7.36866e-15 1.09953e-14 0 0 1.89368e-14 2.45265e-14 1.77721e-15 2.77004e-14 0 0 6.5114e-14 1.19801e-14 9.80291e-15 4.65181e-14 0 0 3.58063e-14 4.7917e-14 5.32908e-14 -3.73822e-14 0 0 -6.1985e-15 1.1211e-13 2.73837e-14 -5.95049e-14 0 0 4.13333e-15 7.491e-14 3.75144e-14 -3.81968e-15 0 0 1.84958e-14 9.41463e-15 7.85322e-14 1.73296e-14 0 0 -1.5526e-15 1.90523e-14 4.70212e-14 4.22131e-14 0 0 5.1331e-15 4.65353e-15 6.00822e-14 1.58002e-14 0 0 4.69165e-15 1.1674e-14 7.88194e-14 -3.94428e-14 0 0 1.72403e-14 -2.59436e-15 8.69192e-14 -6.15996e-14 0 0 6.39905e-14 -2.72134e-14 5.96669e-14 -3.59573e-14 0 0 5.15783e-14 1.41444e-14 -1.40876e-14 2.31886e-14 0 0 4.41893e-14 -1.33504e-16 3.59674e-14 -2.68968e-14 0 0 3.69804e-14 7.77224e-15 3.90094e-14 -2.82729e-14 0 0 1.61848e-14 2.51245e-14 -4.66453e-15 2.36592e-14 0 0 3.77014e-14 7.96388e-15 1.73555e-14 3.10105e-14 0 0 2.05746e-14 3.2526e-14 1.12169e-14 5.6983e-14 0 0 2.03115e-14 7.72573e-15 5.60925e-14 2.91103e-14 0 0 4.64311e-14 -1.06302e-14 6.59805e-14 3.50032e-14 0 0 1.74424e-14 3.58781e-14 6.16014e-14 1.08376e-14 0 0 3.87163e-14 3.41997e-14 7.05152e-14 -3.84497e-14 0 0 5.44375e-14 4.00635e-14 3.14303e-14 -4.07442e-14 0 0 1.68451e-14 6.38619e-14 2.40227e-14 -4.3148e-14 0 0 4.10114e-14 1.12522e-14 3.84611e-14 -1.02922e-14 0 0 7.84275e-14 -3.45387e-15 9.18068e-15 4.20859e-14 0 0 7.67642e-14 2.88927e-14 -1.02101e-14 8.50291e-14 0 0 5.60308e-14 5.35824e-14 7.35935e-16 5.42669e-14 0 0 2.32039e-14 5.57074e-14 1.9912e-14 -2.4861e-14 0 0 2.81676e-14 3.31158e-14 2.44944e-14 -5.43502e-14 0 0 5.11139e-14 3.26129e-14 -1.71989e-14 -5.83088e-15 0 0 3.36148e-14 3.5958e-14 -2.04592e-14 2.71522e-14 0 0 1.91824e-14 7.25805e-15 3.31592e-14 -6.10327e-15 0 0 2.37287e-14 -5.26705e-15 3.09047e-14 -8.01872e-16 0 0 1.93117e-14 7.32823e-15 -1.20136e-14 2.39391e-14 0 0 4.99235e-15 1.99083e-14 -7.28848e-15 -4.48508e-15 0 0 3.68574e-15 4.50347e-14 -4.2015e-15 -6.23624e-15 0 0 -2.19116e-15 3.81066e-14 1.05932e-14 1.50952e-14 0 0 -2.77285e-15 1.20963e-14 -3.1108e-15 6.72214e-14 0 0 2.1232e-14 -1.56899e-14 5.18568e-15 3.26636e-14 0 0 1.79428e-14 2.02781e-15 8.63076e-15 -1.90133e-14 0 0 -4.90411e-15 1.83849e-14 6.80507e-15 -8.58116e-15 0 0 -4.78427e-15 2.72366e-15 5.35195e-14 -4.55158e-14 0 0 0 0 0 0 0
				</DataArray>
				<DataArray Name="VitesseY" type="Float32" format="ascii">