<?xml version="1.0"?>
<VTKFile type="PolyData">
	<PolyData>
		<Piece NumberOfPoints="1206" NumberOfPolys="1000">
			<Points>
				<DataArray type="Float32" NumberOfComponents="3" format="ascii">
 0 0 0 0.02 0 0 0.04 0 0 0.06 0 0 0.08 0 0 0.1 0 0 0 0.005 0 0.02 0.005 0 0.04 0.005 0 0.06 0.005 0 0.08 0.005 0 0.1 0.005 0 0 0.01 0 0.02 0.01 0 0.04 0.01 0 0.06 0.01 0 0.08 0.01 0 0.1 0.01 0 0 0.015 0 0.02 0.015 0 0.04 0.015 0 0.06 0.015 0 0.08 0.015 0 0.1 0.015 0 0 0.02 0 0.02 0.02 0 0.04 0.02 0 0.06 0.02 0 0.08 0.02 0 0.1 0.02 0 0 0.025 0 0.02 0.025 0 0.04 0.025 0 0.06 0.025 0 0.08 0.025 0 0.1 0.025 0 0 0.03 0 0.02 0.03 0 0.04 0.03 0 0.06 0.03 0 0.08 0.03 0 0.1 0.03 0 0 0.035 0 0.02 0.035 0 0.04 0.035 0 0.06 0.035 0 0.08 0.035 0 0.1 0.035 0 0 0.04 0 0.02 0.04 0 0.04 0.04 0 0.06 0.04 0 0.08 0.04 0 0.1 0.04 0 0 0.045 0 0.02 0.045 0 0.04 0.045 0 0.06 0.045 0 0.08 0.045 0 0.1 0.045 0 0 0.05 0 0.02 0.05 0 0.04 0.05 0 0.06 0.05 0 0.08 0.05 0 0.1 0.05 0 0 0.055 0 0.02 0.055 0 0.04 0.055 0 0.06 0.055 0 0.08 0.055 0 0.1 0.055 0 0 0.06 0 0.02 0.06 0 0.04 0.06 0 0.06 0.06 0 0.08 0.06 0 0.1 0.06 0 0 0.065 0 0.02 0.065 0 0.04 0.065 0 0.06 0.065 0 0.08 0.065 0 0.1 0.065 0 0 0.07 0 0.02 0.07 0 0.04 0.07 0 0.06 0.07 0 0.08 0.07 0 0.1 0.07 0 0 0.075 0 0.02 0.075 0 0.04 0.075 0 0.06 0.075 0 0.08 0.075 0 0.1 0.075 0 0 0.08 0 0.02 0.08 0 0.04 0.08 0 0.06 0.08 0 0.08 0.08 0 0.1 0.08 0 0 0.085 0 0.02 0.085 0 0.04 0.085 0 0.06 0.085 0 0.08 0.085 0 0.1 0.085 0 0 0.09 0 0.02 0.09 0 0.04 0.09 0 0.06 0.09 0 0.08 0.09 0 0.1 0.09 0 0 0.095 0 0.02 0.095 0 0.04 0.095 0 0.06 0.095 0 0.08 0.095 0 0.1 0.095 0 0 0.1 0 0.02 0.1 0 0.04 0.1 0 0.06 0.1 0 0.08 0.1 0 0.1 0.1 0 0 0.105 0 0.02 0.105 0 0.04 0.105 0 0.06 0.105 0 0.08 0.105 0 0.1 0.105 0 0 0.11 0 0.02 0.11 0 0.04 0.11 0 0.06 0.11 0 0.08 0.11 0 0.1 0.11 0 0 0.115 0 0.02 0.115 0 0.04 0.115 0 0.06 0.115 0 0.08 0.115 0 0.1 0.115 0 0 0.12 0 0.02 0.12 0 0.04 0.12 0 0.06 0.12 0 0.08 0.12 0 0.1 0.12 0 0 0.125 0 0.02 0.125 0 0.04 0.125 0 0.06 0.125 0 0.08 0.125 0 0.1 0.125 0 0 0.13 0 0.02 0.13 0 0.04 0.13 0 0.06 0.13 0 0.08 0.13 0 0.1 0.13 0 0 0.135 0 0.02 0.135 0 0.04 0.135 0 0.06 0.135 0 0.08 0.135 0 0.1 0.135 0 0 0.14 0 0.02 0.14 0 0.04 0.14 0 0.06 0.14 0 0.08 0.14 0 0.1 0.14 0 0 0.145 0 0.02 0.145 0 0.04 0.145 0 0.06 0.145 0 0.08 0.145 0 0.1 0.145 0 0 0.15 0 0.02 0.15 0 0.04 0.15 0 0.06 0.15 0 0.08 0.15 0 0.1 0.15 0 0 0.155 0 0.02 0.155 0 0.04 0.155 0 0.06 0.155 0 0.08 0.155 0 0.1 0.155 0 0 0.16 0 0.02 0.16 0 0.04 0.16 0 0.06 0.16 0 0.08 0.16 0 0.1 0.16 0 0 0.165 0 0.02 0.165 0 0.04 0.165 0 0.06 0.165 0 0.08 0.165 0 0.1 0.165 0 0 0.17 0 0.02 0.17 0 0.04 0.17 0 0.06 0.17 0 0.08 0.17 0 0.1 0.17 0 0 0.175 0 0.02 0.175 0 0.04 0.175 0 0.06 0.175 0 0.08 0.175 0 0.1 0.175 0 0 0.18 0 0.02 0.18 0 0.04 0.18 0 0.06 0.18 0 0.08 0.18 0 0.1 0.18 0 0 0.185 0 0.02 0.185 0 0.04 0.185 0 0.06 0.185 0 0.08 0.185 0 0.1 0.185 0 0 0.19 0 0.02 0.19 0 0.04 0.19 0 0.06 0.19 0 0.08 0.19 0 0.1 0.19 0 0 0.195 0 0.02 0.195 0 0.04 0.195 0 0.06 0.195 0 0.08 0.195 0 0.1 0.195 0 0 0.2 0 0.02 0.2 0 0.04 0.2 0 0.06 0.2 0 0.08 0.2 0 0.1 0.2 0 0 0.205 0 0.02 0.205 0 0.04 0.205 0 0.06 0.205 0 0.08 0.205 0 0.1 0.205 0 0 0.21 0 0.02 0.21 0 0.04 0.21 0 0.06 0.21 0 0.08 0.21 0 0.1 0.21 0 0 0.215 0 0.02 0.215 0 0.04 0.215 0 0.06 0.215 0 0.08 0.215 0 0.1 0.215 0 0 0.22 0 0.02 0.22 0 0.04 0.22 0 0.06 0.22 0 0.08 0.22 0 0.1 0.22 0 0 0.225 0 0.02 0.225 0 0.04 0.225 0 0.06 0.225 0 0.08 0.225 0 0.1 0.225 0 0 0.23 0 0.02 0.23 0 0.04 0.23 0 0.06 0.23 0 0.08 0.23 0 0.1 0.23 0 0 0.235 0 0.02 0.235 0 0.04 0.235 0 0.06 0.235 0 0.08 0.235 0 0.1 0.235 0 0 0.24 0 0.02 0.24 0 0.04 0.24 0 0.06 0.24 0 0.08 0.24 0 0.1 0.24 0 0 0.245 0 0.02 0.245 0 0.04 0.245 0 0.06 0.245 0 0.08 0.245 0 0.1 0.245 0 0 0.25 0 0.02 0.25 0 0.04 0.25 0 0.06 0.25 0 0.08 0.25 0 0.1 0.25 0 0 0.255 0 0.02 0.255 0 0.04 0.255 0 0.06 0.255 0 0.08 0.255 0 0.1 0.255 0 0 0.26 0 0.02 0.26 0 0.04 0.26 0 0.06 0.26 0 0.08 0.26 0 0.1 0.26 0 0 0.265 0 0.02 0.265 0 0.04 0.265 0 0.06 0.265 0 0.08 0.265 0 0.1 0.265 0 0 0.27 0 0.02 0.27 0 0.04 0.27 0 0.06 0.27 0 0.08 0.27 0 0.1 0.27 0 0 0.275 0 0.02 0.275 0 0.04 0.275 0 0.06 0.275 0 0.08 0.275 0 0.1 0.275 0 0 0.28 0 0.02 0.28 0 0.04 0.28 0 0.06 0.28 0 0.08 0.28 0 0.1 0.28 0 0 0.285 0 0.02 0.285 0 0.04 0.285 0 0.06 0.285 0 0.08 0.285 0 0.1 0.285 0 0 0.29 0 0.02 0.29 0 0.04 0.29 0 0.06 0.29 0 0.08 0.29 0 0.1 0.29 0 0 0.295 0 0.02 0.295 0 0.04 0.295 0 0.06 0.295 0 0.08 0.295 0 0.1 0.295 0 0 0.3 0 0.02 0.3 0 0.04 0.3 0 0.06 0.3 0 0.08 0.3 0 0.1 0.3 0 0 0.305 0 0.02 0.305 0 0.04 0.305 0 0.06 0.305 0 0.08 0.305 0 0.1 0.305 0 0 0.31 0 0.02 0.31 0 0.04 0.31 0 0.06 0.31 0 0.08 0.31 0 0.1 0.31 0 0 0.315 0 0.02 0.315 0 0.04 0.315 0 0.06 0.315 0 0.08 0.315 0 0.1 0.315 0 0 0.32 0 0.02 0.32 0 0.04 0.32 0 0.06 0.32 0 0.08 0.32 0 0.1 0.32 0 0 0.325 0 0.02 0.325 0 0.04 0.325 0 0.06 0.325 0 0.08 0.325 0 0.1 0.325 0 0 0.33 0 0.02 0.33 0 0.04 0.33 0 0.06 0.33 0 0.08 0.33 0 0.1 0.33 0 0 0.335 0 0.02 0.335 0 0.04 0.335 0 0.06 0.335 0 0.08 0.335 0 0.1 0.335 0 0 0.340001 0 0.02 0.340001 0 0.04 0.340001 0 0.06 0.340001 0 0.08 0.340001 0 0.1 0.340001 0 0 0.345003 0 0.02 0.345003 0 0.04 0.345003 0 0.06 0.345003 0 0.08 0.345003 0 0.1 0.345003 0 0 0.35001 0 0.02 0.35001 0 0.04 0.35001 0 0.06 0.35001 0 0.08 0.35001 0 0.1 0.35001 0 0 0.355029 0 0.02 0.355029 0 0.04 0.355029 0 0.06 0.355029 0 0.08 0.355029 0 0.1 0.355029 0 0 0.360074 0 0.02 0.360074 0 0.04 0.360074 0 0.06 0.360074 0 0.08 0.360074 0 0.1 0.360074 0 0 0.365171 0 0.02 0.365171 0 0.04 0.365171 0 0.06 0.365171 0 0.08 0.365171 0 0.1 0.365171 0 0 0.37035 0 0.02 0.37035 0 0.04 0.37035 0 0.06 0.37035 0 0.08 0.37035 0 0.1 0.37035 0 0 0.375643 0 0.02 0.375643 0 0.04 0.375643 0 0.06 0.375643 0 0.08 0.375643 0 0.1 0.375643 0 0 0.381079 0 0.02 0.381079 0 0.04 0.381079 0 0.06 0.381079 0 0.08 0.381079 0 0.1 0.381079 0 0 0.386682 0 0.02 0.386682 0 0.04 0.386682 0 0.06 0.386682 0 0.08 0.386682 0 0.1 0.386682 0 0 0.392473 0 0.02 0.392473 0 0.04 0.392473 0 0.06 0.392473 0 0.08 0.392473 0 0.1 0.392473 0 0 0.398473 0 0.02 0.398473 0 0.04 0.398473 0 0.06 0.398473 0 0.08 0.398473 0 0.1 0.398473 0 0 0.404703 0 0.02 0.404703 0 0.04 0.404703 0 0.06 0.404703 0 0.08 0.404703 0 0.1 0.404703 0 0 0.411185 0 0.02 0.411185 0 0.04 0.411185 0 0.06 0.411185 0 0.08 0.411185 0 0.1 0.411185 0 0 0.417943 0 0.02 0.417943 0 0.04 0.417943 0 0.06 0.417943 0 0.08 0.417943 0 0.1 0.417943 0 0 0.425008 0 0.02 0.425008 0 0.04 0.425008 0 0.06 0.425008 0 0.08 0.425008 0 0.1 0.425008 0 0 0.432411 0 0.02 0.432411 0 0.04 0.432411 0 0.06 0.432411 0 0.08 0.432411 0 0.1 0.432411 0 0 0.440191 0 0.02 0.440191 0 0.04 0.440191 0 0.06 0.440191 0 0.08 0.440191 0 0.1 0.440191 0 0 0.448391 0 0.02 0.448391 0 0.04 0.448391 0 0.06 0.448391 0 0.08 0.448391 0 0.1 0.448391 0 0 0.457063 0 0.02 0.457063 0 0.04 0.457063 0 0.06 0.457063 0 0.08 0.457063 0 0.1 0.457063 0 0 0.466266 0 0.02 0.466266 0 0.04 0.466266 0 0.06 0.466266 0 0.08 0.466266 0 0.1 0.466266 0 0 0.476069 0 0.02 0.476069 0 0.04 0.476069 0 0.06 0.476069 0 0.08 0.476069 0 0.1 0.476069 0 0 0.486541 0 0.02 0.486541 0 0.04 0.486541 0 0.06 0.486541 0 0.08 0.486541 0 0.1 0.486541 0 0 0.497739 0 0.02 0.497739 0 0.04 0.497739 0 0.06 0.497739 0 0.08 0.497739 0 0.1 0.497739 0 0 0.509631 0 0.02 0.509631 0 0.04 0.509631 0 0.06 0.509631 0 0.08 0.509631 0 0.1 0.509631 0 0 0.521888 0 0.02 0.521888 0 0.04 0.521888 0 0.06 0.521888 0 0.08 0.521888 0 0.1 0.521888 0 0 0.534026 0 0.02 0.534026 0 0.04 0.534026 0 0.06 0.534026 0 0.08 0.534026 0 0.1 0.534026 0 0 0.546013 0 0.02 0.546013 0 0.04 0.546013 0 0.06 0.546013 0 0.08 0.546013 0 0.1 0.546013 0 0 0.557874 0 0.02 0.557874 0 0.04 0.557874 0 0.06 0.557874 0 0.08 0.557874 0 0.1 0.557874 0 0 0.569665 0 0.02 0.569665 0 0.04 0.569665 0 0.06 0.569665 0 0.08 0.569665 0 0.1 0.569665 0 0 0.581426 0 0.02 0.581426 0 0.04 0.581426 0 0.06 0.581426 0 0.08 0.581426 0 0.1 0.581426 0 0 0.593177 0 0.02 0.593177 0 0.04 0.593177 0 0.06 0.593177 0 0.08 0.593177 0 0.1 0.593177 0 0 0.604936 0 0.02 0.604936 0 0.04 0.604936 0 0.06 0.604936 0 0.08 0.604936 0 0.1 0.604936 0 0 0.607551 0 0.02 0.607551 0 0.04 0.607551 0 0.06 0.607551 0 0.08 0.607551 0 0.1 0.607551 0 0 0.610091 0 0.02 0.610091 0 0.04 0.610091 0 0.06 0.610091 0 0.08 0.610091 0 0.1 0.610091 0 0 0.612584 0 0.02 0.612584 0 0.04 0.612584 0 0.06 0.612584 0 0.08 0.612584 0 0.1 0.612584 0 0 0.615046 0 0.02 0.615046 0 0.04 0.615046 0 0.06 0.615046 0 0.08 0.615046 0 0.1 0.615046 0 0 0.617486 0 0.02 0.617486 0 0.04 0.617486 0 0.06 0.617486 0 0.08 0.617486 0 0.1 0.617486 0 0 0.619909 0 0.02 0.619909 0 0.04 0.619909 0 0.06 0.619909 0 0.08 0.619909 0 0.1 0.619909 0 0 0.622319 0 0.02 0.622319 0 0.04 0.622319 0 0.06 0.622319 0 0.08 0.622319 0 0.1 0.622319 0 0 0.62472 0 0.02 0.62472 0 0.04 0.62472 0 0.06 0.62472 0 0.08 0.62472 0 0.1 0.62472 0 0 0.627115 0 0.02 0.627115 0 0.04 0.627115 0 0.06 0.627115 0 0.08 0.627115 0 0.1 0.627115 0 0 0.629503 0 0.02 0.629503 0 0.04 0.629503 0 0.06 0.629503 0 0.08 0.629503 0 0.1 0.629503 0 0 0.631886 0 0.02 0.631886 0 0.04 0.631886 0 0.06 0.631886 0 0.08 0.631886 0 0.1 0.631886 0 0 0.634265 0 0.02 0.634265 0 0.04 0.634265 0 0.06 0.634265 0 0.08 0.634265 0 0.1 0.634265 0 0 0.636639 0 0.02 0.636639 0 0.04 0.636639 0 0.06 0.636639 0 0.08 0.636639 0 0.1 0.636639 0 0 0.639011 0 0.02 0.639011 0 0.04 0.639011 0 0.06 0.639011 0 0.08 0.639011 0 0.1 0.639011 0 0 0.641381 0 0.02 0.641381 0 0.04 0.641381 0 0.06 0.641381 0 0.08 0.641381 0 0.1 0.641381 0 0 0.643748 0 0.02 0.643748 0 0.04 0.643748 0 0.06 0.643748 0 0.08 0.643748 0 0.1 0.643748 0 0 0.646113 0 0.02 0.646113 0 0.04 0.646113 0 0.06 0.646113 0 0.08 0.646113 0 0.1 0.646113 0 0 0.648476 0 0.02 0.648476 0 0.04 0.648476 0 0.06 0.648476 0 0.08 0.648476 0 0.1 0.648476 0 0 0.650838 0 0.02 0.650838 0 0.04 0.650838 0 0.06 0.650838 0 0.08 0.650838 0 0.1 0.650838 0 0 0.653199 0 0.02 0.653199 0 0.04 0.653199 0 0.06 0.653199 0 0.08 0.653199 0 0.1 0.653199 0 0 0.655558 0 0.02 0.655558 0 0.04 0.655558 0 0.06 0.655558 0 0.08 0.655558 0 0.1 0.655558 0 0 0.657917 0 0.02 0.657917 0 0.04 0.657917 0 0.06 0.657917 0 0.
[...]
			<PointData Scalars="VitesseX">
				<DataArray Name="VitesseX" type="Float32" format="ascii">
 0 -1.45508e-16 -1.99878e-15 1.23053e-15 3.58466e-15 0 0 -1.52855e-16 -1.59012e-15 9.93959e-16 3.22104e-15 0 0 -8.79883e-16 -2.45477e-16 2.81244e-16 2.74049e-15 0 0 -1.80236e-15 1.36697e-15 -5.25456e-16 1.92386e-15 0 0 -1.96769e-15 1.92667e-15 -1.00235e-15 1.75149e-15 0 0 -1.60623e-15 1.60234e-15 -2.12156e-16 4.25528e-16 0 0 -1.57796e-15 1.84433e-15 -2.77547e-16 -1.54652e-15 0 0 -9.97981e-16 5.59543e-16 4.49836e-16 -2.83166e-15 0 0 6.58967e-16 -1.57682e-15 2.69899e-15 -4.02588e-15 0 0 7.30333e-16 -8.22905e-16 2.61422e-15 -4.22689e-15 0 0 -5.99547e-17 2.76606e-15 -6.26662e-16 -3.15952e-15 0 0 -1.19416e-15 5.7592e-15 -1.64533e-18 -3.28842e-15 0 0 -2.80819e-15 6.18909e-15 2.23501e-15 -2.79455e-15 0 0 -1.43053e-15 2.69687e-15 2.57149e-15 5.89036e-16 0 0 2.79507e-16 3.92619e-16 1.64417e-15 5.0077e-15 0 0 1.99334e-15 -1.73497e-16 1.71465e-15 7.49422e-15 0 0 3.39889e-15 -2.29853e-16 2.25275e-15 7.88282e-15 0 0 -1.03879e-15 4.24155e-15 7.51877e-16 6.76517e-15 0 0 -3.1078e-15 2.91297e-15 2.04538e-15 4.63781e-15 0 0 -1.99207e-15 -2.08618e-15 6.38759e-15 1.0976e-15 0 0 -3.64267e-15 -8.61531e-16 6.36231e-15 -2.96093e-15 0 0 3.73395e-16 -4.88867e-15 4.69074e-15 -4.61775e-15 0 0 2.27766e-15 -4.62505e-15 1.4701e-15 -5.40098e-15 0 0 -4.17974e-16 2.2502e-16 -3.55503e-15 -7.78409e-15 0 0 1.36402e-15 -5.18641e-16 -2.71276e-15 -1.07081e-14 0 0 -1.10023e-15 2.92903e-15 -5.01212e-15 -9.30096e-15 0 0 -2.2541e-15 3.57766e-15 -7.83288e-15 -4.99133e-15 0 0 1.1106e-15 -7.18841e-16 -2.02482e-15 -2.9488e-15 0 0 -1.4404e-15 9.93086e-16 3.65248e-17 -7.19464e-16 0 0 -3.65517e-15 4.81471e-15 -7.24068e-15 4.95747e-15 0 0 2.23477e-15 -7.17707e-15 2.89407e-15 -2.79884e-15 0 0 -2.53528e-15 -1.6946e-15 -1.06437e-15 -2.91174e-15 0 0 -4.67333e-15 8.12356e-15 -1.7747e-14 1.23135e-14 0 0 5.09154e-15 -5.78605e-16 -1.099e-14 8.50582e-15 0 0 3.72607e-15 2.7727e-15 -8.58834e-15 -3.53637e-15 0 0 8.18099e-16 1.18478e-15 -4.18386e-15 -6.4209e-15 0 0 -2.24496e-15 -5.04875e-15 7.9781e-15 -7.76477e-15 0 0 -2.73261e-16 -8.3759e-15 1.4152e-14 -8.85996e-15 0 0 3.19882e-15 -4.84379e-15 1.01726e-14 -2.63181e-16 0 0 4.87029e-17 4.27896e-15 5.96168e-15 8.09703e-15 0 0 4.57064e-15 1.61885e-15 6.80025e-15 7.8297e-15 0 0 1.27805e-14 -3.07509e-15 5.05708e-15 1.14094e-14 0 0 9.0789e-15 -2.28324e-16 8.88284e-15 9.8405e-15 0 0 2.47715e-15 7.1621e-15 8.65298e-15 7.78921e-15 0 0 4.15197e-15 1.21654e-14 -1.16497e-16 1.42e-14 0 0 3.59359e-15 1.11833e-14 1.64354e-15 9.66994e-15 0 0 -1.03552e-15 8.54999e-15 1.12528e-14 7.72644e-15 0 0 2.62889e-15 2.37376e-15 1.58756e-14 6.54571e-15 0 0 9.45532e-15 -1.2118e-15 8.8097e-15 9.14877e-15 0 0 2.83415e-15 9.93223e-15 -3.72313e-15 2.13978e-14 0 0 3.36867e-15 1.02611e-14 -2.253e-15 2.01679e-14 0 0 3.58043e-15 5.2937e-15 4.29174e-15 1.86845e-14 0 0 2.78028e-15 -7.57317e-16 1.2141e-14 9.22082e-15 0 0 1.54123e-17 8.82332e-15 -4.69439e-16 6.47681e-15 0 0 -2.92846e-15 2.47086e-14 -1.51379e-14 1.99051e-14 0 0 7.98448e-15 1.50691e-14 1.44198e-15 2.00758e-14 0 0 1.3074e-14 8.79058e-15 2.17407e-14 1.01737e-14 0 0 7.24211e-15 -3.39227e-15 4.21734e-14 -5.75767e-15 0 0 8.05887e-16 -1.48502e-14 4.76518e-14 -2.91099e-15 0 0 -6.6079e-15 -1.95337e-14 5.27354e-14 1.41813e-15 0 0 1.64884e-15 -2.90324e-14 4.51386e-14 -3.72598e-16 0 0 3.88131e-15 -1.97669e-14 2.63053e-14 9.44725e-15 0 0 -2.74491e-14 -2.08446e-14 3.04945e-14 9.65735e-15 0 0 -1.55229e-14 -4.48299e-14 3.14616e-14 1.35922e-15 0 0 -2.87979e-15 -2.84015e-14 1.34111e-14 -9.93894e-15 0 0 -1.19778e-14 -2.86488e-15 -1.98531e-14 -6.44437e-15 0 0 -1.82147e-14 6.29165e-15 -3.04417e-14 4.66151e-15 0 0 -3.18845e-14 -3.15557e-15 -2.96849e-15 -7.33679e-15 0 0 -2.14091e-14 -6.60409e-15 -1.31345e-14 -3.79246e-15 0 0 -4.6808e-15 -3.76292e-15 -3.16568e-14 1.81825e-14 0 0 3.87541e-15 -1.34011e-14 -2.2509e-14 5.50642e-15 0 0 -7.0066e-15 -8.98254e-15 -2.3258e-14 1.42492e-15 0 0 7.62548e-15 -1.84487e-14 4.16288e-15 -5.07086e-15 0 0 1.31006e-14 3.94133e-15 -6.41027e-15 -1.45592e-14 0 0 5.39352e-15 1.73932e-16 -3.65693e-14 -8.04554e-15 0 0 3.28696e-15 -2.04777e-14 -9.53809e-15 -1.87425e-14 0 0 -1.74809e-15 -1.16227e-14 3.50916e-15 -1.76748e-14 0 0 3.72741e-14 -9.58631e-15 -6.10727e-15 -3.46656e-14 0 0 1.32277e-14 7.09449e-15 -1.10339e-14 -2.68254e-14 0 0 7.676e-15 -5.93619e-15 -2.38314e-14 9.75116e-15 0 0 1.33974e-14 -2.12928e-14 -1.08826e-14 7.4457e-15 0 0 -2.95739e-14 6.34782e-15 -2.48667e-14 2.36561e-14 0 0 -1.59556e-14 7.36458e-15 -4.73508e-14 3.01523e-14 0 0 -2.05623e-15 -3.02088e-14 -1.54828e-14 -3.49487e-16 0 0 1.56795e-14 -2.78975e-14 -8.46126e-15 -1.66807e-14 0 0 6.65232e-15 -6.83532e-15 -1.8384e-14 -1.95682e-14 0 0 -3.56007e-14 8.98891e-15 -4.65552e-15 -2.8117e-14 0 0 -8.17496e-15 -1.24706e-14 6.84666e-15 -1.42824e-14 0 0 1.7314e-14 -7.03216e-15 -1.27697e-14 1.35328e-14 0 0 2.15003e-15 8.02595e-15 -1.45883e-14 1.09225e-15 0 0 8.8756e-15 -1.64785e-14 2.92631e-15 2.37197e-14 0 0 5.91803e-15 7.80117e-15 1.58109e-15 1.0381e-14 0 0 3.22031e-14 3.47011e-14 2.18604e-14 3.4726e-14 0 0 3.19978e-14 3.53696e-14 3.6478e-14 3.2858e-14 0 0 -3.95374e-14 -3.73158e-14 -4.64866e-14 -2.36396e-14 0 0 -1.56964e-13 -2.3501e-13 -2.51686e-13 -1.28918e-13 0 0 -3.0649e-13 -4.89042e-13 -5.03251e-13 -3.01725e-13 0 0 -4.07889e-13 -6.73671e-13 -6.64912e-13 -4.24666e-13 0 0 -4.2133e-13 -6.93079e-13 -6.93543e-13 -4.35932e-13 0 0 -3.96093e-13 -6.33153e-13 -6.37895e-13 -3.98489e-13 0 0 -4.04358e-13 -6.75146e-13 -6.62092e-13 -4.18725e-13 0 0 -6.43929e-13 -1.06739e-12 -1.10686e-12 -6.45538e-13 0 0 -6.46306e-13 -1.03358e-12 -1.07979e-12 -6.06003e-13 0 0 -6.56228e-13 -1.06772e-12 -1.05872e-12 -6.38901e-13 0 0 -6.79368e-13 -1.10375e-12 -1.08657e-12 -6.46789e-13 0 0 -7.07608e-13 -1.19146e-12 -1.13914e-12 -6.65086e-13 0 0 -7.08225e-13 -1.21113e-12 -1.17314e-12 -6.84526e-13 0 0 -6.26656e-13 -9.91313e-13 -1.02529e-12 -5.53694e-13 0 0 -2.96344e-13 -4.63963e-13 -5.34244e-13 -2.32839e-13 0 0 2.24004e-13 3.08198e-13 2.7234e-13 2.38179e-13 0 0 6.80399e-13 1.09507e-12 1.06703e-12 7.18797e-13 0 0 9.59556e-13 1.57415e-12 1.55149e-12 9.81374e-13 0 0 1.01727e-12 1.64864e-12 1.63936e-12 1.08399e-12 0 0 9.15133e-13 1.46298e-12 1.48797e-12 9.94306e-13 0 0 7.44e-13 1.16324e-12 1.23803e-12 7.98971e-13 0 0 5.50035e-13 8.47657e-13 9.18877e-13 6.14773e-13 0 0 3.51354e-13 5.53359e-13 5.96026e-13 4.47928e-13 0 0 1.68776e-13 3.13154e-13 3.13207e-13 3.19411e-13 0 0 1.92017e-14 5.97118e-14 1.06944e-13 1.38407e-13 0 0 -1.06514e-13 -1.5349e-13 -1.26154e-13 -4.3589e-14 0 0 -2.304e-13 -3.28411e-13 -3.36543e-13 -7.51959e-14 0 0 -3.44194e-13 -5.27124e-13 -4.74488e-13 -2.46528e-13 0 0 -4.2922e-13 -6.97652e-13 -6.10563e-13 -4.10235e-13 0 0 -5.13741e-13 -8.46935e-13 -7.4776e-13 -4.62569e-13 0 0 -5.80099e-13 -9.77929e-13 -8.91515e-13 -5.69937e-13 0 0 -6.43048e-13 -1.05065e-12 -1.04779e-12 -6.13113e-13 0 0 -6.82572e-13 -1.11919e-12 -1.14333e-12 -7.20742e-13 0 0 -7.00623e-13 -1.22127e-12 -1.22324e-12 -7.83506e-13 0 0 -7.68536e-13 -1.26425e-12 -1.37483e-12 -8.16934e-13 0 0 -8.30506e-13 -1.30128e-12 -1.4227e-12 -8.61058e-13 0 0 -8.54278e-13 -1.36657e-12 -1.44006e-12 -8.532e-13 0 0 -8.69888e-13 -1.39609e-12 -1.51835e-12 -8.40175e-13 0 0 -8.7645e-13 -1.40557e-12 -1.54945e-12 -7.61909e-13 0 0 -8.74319e-13 -1.42191e-12 -1.53359e-12 -8.18461e-13 0 0 -8.71052e-13 -1.37391e-12 -1.46328e-12 -9.12042e-13 0 0 -7.95973e-13 -1.33752e-12 -1.32749e-12 -9.04126e-13 0 0 -7.38574e-13 -1.36683e-12 -1.2391e-12 -8.68897e-13 0 0 -7.01692e-13 -1.24543e-12 -1.16194e-12 -8.03097e-13 0 0 -6.23171e-13 -1.05647e-12 -1.08185e-12 -6.53137e-13 0 0 -5.2872e-13 -8.44245e-13 -9.63063e-13 -5.45406e-13 0 0 -3.97844e-13 -6.38671e-13 -7.22907e-13 -3.78942e-13 0 0 -2.72024e-13 -4.66443e-13 -5.22427e-13 -2.3291e-13 0 0 -1.61807e-13 -2.97203e-13 -2.86531e-13 -2.16347e-13 0 0 -8.98438e-14 -1.49786e-13 -1.83656e-13 -6.47092e-14 0 0 -5.10019e-14 -3.81274e-14 -1.37542e-13 -8.55675e-15 0 0 -2.75651e-14 -1.25365e-14 -4.86784e-14 -4.09355e-14 0 0 -1.43587e-14 -1.96268e-14 -3.56838e-14 -1.14066e-14 0 0 -1.5595e-14 -1.90508e-14 -2.29342e-14 -2.71025e-14 0 0 -1.19775e-14 -1.41191e-14 -9.09037e-15 -5.34636e-14 0 0 -9.2373e-15 -1.56675e-14 -2.21966e-14 -2.87708e-14 0 0 -1.14284e-14 -1.60276e-14 -2.03666e-14 -2.25394e-14 0 0 -9.36414e-15 -2.43969e-14 -1.3105e-14 -2.01507e-14 0 0 -5.57762e-15 -1.62057e-14 -3.1367e-14 -3.18503e-15 0 0 -5.1583e-15 -1.06249e-14 -2.83114e-14 -7.27612e-16 0 0 -1.88484e-14 -1.13607e-14 -1.91658e-14 7.06144e-15 0 0 -1.57829e-14 -1.40858e-14 -2.6086e-14 1.69169e-14 0 0 -2.06749e-14 -2.12892e-14 -1.9178e-14 4.55048e-14 0 0 -7.67148e-15 -4.20637e-14 7.59243e-15 5.30649e-14 0 0 -9.07624e-16 -2.86659e-14 1.72878e-15 4.07791e-14 0 0 -3.32728e-14 3.79444e-14 -4.78522e-14 5.3446e-14 0 0 -2.11287e-14 3.12537e-14 -1.14432e-14 -9.1847e-15 0 0 -8.24597e-16 1.66767e-14 2.25383e-14 -4.10401e-14 0 0 -1.30861e-14 3.31865e-14 4.96065e-14 -6.24015e-14 0 0 -1.94297e-14 2.80901e-14 5.64007e-14 -5.06392e-14 0 0 6.27988e-15 3.11e-14 -2.05034e-14 8.67461e-14 0 0 2.26041e-14 4.07348e-14 -4.46665e-14 1.22164e-13 0 0 2.31671e-14 4.69001e-14 -2.22708e-14 1.48258e-13 0 0 3.72229e-14 2.00736e-14 1.71483e-14 1.63098e-13 0 0 1.21582e-14 2.84858e-14 3.37432e-14 6.72114e-14 0 0 6.04563e-15 2.9911e-14 2.73575e-14 1.08617e-14 0 0 2.72637e-14 -2.91595e-14 6.84265e-14 1.92815e-14 0 0 -8.01495e-15 -7.33302e-14 1.68098e-13 -6.70706e-15 0 0 -4.25073e-14 -3.80083e-14 1.52525e-13 -4.22208e-15 0 0 -8.7854e-15 -5.00428e-17 -1.40806e-14 1.10943e-13 0 0 1.86751e-14 -8.47831e-15 -3.26461e-14 1.28884e-13 0 0 1.65588e-14 -1.00872e-14 2.14767e-14 7.84833e-14 0 0 4.72403e-15 1.86376e-14 2.66114e-15 1.29305e-13 0 0 -4.71895e-15 2.10497e-14 3.9218e-14 1.36836e-13 0 0 -1.39004e-14 4.04327e-14 5.6005e-14 8.53555e-14 0 0 -1.83102e-14 3.85676e-14 6.52286e-14 3.10521e-14 0 0 -1.46537e-14 -2.37051e-14 3.70047e-14 7.97013e-14 0 0 -2.16396e-14 -2.13821e-14 1.67467e-14 1.05959e-13 0 0 -8.41495e-15 2.23979e-14 9.85272e-15 5.33998e-14 0 0 1.14703e-14 3.42032e-14 2.48851e-14 4.40488e-16 0 0 6.88766e-15 3.01274e-14 1.11707e-13 -4.2502e-14 0 0 -2.63444e-14 9.8175e-14 6.36121e-14 2.91384e-14 0 0 -2.47334e-14 1.2998e-13 -5.02154e-15 3.58934e-14 0 0 2.2821e-14 9.01136e-14 3.17808e-14 -5.69487e-14 0 0 2.28239e-14 1.037e-13 4.70878e-14 -8.1617e-14 0 0 4.06595e-15 1.07879e-13 4.10346e-14 -5.83941e-14 0 0 1.98926e-14 3.83229e-14 6.43769e-14 -2.78376e-14 0 0 1.12353e-14 3.89835e-14 3.37029e-14 5.10003e-14 0 0 4.974e-15 4.01046e-14 2.68626e-14 6.5811e-14 0 0 2.3008e-14 -3.4429e-14 1.09978e-13 1.91793e-15 0 0 1.29952e-14 -3.54849e-14 1.13094e-13 -8.05736e-15 0 0 1.42586e-14 -8.87186e-15 7.83568e-14 1.26659e-14 0 0 5.28963e-15 3.51993e-14 7.58811e-14 -1.34772e-14 0 0 -1.97053e-14 8.63997e-14 5.63081e-14 -1.36218e-15 0 0 8.80948e-15 5.84489e-14 6.13042e-14 2.56249e-14 0 0 2.28544e-14 5.56618e-14 6.0091e-14 5.85946e-15 0 0 1.15924e-14 8.31061e-14 3.70213e-14 5.2725e-15 0
				</DataArray>
				<DataArray Name="VitesseY" type="Float32" format="ascii">