<?xml version="1.0"?>
<VTKFile type="PolyData">
	<PolyData>
		<Piece NumberOfPoints="1206" NumberOfPolys="1000">
			<Points>
				<DataArray type="Float32" NumberOfComponents="3" format="ascii">
 0 0 0 0.02 0 0 0.04 0 0 0.06 0 0 0.08 0 0 0.1 0 0 0 0.005 0 0.02 0.005 0 0.04 0.005 0 0.06 0.005 0 0.08 0.005 0 0.1 0.005 0 0 0.01 0 0.02 0.01 0 0.04 0.01 0 0.06 0.01 0 0.08 0.01 0 0.1 0.01 0 0 0.015 0 0.02 0.015 0 0.04 0.015 0 0.06 0.015 0 0.08 0.015 0 0.1 0.015 0 0 0.02 0 0.02 0.02 0 0.04 0.02 0 0.06 0.02 0 0.08 0.02 0 0.1 0.02 0 0 0.025 0 0.02 0.025 0 0.04 0.025 0 0.06 0.025 0 0.08 0.025 0 0.1 0.025 0 0 0.03 0 0.02 0.03 0 0.04 0.03 0 0.06 0.03 0 0.08 0.03 0 0.1 0.03 0 0 0.035 0 0.02 0.035 0 0.04 0.035 0 0.06 0.035 0 0.08 0.035 0 0.1 0.035 0 0 0.04 0 0.02 0.04 0 0.04 0.04 0 0.06 0.04 0 0.08 0.04 0 0.1 0.04 0 0 0.045 0 0.02 0.045 0 0.04 0.045 0 0.06 0.045 0 0.08 0.045 0 0.1 0.045 0 0 0.05 0 0.02 0.05 0 0.04 0.05 0 0.06 0.05 0 0.08 0.05 0 0.1 0.05 0 0 0.055 0 0.02 0.055 0 0.04 0.055 0 0.06 0.055 0 0.08 0.055 0 0.1 0.055 0 0 0.06 0 0.02 0.06 0 0.04 0.06 0 0.06 0.06 0 0.08 0.06 0 0.1 0.06 0 0 0.065 0 0.02 0.065 0 0.04 0.065 0 0.06 0.065 0 0.08 0.065 0 0.1 0.065 0 0 0.07 0 0.02 0.07 0 0.04 0.07 0 0.06 0.07 0 0.08 0.07 0 0.1 0.07 0 0 0.075 0 0.02 0.075 0 0.04 0.075 0 0.06 0.075 0 0.08 0.075 0 0.1 0.075 0 0 0.08 0 0.02 0.08 0 0.04 0.08 0 0.06 0.08 0 0.08 0.08 0 0.1 0.08 0 0 0.085 0 0.02 0.085 0 0.04 0.085 0 0.06 0.085 0 0.08 0.085 0 0.1 0.085 0 0 0.09 0 0.02 0.09 0 0.04 0.09 0 0.06 0.09 0 0.08 0.09 0 0.1 0.09 0 0 0.095 0 0.02 0.095 0 0.04 0.095 0 0.06 0.095 0 0.08 0.095 0 0.1 0.095 0 0 0.1 0 0.02 0.1 0 0.04 0.1 0 0.06 0.1 0 0.08 0.1 0 0.1 0.1 0 0 0.105 0 0.02 0.105 0 0.04 0.105 0 0.06 0.105 0 0.08 0.105 0 0.1 0.105 0 0 0.11 0 0.02 0.11 0 0.04 0.11 0 0.06 0.11 0 0.08 0.11 0 0.1 0.11 0 0 0.115 0 0.02 0.115 0 0.04 0.115 0 0.06 0.115 0 0.08 0.115 0 0.1 0.115 0 0 0.12 0 0.02 0.12 0 0.04 0.12 0 0.06 0.12 0 0.08 0.12 0 0.1 0.12 0 0 0.125 0 0.02 0.125 0 0.04 0.125 0 0.06 0.125 0 0.08 0.125 0 0.1 0.125 0 0 0.13 0 0.02 0.13 0 0.04 0.13 0 0.06 0.13 0 0.08 0.13 0 0.1 0.13 0 0 0.135 0 0.02 0.135 0 0.04 0.135 0 0.06 0.135 0 0.08 0.135 0 0.1 0.135 0 0 0.14 0 0.02 0.14 0 0.04 0.14 0 0.06 0.14 0 0.08 0.14 0 0.1 0.14 0 0 0.145 0 0.02 0.145 0 0.04 0.145 0 0.06 0.145 0 0.08 0.145 0 0.1 0.145 0 0 0.15 0 0.02 0.15 0 0.04 0.15 0 0.06 0.15 0 0.08 0.15 0 0.1 0.15 0 0 0.155 0 0.02 0.155 0 0.04 0.155 0 0.06 0.155 0 0.08 0.155 0 0.1 0.155 0 0 0.16 0 0.02 0.16 0 0.04 0.16 0 0.06 0.16 0 0.08 0.16 0 0.1 0.16 0 0 0.165 0 0.02 0.165 0 0.04 0.165 0 0.06 0.165 0 0.08 0.165 0 0.1 0.165 0 0 0.17 0 0.02 0.17 0 0.04 0.17 0 0.06 0.17 0 0.08 0.17 0 0.1 0.17 0 0 0.175 0 0.02 0.175 0 0.04 0.175 0 0.06 0.175 0 0.08 0.175 0 0.1 0.175 0 0 0.18 0 0.02 0.18 0 0.04 0.18 0 0.06 0.18 0 0.08 0.18 0 0.1 0.18 0 0 0.185 0 0.02 0.185 0 0.04 0.185 0 0.06 0.185 0 0.08 0.185 0 0.1 0.185 0 0 0.19 0 0.02 0.19 0 0.04 0.19 0 0.06 0.19 0 0.08 0.19 0 0.1 0.19 0 0 0.195 0 0.02 0.195 0 0.04 0.195 0 0.06 0.195 0 0.08 0.195 0 0.1 0.195 0 0 0.2 0 0.02 0.2 0 0.04 0.2 0 0.06 0.2 0 0.08 0.2 0 0.1 0.2 0 0 0.205 0 0.02 0.205 0 0.04 0.205 0 0.06 0.205 0 0.08 0.205 0 0.1 0.205 0 0 0.21 0 0.02 0.21 0 0.04 0.21 0 0.06 0.21 0 0.08 0.21 0 0.1 0.21 0 0 0.215 0 0.02 0.215 0 0.04 0.215 0 0.06 0.215 0 0.08 0.215 0 0.1 0.215 0 0 0.22 0 0.02 0.22 0 0.04 0.22 0 0.06 0.22 0 0.08 0.22 0 0.1 0.22 0 0 0.225 0 0.02 0.225 0 0.04 0.225 0 0.06 0.225 0 0.08 0.225 0 0.1 0.225 0 0 0.23 0 0.02 0.23 0 0.04 0.23 0 0.06 0.23 0 0.08 0.23 0 0.1 0.23 0 0 0.235 0 0.02 0.235 0 0.04 0.235 0 0.06 0.235 0 0.08 0.235 0 0.1 0.235 0 0 0.24 0 0.02 0.24 0 0.04 0.24 0 0.06 0.24 0 0.08 0.24 0 0.1 0.24 0 0 0.245 0 0.02 0.245 0 0.04 0.245 0 0.06 0.245 0 0.08 0.245 0 0.1 0.245 0 0 0.25 0 0.02 0.25 0 0.04 0.25 0 0.06 0.25 0 0.08 0.25 0 0.1 0.25 0 0 0.255 0 0.02 0.255 0 0.04 0.255 0 0.06 0.255 0 0.08 0.255 0 0.1 0.255 0 0 0.26 0 0.02 0.26 0 0.04 0.26 0 0.06 0.26 0 0.08 0.26 0 0.1 0.26 0 0 0.265 0 0.02 0.265 0 0.04 0.265 0 0.06 0.265 0 0.08 0.265 0 0.1 0.265 0 0 0.27 0 0.02 0.27 0 0.04 0.27 0 0.06 0.27 0 0.08 0.27 0 0.1 0.27 0 0 0.275 0 0.02 0.275 0 0.04 0.275 0 0.06 0.275 0 0.08 0.275 0 0.1 0.275 0 0 0.28 0 0.02 0.28 0 0.04 0.28 0 0.06 0.28 0 0.08 0.28 0 0.1 0.28 0 0 0.285 0 0.02 0.285 0 0.04 0.285 0 0.06 0.285 0 0.08 0.285 0 0.1 0.285 0 0 0.29 0 0.02 0.29 0 0.04 0.29 0 0.06 0.29 0 0.08 0.29 0 0.1 0.29 0 0 0.295 0 0.02 0.295 0 0.04 0.295 0 0.06 0.295 0 0.08 0.295 0 0.1 0.295 0 0 0.3 0 0.02 0.3 0 0.04 0.3 0 0.06 0.3 0 0.08 0.3 0 0.1 0.3 0 0 0.305 0 0.02 0.305 0 0.04 0.305 0 0.06 0.305 0 0.08 0.305 0 0.1 0.305 0 0 0.31 0 0.02 0.31 0 0.04 0.31 0 0.06 0.31 0 0.08 0.31 0 0.1 0.31 0 0 0.315 0 0.02 0.315 0 0.04 0.315 0 0.06 0.315 0 0.08 0.315 0 0.1 0.315 0 0 0.32 0 0.02 0.32 0 0.04 0.32 0 0.06 0.32 0 0.08 0.32 0 0.1 0.32 0 0 0.325 0 0.02 0.325 0 0.04 0.325 0 0.06 0.325 0 0.08 0.325 0 0.1 0.325 0 0 0.33 0 0.02 0.33 0 0.04 0.33 0 0.06 0.33 0 0.08 0.33 0 0.1 0.33 0 0 0.335 0 0.02 0.335 0 0.04 0.335 0 0.06 0.335 0 0.08 0.335 0 0.1 0.335 0 0 0.340001 0 0.02 0.340001 0 0.04 0.340001 0 0.06 0.340001 0 0.08 0.340001 0 0.1 0.340001 0 0 0.345003 0 0.02 0.345003 0 0.04 0.345003 0 0.06 0.345003 0 0.08 0.345003 0 0.1 0.345003 0 0 0.35001 0 0.02 0.35001 0 0.04 0.35001 0 0.06 0.35001 0 0.08 0.35001 0 0.1 0.35001 0 0 0.355028 0 0.02 0.355028 0 0.04 0.355028 0 0.06 0.355028 0 0.08 0.355028 0 0.1 0.355028 0 0 0.360074 0 0.02 0.360074 0 0.04 0.360074 0 0.06 0.360074 0 0.08 0.360074 0 0.1 0.360074 0 0 0.36517 0 0.02 0.36517 0 0.04 0.36517 0 0.06 0.36517 0 0.08 0.36517 0 0.1 0.36517 0 0 0.370348 0 0.02 0.370348 0 0.04 0.370348 0 0.06 0.370348 0 0.08 0.370348 0 0.1 0.370348 0 0 0.375639 0 0.02 0.375639 0 0.04 0.375639 0 0.06 0.375639 0 0.08 0.375639 0 0.1 0.375639 0 0 0.381074 0 0.02 0.381074 0 0.04 0.381074 0 0.06 0.381074 0 0.08 0.381074 0 0.1 0.381074 0 0 0.386676 0 0.02 0.386676 0 0.04 0.386676 0 0.06 0.386676 0 0.08 0.386676 0 0.1 0.386676 0 0 0.392466 0 0.02 0.392466 0 0.04 0.392466 0 0.06 0.392466 0 0.08 0.392466 0 0.1 0.392466 0 0 0.398464 0 0.02 0.398464 0 0.04 0.398464 0 0.06 0.398464 0 0.08 0.398464 0 0.1 0.398464 0 0 0.404692 0 0.02 0.404692 0 0.04 0.404692 0 0.06 0.404692 0 0.08 0.404692 0 0.1 0.404692 0 0 0.411172 0 0.02 0.411172 0 0.04 0.411172 0 0.06 0.411172 0 0.08 0.411172 0 0.1 0.411172 0 0 0.417928 0 0.02 0.417928 0 0.04 0.417928 0 0.06 0.417928 0 0.08 0.417928 0 0.1 0.417928 0 0 0.424991 0 0.02 0.424991 0 0.04 0.424991 0 0.06 0.424991 0 0.08 0.424991 0 0.1 0.424991 0 0 0.432392 0 0.02 0.432392 0 0.04 0.432392 0 0.06 0.432392 0 0.08 0.432392 0 0.1 0.432392 0 0 0.440169 0 0.02 0.440169 0 0.04 0.440169 0 0.06 0.440169 0 0.08 0.440169 0 0.1 0.440169 0 0 0.448367 0 0.02 0.448367 0 0.04 0.448367 0 0.06 0.448367 0 0.08 0.448367 0 0.1 0.448367 0 0 0.457036 0 0.02 0.457036 0 0.04 0.457036 0 0.06 0.457036 0 0.08 0.457036 0 0.1 0.457036 0 0 0.466237 0 0.02 0.466237 0 0.04 0.466237 0 0.06 0.466237 0 0.08 0.466237 0 0.1 0.466237 0 0 0.476037 0 0.02 0.476037 0 0.04 0.476037 0 0.06 0.476037 0 0.08 0.476037 0 0.1 0.476037 0 0 0.486506 0 0.02 0.486506 0 0.04 0.486506 0 0.06 0.486506 0 0.08 0.486506 0 0.1 0.486506 0 0 0.497701 0 0.02 0.497701 0 0.04 0.497701 0 0.06 0.497701 0 0.08 0.497701 0 0.1 0.497701 0 0 0.50959 0 0.02 0.50959 0 0.04 0.50959 0 0.06 0.50959 0 0.08 0.50959 0 0.1 0.50959 0 0 0.521843 0 0.02 0.521843 0 0.04 0.521843 0 0.06 0.521843 0 0.08 0.521843 0 0.1 0.521843 0 0 0.533977 0 0.02 0.533977 0 0.04 0.533977 0 0.06 0.533977 0 0.08 0.533977 0 0.1 0.533977 0 0 0.545956 0 0.02 0.545956 0 0.04 0.545956 0 0.06 0.545956 0 0.08 0.545956 0 0.1 0.545956 0 0 0.557809 0 0.02 0.557809 0 0.04 0.557809 0 0.06 0.557809 0 0.08 0.557809 0 0.1 0.557809 0 0 0.569591 0 0.02 0.569591 0 0.04 0.569591 0 0.06 0.569591 0 0.08 0.569591 0 0.1 0.569591 0 0 0.581345 0 0.02 0.581345 0 0.04 0.581345 0 0.06 0.581345 0 0.08 0.581345 0 0.1 0.581345 0 0 0.593089 0 0.02 0.593089 0 0.04 0.593089 0 0.06 0.593089 0 0.08 0.593089 0 0.1 0.593089 0 0 0.604843 0 0.02 0.604843 0 0.04 0.604843 0 0.06 0.604843 0 0.08 0.604843 0 0.1 0.604843 0 0 0.607455 0 0.02 0.607455 0 0.04 0.607455 0 0.06 0.607455 0 0.08 0.607455 0 0.1 0.607455 0 0 0.609993 0 0.02 0.609993 0 0.04 0.609993 0 0.06 0.609993 0 0.08 0.609993 0 0.1 0.609993 0 0 0.612486 0 0.02 0.612486 0 0.04 0.612486 0 0.06 0.612486 0 0.08 0.612486 0 0.1 0.612486 0 0 0.614947 0 0.02 0.614947 0 0.04 0.614947 0 0.06 0.614947 0 0.08 0.614947 0 0.1 0.614947 0 0 0.617387 0 0.02 0.617387 0 0.04 0.617387 0 0.06 0.617387 0 0.08 0.617387 0 0.1 0.617387 0 0 0.619812 0 0.02 0.619812 0 0.04 0.619812 0 0.06 0.619812 0 0.08 0.619812 0 0.1 0.619812 0 0 0.622226 0 0.02 0.622226 0 0.04 0.622226 0 0.06 0.622226 0 0.08 0.622226 0 0.1 0.622226 0 0 0.624638 0 0.02 0.624638 0 0.04 0.624638 0 0.06 0.624638 0 0.08 0.624638 0 0.1 0.624638 0 0 0.62705 0 0.02 0.62705 0 0.04 0.62705 0 0.06 0.62705 0 0.08 0.62705 0 0.1 0.62705 0 0 0.629448 0 0.02 0.629448 0 0.04 0.629448 0 0.06 0.629448 0 0.08 0.629448 0 0.1 0.629448 0 0 0.631835 0 0.02 0.631835 0 0.04 0.631835 0 0.06 0.631835 0 0.08 0.631835 0 0.1 0.631835 0 0 0.634217 0 0.02 0.634217 0 0.04 0.634217 0 0.06 0.634217 0 0.08 0.634217 0 0.1 0.634217 0 0 0.636596 0 0.02 0.636596 0 0.04 0.636596 0 0.06 0.636596 0 0.08 0.636596 0 0.1 0.636596 0 0 0.638975 0 0.02 0.638975 0 0.04 0.638975 0 0.06 0.638975 0 0.08 0.638975 0 0.1 0.638975 0 0 0.641354 0 0.02 0.641354 0 0.04 0.641354 0 0.06 0.641354 0 0.08 0.641354 0 0.1 0.641354 0 0 0.643728 0 0.02 0.643728 0 0.04 0.643728 0 0.06 0.643728 0 0.08 0.643728 0 0.1 0.643728 0 0 0.6461 0 0.02 0.6461 0 0.04 0.6461 0 0.06 0.6461 0 0.08 0.6461 0 0.1 0.6461 0 0 0.648469 0 0.02 0.648469 0 0.04 0.648469 0 0.06 0.648469 0 0.08 0.648469 0 0.1 0.648469 0 0 0.650838 0 0.02 0.650838 0 0.04 0.650838 0 0.06 0.650838 0 0.08 0.650838 0 0.1 0.650838 0 0 0.653207 0 0.02 0.653207 0 0.04 0.653207 0 0.06 0.653207 0 0.08 0.653207 0 0.1 0.653207 0 0 0.655573 0 0.02 0.655573 0 0.04 0.655573 0 0.06 0.655573 0 0.08 0.655573 0 0.1 0.655573 0 0 0.657937 0 0.02 0.657937 0 0.04 0.657937 0 0.06 0.657937 0 0.08 0.657937 0 0.1 
[...]
			<PointData Scalars="VitesseX">
				<DataArray Name="VitesseX" type="Float32" format="ascii">
 0 0 0 0 0 0 0 3.25027e-16 3.14407e-15 3.24954e-15 1.3078e-14 0 0 1.24518e-15 2.36815e-15 2.6296e-15 1.31585e-14 0 0 1.92668e-15 1.55422e-15 2.63203e-15 1.26402e-14 0 0 2.17531e-16 2.67116e-15 2.71884e-15 1.16696e-14 0 0 -1.40472e-15 3.25592e-15 2.70378e-15 9.80594e-15 0 0 -1.74265e-15 4.52853e-15 -2.5897e-16 1.00227e-14 0 0 -1.44501e-15 5.94165e-15 -4.20449e-15 1.10798e-14 0 0 -5.25217e-16 5.54113e-15 -6.03969e-15 1.10707e-14 0 0 -3.24464e-16 5.95371e-15 -6.49416e-15 1.11309e-14 0 0 -7.78024e-17 6.20416e-15 -5.34359e-15 9.74219e-15 0 0 1.20007e-15 3.71979e-15 -3.27523e-15 8.61491e-15 0 0 2.5147e-15 -1.02477e-15 5.03444e-16 9.55414e-15 0 0 5.12974e-15 -6.53982e-15 3.73595e-15 1.10404e-14 0 0 4.70334e-15 -7.01673e-15 2.12553e-15 1.12534e-14 0 0 -2.30695e-15 1.29507e-15 -3.68266e-15 1.14216e-14 0 0 -1.89561e-15 -1.80308e-16 -1.10801e-15 1.13424e-14 0 0 -1.80519e-15 -2.46139e-15 4.98864e-15 1.17647e-14 0 0 -3.95627e-15 -5.97947e-16 4.74336e-15 1.3347e-14 0 0 -3.28564e-15 -3.0971e-16 4.39128e-15 8.36393e-15 0 0 -4.43576e-15 1.25471e-15 2.75174e-15 4.02952e-15 0 0 -3.02868e-15 -1.90096e-15 4.99246e-15 8.8802e-16 0 0 -1.6496e-15 -5.8039e-15 9.62453e-15 6.47266e-16 0 0 4.9746e-16 -8.61671e-15 1.46397e-14 4.39759e-15 0 0 -4.51863e-16 -3.99951e-15 1.23848e-14 9.52336e-15 0 0 -7.07696e-15 5.69658e-15 6.57243e-15 1.44622e-14 0 0 -4.2521e-15 6.21535e-15 2.34482e-15 1.80351e-14 0 0 -9.91221e-16 7.9199e-15 -3.84744e-15 1.60525e-14 0 0 -7.38852e-16 9.09641e-15 -7.74788e-15 1.09796e-14 0 0 5.27033e-15 -9.59619e-16 1.28692e-17 -3.49523e-16 0 0 7.70032e-15 -1.58437e-15 3.69173e-15 -4.02048e-15 0 0 5.71275e-15 7.531e-16 1.87493e-15 4.02265e-15 0 0 2.46775e-15 9.49423e-16 6.27429e-15 1.70778e-15 0 0 3.77177e-15 1.74122e-15 1.08869e-14 -6.83233e-15 0 0 1.24535e-15 1.28744e-15 1.10567e-14 -7.20286e-15 0 0 -8.62395e-15 5.93998e-15 5.19544e-15 2.40245e-16 0 0 -5.9419e-15 1.88342e-15 8.86323e-15 3.65763e-15 0 0 7.73772e-17 -1.1068e-14 1.59257e-14 9.4239e-15 0 0 -1.01596e-14 -4.6695e-15 8.6295e-15 1.81834e-14 0 0 -6.16301e-15 -4.09468e-15 -6.99626e-16 2.55131e-14 0 0 6.02579e-15 -1.50463e-14 1.50393e-15 1.25901e-14 0 0 8.56217e-16 -1.16833e-14 7.60138e-15 -9.50352e-15 0 0 -1.01641e-14 -5.11228e-15 1.07266e-14 -1.59205e-14 0 0 -1.19041e-14 -2.73722e-15 7.29358e-15 -1.61265e-14 0 0 -6.71387e-15 1.94847e-15 3.4009e-17 -1.82643e-14 0 0 4.89973e-16 -5.95445e-15 1.58808e-14 -2.80549e-14 0 0 -3.1989e-15 1.83701e-15 2.16044e-14 -3.32556e-14 0 0 -9.73109e-15 1.33768e-14 8.34302e-15 -1.69641e-14 0 0 -4.25041e-16 -2.06453e-15 1.29228e-14 -3.49938e-15 0 0 -1.58944e-15 4.79791e-16 2.16226e-14 -1.1069e-14 0 0 -1.25204e-14 2.11476e-14 1.25006e-14 -6.93374e-15 0 0 5.14078e-16 1.52905e-14 2.76782e-15 2.53863e-15 0 0 1.8238e-14 -9.58599e-16 9.58523e-15 -1.0368e-14 0 0 1.13307e-14 1.04408e-15 1.85514e-14 -2.65935e-14 0 0 1.79004e-14 -9.28662e-15 1.30517e-14 -9.90253e-15 0 0 2.97385e-14 -9.33201e-15 -1.26105e-15 1.43901e-14 0 0 2.23175e-14 2.28652e-14 -2.94263e-14 2.84049e-14 0 0 1.55748e-14 4.4429e-14 -4.73829e-14 4.80218e-14 0 0 1.67771e-14 2.04346e-14 -8.2907e-16 2.4251e-14 0 0 1.38612e-14 -1.00371e-14 2.8223e-14 1.50496e-14 0 0 7.31082e-15 -7.52167e-15 1.81851e-14 4.66066e-15 0 0 -3.15849e-15 5.9198e-15 1.52883e-15 -1.21991e-14 0 0 -2.1311e-14 9.50929e-15 -2.18908e-14 -2.80451e-15 0 0 -3.9488e-14 2.7907e-15 -2.53247e-14 -4.33404e-15 0 0 -5.10432e-14 -2.68534e-14 -1.52797e-14 -1.03275e-14 0 0 -2.92934e-14 -3.51043e-14 -4.62841e-14 -2.84981e-15 0 0 4.2216e-16 -2.44745e-14 -5.82565e-14 -6.84021e-15 0 0 -8.04034e-15 -1.83963e-14 -2.23285e-14 -3.52797e-14 0 0 -3.32319e-14 -2.51868e-15 -1.38971e-14 -2.69556e-14 0 0 -3.2456e-14 1.596e-14 -3.51025e-14 -2.97836e-14 0 0 -3.3624e-14 -2.05037e-14 -1.75742e-14 -3.20583e-14 0 0 -2.5296e-14 -5.34306e-14 1.59108e-14 -5.50716e-15 0 0 -5.361e-14 -2.74128e-14 -9.01393e-15 4.05736e-14 0 0 -2.03448e-13 -8.2411e-14 5.27309e-14 1.2933e-13 0 0 -4.82487e-13 -2.68959e-13 2.64826e-13 4.0526e-13 0 0 -1.10341e-12 -6.51272e-13 6.40006e-13 1.07307e-12 0 0 -2.36347e-12 -1.43905e-12 1.41592e-12 2.34362e-12 0 0 -4.57234e-12 -2.84135e-12 2.82305e-12 4.57103e-12 0 0 -8.01114e-12 -4.97555e-12 4.95996e-12 7.99407e-12 0 0 -1.26281e-11 -7.78982e-12 7.77187e-12 1.25813e-11 0 0 -1.78479e-11 -1.10159e-11 1.09789e-11 1.78262e-11 0 0 -2.25001e-11 -1.39147e-11 1.38925e-11 2.24854e-11 0 0 -2.46132e-11 -1.52142e-11 1.52169e-11 2.45803e-11 0 0 -2.14969e-11 -1.33267e-11 1.3312e-11 2.14766e-11 0 0 -1.00418e-11 -6.23965e-12 6.22857e-12 1.00071e-11 0 0 1.29656e-11 8.01041e-12 -8.01698e-12 -1.30092e-11 0 0 5.03188e-11 3.10836e-11 -3.11185e-11 -5.03307e-11 0 0 1.03698e-10 6.40605e-11 -6.40897e-11 -1.03722e-10 0 0 1.73158e-10 1.07015e-10 -1.07044e-10 -1.73183e-10 0 0 2.56647e-10 1.58631e-10 -1.58652e-10 -2.56646e-10 0 0 3.48868e-10 2.15644e-10 -2.15644e-10 -3.48874e-10 0 0 4.37174e-10 2.70625e-10 -2.70622e-10 -4.37179e-10 0 0 4.73256e-10 2.87638e-10 -2.87615e-10 -4.73245e-10 0 0 2.42008e-10 1.90287e-10 -1.90244e-10 -2.41964e-10 0 0 -1.27826e-11 -1.03563e-10 1.03617e-10 1.28299e-11 0 0 -2.95248e-10 -1.47627e-10 1.47641e-10 2.95256e-10 0 0 -6.64596e-10 -1.78524e-10 1.78439e-10 6.64553e-10 0 0 -1.06054e-09 -6.93517e-10 6.93309e-10 1.06041e-09 0 0 -1.30285e-09 -2.89893e-09 2.89861e-09 1.30265e-09 0 0 -8.71867e-09 2.7931e-09 -2.79352e-09 8.71843e-09 0 0 -9.04318e-09 4.77824e-09 -4.77878e-09 9.04289e-09 0 0 3.12212e-08 -2.05997e-08 2.05988e-08 -3.12218e-08 0 0 1.67964e-08 -3.87336e-09 3.87246e-09 -1.67969e-08 0 0 1.0872e-08 9.44254e-10 -9.45143e-10 -1.08726e-08 0 0 7.84702e-09 2.22843e-09 -2.2293e-09 -7.84758e-09 0 0 5.9503e-09 2.48232e-09 -2.48319e-09 -5.95083e-09 0 0 4.54972e-09 2.5116e-09 -2.51239e-09 -4.55019e-09 0 0 3.45435e-09 2.48282e-09 -2.48346e-09 -3.45472e-09 0 0 2.61746e-09 2.35199e-09 -2.35238e-09 -2.61771e-09 0 0 2.0281e-09 2.10144e-09 -2.10155e-09 -2.02824e-09 0 0 1.66536e-09 1.79146e-09 -1.79136e-09 -1.66536e-09 0 0 1.47026e-09 1.44381e-09 -1.44363e-09 -1.47017e-09 0 0 1.34546e-09 1.06975e-09 -1.06955e-09 -1.34532e-09 0 0 1.20508e-09 7.64623e-10 -7.64433e-10 -1.20495e-09 0 0 1.04474e-09 5.71168e-10 -5.71022e-10 -1.04465e-09 0 0 9.10836e-10 4.68504e-10 -4.68424e-10 -9.10793e-10 0 0 8.05733e-10 4.25126e-10 -4.25112e-10 -8.0576e-10 0 0 7.25949e-10 4.09096e-10 -4.09141e-10 -7.26011e-10 0 0 6.7127e-10 4.00182e-10 -4.00291e-10 -6.71367e-10 0 0 6.38656e-10 3.92166e-10 -3.92336e-10 -6.38806e-10 0 0 6.23065e-10 3.86136e-10 -3.86359e-10 -6.23233e-10 0 0 6.27747e-10 3.89074e-10 -3.89349e-10 -6.27936e-10 0 0 6.56101e-10 4.05894e-10 -4.06223e-10 -6.56317e-10 0 0 6.86211e-10 4.24003e-10 -4.24372e-10 -6.86438e-10 0 0 6.73325e-10 4.15822e-10 -4.16229e-10 -6.73578e-10 0 0 6.3524e-10 3.92211e-10 -3.92648e-10 -6.35515e-10 0 0 6.02418e-10 3.71955e-10 -3.72401e-10 -6.02738e-10 0 0 5.59753e-10 3.45627e-10 -3.46092e-10 -5.60092e-10 0 0 5.10311e-10 3.15122e-10 -3.15654e-10 -5.10612e-10 0 0 4.48105e-10 2.76775e-10 -2.77376e-10 -4.48369e-10 0 0 3.60112e-10 2.22531e-10 -2.23101e-10 -3.6045e-10 0 0 2.6072e-10 1.6122e-10 -1.61742e-10 -2.61106e-10 0 0 1.66163e-10 1.02833e-10 -1.03365e-10 -1.66522e-10 0 0 8.28262e-11 5.13925e-11 -5.1903e-11 -8.32001e-11 0 0 1.03464e-11 6.65188e-12 -7.14933e-12 -1.06531e-11 0 0 -4.54318e-11 -2.78785e-11 2.73873e-11 4.51616e-11 0 0 -8.30311e-11 -5.11604e-11 5.06819e-11 8.27101e-11 0 0 -1.03531e-10 -6.38667e-11 6.34076e-11 1.0323e-10 0 0 -1.07896e-10 -6.66559e-11 6.62354e-11 1.07698e-10 0 0 -9.80516e-11 -6.06364e-11 6.02741e-11 9.78909e-11 0 0 -7.82317e-11 -4.8373e-11 4.8124e-11 7.80433e-11 0 0 -5.38766e-11 -3.33112e-11 3.31528e-11 5.37416e-11 0 0 -3.09845e-11 -1.91452e-11 1.90502e-11 3.09031e-11 0 0 -1.42635e-11 -8.81941e-12 8.77872e-12 1.42047e-11 0 0 -5.05383e-12 -3.16107e-12 3.1148e-12 5.00945e-12 0 0 -1.36977e-12 -8.80697e-13 8.26177e-13 1.34039e-12 0 0 -3.13932e-13 -1.8238e-13 1.32206e-13 2.70178e-13 0 0 -8.06495e-14 -1.24295e-14 -4.85084e-14 3.5587e-14 0 0 -2.28406e-14 -1.05824e-15 -7.45346e-14 1.60692e-14 0 0 -1.39268e-14 -8.17403e-15 -8.69004e-14 1.08153e-14 0 0 -5.17151e-15 -3.79311e-14 -5.97498e-14 -2.8327e-14 0 0 1.84047e-15 -4.62839e-14 -4.9592e-14 -3.65408e-14 0 0 -3.15858e-15 -2.61058e-14 -7.18497e-14 -2.66616e-14 0 0 3.4574e-15 -4.26087e-14 -4.25101e-14 -5.2283e-14 0 0 -1.94954e-15 -4.53779e-14 -2.05365e-14 -6.23007e-14 0 0 -8.04026e-15 -3.36669e-14 -2.46567e-14 -4.61189e-14 0 0 4.65467e-15 -4.36226e-14 -6.75938e-15 -3.00839e-14 0 0 3.83394e-15 -4.34894e-14 1.26273e-14 -3.51871e-14 0 0 -2.1581e-14 1.45702e-14 -2.7933e-14 -8.60663e-15 0 0 -3.78074e-14 6.02317e-14 -5.86925e-14 2.96131e-14 0 0 -3.41797e-14 3.00661e-14 -7.71125e-15 4.83599e-15 0 0 -2.66218e-15 -1.89283e-14 4.42609e-14 -2.51646e-14 0 0 -1.42368e-14 1.01506e-14 4.3603e-14 -4.44758e-14 0 0 -3.87874e-14 5.57369e-14 5.62799e-15 -4.30485e-14 0 0 -1.12291e-14 1.57463e-14 3.88093e-14 -7.73274e-14 0 0 7.05769e-15 -2.71896e-14 9.22969e-14 -8.12285e-14 0 0 4.00117e-14 -6.24049e-14 8.40801e-14 -3.44339e-14 0 0 3.71138e-14 -5.97673e-14 7.41732e-14 -5.77154e-14 0 0 -4.97387e-15 -1.45717e-14 5.57328e-14 -8.17625e-14 0 0 -6.20224e-15 -2.65467e-14 6.88317e-14 -1.07537e-13 0 0 -3.12968e-16 -3.36559e-14 3.09925e-14 -1.08721e-13 0 0 -1.20617e-14 1.41918e-15 -2.03737e-14 -4.47496e-14 0 0 -4.07654e-14 -1.00276e-15 1.94692e-14 1.40224e-14 0 0 -4.05109e-14 -2.41527e-14 2.01922e-14 6.06919e-14 0 0 1.12288e-14 -5.86767e-14 -1.025e-15 8.04203e-14 0 0 2.59558e-14 -4.90562e-14 -3.12e-14 9.1501e-14 0 0 -5.84549e-15 -1.48764e-14 -1.06716e-14 5.43371e-14 0 0 -1.63078e-14 -2.78777e-14 4.68151e-14 2.69673e-15 0 0 -1.83835e-14 -1.30719e-14 5.82401e-14 -2.16368e-14 0 0 -2.25262e-14 2.67512e-14 2.10965e-14 -1.95891e-16 0 0 1.46007e-14 3.64109e-15 -7.68468e-15 2.11863e-14 0 0 1.47156e-14 1.22916e-14 -1.15299e-14 2.77317e-14 0 0 9.37664e-15 1.06519e-14 1.16442e-14 3.17658e-14 0 0 2.3829e-14 -3.9902e-14 5.37997e-14 1.26979e-15 0 0 -2.80753e-14 -1.59591e-15 1.26143e-14 3.20075e-14 0 0 -2.43705e-15 -1.36727e-14 -3.19624e-15 5.45058e-14 0 0 5.02001e-14 -8.36213e-15 -6.32043e-14 9.16285e-14 0 0 3.82219e-14 5.0122e-14 -8.13275e-14 8.23161e-14 0 0 3.51937e-14 5.75999e-14 -3.37045e-14 6.13288e-14 0 0 5.46099e-14 1.6732e-14 -2.49924e-14 7.1745e-14 0 0 7.81828e-14 -1.40112e-14 4.71286e-15 1.49663e-14 0 0 7.97797e-14 2.93609e-14 -5.52957e-15 -4.34977e-14 0 0 4.43633e-14 7.56967e-14 -1.49798e-15 -7.32836e-14 0 0 3.00456e-14 5.38089e-14 3.48148e-14 -5.49712e-14 0 0 6.64845e-14 1.53924e-14 2.1787e-14 -1.04875e-14 0 0 7.14418e-14 2.04478e-14 5.19286e-15 -4.96781e-15 0 0 1.53294e-14 6.6637e-14 5.96792e-15 -1.86955e-14 0 0 -2.82657e-14 1.10157e-13 2.07031e-14 -4.03002e-14 0 0 5.06443e-16 1.11186e-13 2.64487e-14 -5.47493e-14 0 0 3.07971e-14 7.37337e-14 4.29329e-14 -5.20356e-14 0 0 0 0 0 0 0
				</DataArray>
				<DataArray Name="VitesseY" type="Float32" format="ascii">