<?xml version="1.0"?>
<VTKFile type="PolyData">
	<PolyData>
		<Piece NumberOfPoints="1206" NumberOfPolys="1000">
			<Points>
				<DataArray type="Float32" NumberOfComponents="3" format="ascii">
 0 0 0 0.02 0 0 0.04 0 0 0.06 0 0 0.08 0 0 0.1 0 0 0 0.005 0 0.02 0.005 0 0.04 0.005 0 0.06 0.005 0 0.08 0.005 0 0.1 0.005 0 0 0.01 0 0.02 0.01 0 0.04 0.01 0 0.06 0.01 0 0.08 0.01 0 0.1 0.01 0 0 0.015 0 0.02 0.015 0 0.04 0.015 0 0.06 0.015 0 0.08 0.015 0 0.1 0.015 0 0 0.02 0 0.02 0.02 0 0.04 0.02 0 0.06 0.02 0 0.08 0.02 0 0.1 0.02 0 0 0.025 0 0.02 0.025 0 0.04 0.025 0 0.06 0.025 0 0.08 0.025 0 0.1 0.025 0 0 0.03 0 0.02 0.03 0 0.04 0.03 0 0.06 0.03 0 0.08 0.03 0 0.1 0.03 0 0 0.035 0 0.02 0.035 0 0.04 0.035 0 0.06 0.035 0 0.08 0.035 0 0.1 0.035 0 0 0.04 0 0.02 0.04 0 0.04 0.04 0 0.06 0.04 0 0.08 0.04 0 0.1 0.04 0 0 0.045 0 0.02 0.045 0 0.04 0.045 0 0.06 0.045 0 0.08 0.045 0 0.1 0.045 0 0 0.05 0 0.02 0.05 0 0.04 0.05 0 0.06 0.05 0 0.08 0.05 0 0.1 0.05 0 0 0.055 0 0.02 0.055 0 0.04 0.055 0 0.06 0.055 0 0.08 0.055 0 0.1 0.055 0 0 0.06 0 0.02 0.06 0 0.04 0.06 0 0.06 0.06 0 0.08 0.06 0 0.1 0.06 0 0 0.065 0 0.02 0.065 0 0.04 0.065 0 0.06 0.065 0 0.08 0.065 0 0.1 0.065 0 0 0.07 0 0.02 0.07 0 0.04 0.07 0 0.06 0.07 0 0.08 0.07 0 0.1 0.07 0 0 0.075 0 0.02 0.075 0 0.04 0.075 0 0.06 0.075 0 0.08 0.075 0 0.1 0.075 0 0 0.08 0 0.02 0.08 0 0.04 0.08 0 0.06 0.08 0 0.08 0.08 0 0.1 0.08 0 0 0.085 0 0.02 0.085 0 0.04 0.085 0 0.06 0.085 0 0.08 0.085 0 0.1 0.085 0 0 0.09 0 0.02 0.09 0 0.04 0.09 0 0.06 0.09 0 0.08 0.09 0 0.1 0.09 0 0 0.095 0 0.02 0.095 0 0.04 0.095 0 0.06 0.095 0 0.08 0.095 0 0.1 0.095 0 0 0.1 0 0.02 0.1 0 0.04 0.1 0 0.06 0.1 0 0.08 0.1 0 0.1 0.1 0 0 0.105 0 0.02 0.105 0 0.04 0.105 0 0.06 0.105 0 0.08 0.105 0 0.1 0.105 0 0 0.11 0 0.02 0.11 0 0.04 0.11 0 0.06 0.11 0 0.08 0.11 0 0.1 0.11 0 0 0.115 0 0.02 0.115 0 0.04 0.115 0 0.06 0.115 0 0.08 0.115 0 0.1 0.115 0 0 0.12 0 0.02 0.12 0 0.04 0.12 0 0.06 0.12 0 0.08 0.12 0 0.1 0.12 0 0 0.125 0 0.02 0.125 0 0.04 0.125 0 0.06 0.125 0 0.08 0.125 0 0.1 0.125 0 0 0.13 0 0.02 0.13 0 0.04 0.13 0 0.06 0.13 0 0.08 0.13 0 0.1 0.13 0 0 0.135 0 0.02 0.135 0 0.04 0.135 0 0.06 0.135 0 0.08 0.135 0 0.1 0.135 0 0 0.14 0 0.02 0.14 0 0.04 0.14 0 0.06 0.14 0 0.08 0.14 0 0.1 0.14 0 0 0.145 0 0.02 0.145 0 0.04 0.145 0 0.06 0.145 0 0.08 0.145 0 0.1 0.145 0 0 0.15 0 0.02 0.15 0 0.04 0.15 0 0.06 0.15 0 0.08 0.15 0 0.1 0.15 0 0 0.155 0 0.02 0.155 0 0.04 0.155 0 0.06 0.155 0 0.08 0.155 0 0.1 0.155 0 0 0.16 0 0.02 0.16 0 0.04 0.16 0 0.06 0.16 0 0.08 0.16 0 0.1 0.16 0 0 0.165 0 0.02 0.165 0 0.04 0.165 0 0.06 0.165 0 0.08 0.165 0 0.1 0.165 0 0 0.17 0 0.02 0.17 0 0.04 0.17 0 0.06 0.17 0 0.08 0.17 0 0.1 0.17 0 0 0.175 0 0.02 0.175 0 0.04 0.175 0 0.06 0.175 0 0.08 0.175 0 0.1 0.175 0 0 0.18 0 0.02 0.18 0 0.04 0.18 0 0.06 0.18 0 0.08 0.18 0 0.1 0.18 0 0 0.185 0 0.02 0.185 0 0.04 0.185 0 0.06 0.185 0 0.08 0.185 0 0.1 0.185 0 0 0.19 0 0.02 0.19 0 0.04 0.19 0 0.06 0.19 0 0.08 0.19 0 0.1 0.19 0 0 0.195 0 0.02 0.195 0 0.04 0.195 0 0.06 0.195 0 0.08 0.195 0 0.1 0.195 0 0 0.2 0 0.02 0.2 0 0.04 0.2 0 0.06 0.2 0 0.08 0.2 0 0.1 0.2 0 0 0.205 0 0.02 0.205 0 0.04 0.205 0 0.06 0.205 0 0.08 0.205 0 0.1 0.205 0 0 0.21 0 0.02 0.21 0 0.04 0.21 0 0.06 0.21 0 0.08 0.21 0 0.1 0.21 0 0 0.215 0 0.02 0.215 0 0.04 0.215 0 0.06 0.215 0 0.08 0.215 0 0.1 0.215 0 0 0.22 0 0.02 0.22 0 0.04 0.22 0 0.06 0.22 0 0.08 0.22 0 0.1 0.22 0 0 0.225 0 0.02 0.225 0 0.04 0.225 0 0.06 0.225 0 0.08 0.225 0 0.1 0.225 0 0 0.23 0 0.02 0.23 0 0.04 0.23 0 0.06 0.23 0 0.08 0.23 0 0.1 0.23 0 0 0.235 0 0.02 0.235 0 0.04 0.235 0 0.06 0.235 0 0.08 0.235 0 0.1 0.235 0 0 0.24 0 0.02 0.24 0 0.04 0.24 0 0.06 0.24 0 0.08 0.24 0 0.1 0.24 0 0 0.245 0 0.02 0.245 0 0.04 0.245 0 0.06 0.245 0 0.08 0.245 0 0.1 0.245 0 0 0.250001 0 0.02 0.250001 0 0.04 0.250001 0 0.06 0.250001 0 0.08 0.250001 0 0.1 0.250001 0 0 0.255002 0 0.02 0.255002 0 0.04 0.255002 0 0.06 0.255002 0 0.08 0.255002 0 0.1 0.255002 0 0 0.260006 0 0.02 0.260006 0 0.04 0.260006 0 0.06 0.260006 0 0.08 0.260006 0 0.1 0.260006 0 0 0.265017 0 0.02 0.265017 0 0.04 0.265017 0 0.06 0.265017 0 0.08 0.265017 0 0.1 0.265017 0 0 0.270039 0 0.02 0.270039 0 0.04 0.270039 0 0.06 0.270039 0 0.08 0.270039 0 0.1 0.270039 0 0 0.275085 0 0.02 0.275085 0 0.04 0.275085 0 0.06 0.275085 0 0.08 0.275085 0 0.1 0.275085 0 0 0.280166 0 0.02 0.280166 0 0.04 0.280166 0 0.06 0.280166 0 0.08 0.280166 0 0.1 0.280166 0 0 0.285301 0 0.02 0.285301 0 0.04 0.285301 0 0.06 0.285301 0 0.08 0.285301 0 0.1 0.285301 0 0 0.290504 0 0.02 0.290504 0 0.04 0.290504 0 0.06 0.290504 0 0.08 0.290504 0 0.1 0.290504 0 0 0.295788 0 0.02 0.295788 0 0.04 0.295788 0 0.06 0.295788 0 0.08 0.295788 0 0.1 0.295788 0 0 0.301166 0 0.02 0.301166 0 0.04 0.301166 0 0.06 0.301166 0 0.08 0.301166 0 0.1 0.301166 0 0 0.306645 0 0.02 0.306645 0 0.04 0.306645 0 0.06 0.306645 0 0.08 0.306645 0 0.1 0.306645 0 0 0.312234 0 0.02 0.312234 0 0.04 0.312234 0 0.06 0.312234 0 0.08 0.312234 0 0.1 0.312234 0 0 0.31794 0 0.02 0.31794 0 0.04 0.31794 0 0.06 0.31794 0 0.08 0.31794 0 0.1 0.31794 0 0 0.32377 0 0.02 0.32377 0 0.04 0.32377 0 0.06 0.32377 0 0.08 0.32377 0 0.1 0.32377 0 0 0.329731 0 0.02 0.329731 0 0.04 0.329731 0 0.06 0.329731 0 0.08 0.329731 0 0.1 0.329731 0 0 0.33583 0 0.02 0.33583 0 0.04 0.33583 0 0.06 0.33583 0 0.08 0.33583 0 0.1 0.33583 0 0 0.342076 0 0.02 0.342076 0 0.04 0.342076 0 0.06 0.342076 0 0.08 0.342076 0 0.1 0.342076 0 0 0.348476 0 0.02 0.348476 0 0.04 0.348476 0 0.06 0.348476 0 0.08 0.348476 0 0.1 0.348476 0 0 0.355041 0 0.02 0.355041 0 0.04 0.355041 0 0.06 0.355041 0 0.08 0.355041 0 0.1 0.355041 0 0 0.361779 0 0.02 0.361779 0 0.04 0.361779 0 0.06 0.361779 0 0.08 0.361779 0 0.1 0.361779 0 0 0.368702 0 0.02 0.368702 0 0.04 0.368702 0 0.06 0.368702 0 0.08 0.368702 0 0.1 0.368702 0 0 0.375821 0 0.02 0.375821 0 0.04 0.375821 0 0.06 0.375821 0 0.08 0.375821 0 0.1 0.375821 0 0 0.383149 0 0.02 0.383149 0 0.04 0.383149 0 0.06 0.383149 0 0.08 0.383149 0 0.1 0.383149 0 0 0.3907 0 0.02 0.3907 0 0.04 0.3907 0 0.06 0.3907 0 0.08 0.3907 0 0.1 0.3907 0 0 0.398489 0 0.02 0.398489 0 0.04 0.398489 0 0.06 0.398489 0 0.08 0.398489 0 0.1 0.398489 0 0 0.406534 0 0.02 0.406534 0 0.04 0.406534 0 0.06 0.406534 0 0.08 0.406534 0 0.1 0.406534 0 0 0.414853 0 0.02 0.414853 0 0.04 0.414853 0 0.06 0.414853 0 0.08 0.414853 0 0.1 0.414853 0 0 0.423467 0 0.02 0.423467 0 0.04 0.423467 0 0.06 0.423467 0 0.08 0.423467 0 0.1 0.423467 0 0 0.432399 0 0.02 0.432399 0 0.04 0.432399 0 0.06 0.432399 0 0.08 0.432399 0 0.1 0.432399 0 0 0.441675 0 0.02 0.441675 0 0.04 0.441675 0 0.06 0.441675 0 0.08 0.441675 0 0.1 0.441675 0 0 0.451322 0 0.02 0.451322 0 0.04 0.451322 0 0.06 0.451322 0 0.08 0.451322 0 0.1 0.451322 0 0 0.46137 0 0.02 0.46137 0 0.04 0.46137 0 0.06 0.46137 0 0.08 0.46137 0 0.1 0.46137 0 0 0.471851 0 0.02 0.471851 0 0.04 0.471851 0 0.06 0.471851 0 0.08 0.471851 0 0.1 0.471851 0 0 0.48279 0 0.02 0.48279 0 0.04 0.48279 0 0.06 0.48279 0 0.08 0.48279 0 0.1 0.48279 0 0 0.494202 0 0.02 0.494202 0 0.04 0.494202 0 0.06 0.494202 0 0.08 0.494202 0 0.1 0.494202 0 0 0.506052 0 0.02 0.506052 0 0.04 0.506052 0 0.06 0.506052 0 0.08 0.506052 0 0.1 0.506052 0 0 0.518175 0 0.02 0.518175 0 0.04 0.518175 0 0.06 0.518175 0 0.08 0.518175 0 0.1 0.518175 0 0 0.530274 0 0.02 0.530274 0 0.04 0.530274 0 0.06 0.530274 0 0.08 0.530274 0 0.1 0.530274 0 0 0.542284 0 0.02 0.542284 0 0.04 0.542284 0 0.06 0.542284 0 0.08 0.542284 0 0.1 0.542284 0 0 0.554199 0 0.02 0.554199 0 0.04 0.554199 0 0.06 0.554199 0 0.08 0.554199 0 0.1 0.554199 0 0 0.566036 0 0.02 0.566036 0 0.04 0.566036 0 0.06 0.566036 0 0.08 0.566036 0 0.1 0.566036 0 0 0.57782 0 0.02 0.57782 0 0.04 0.57782 0 0.06 0.57782 0 0.08 0.57782 0 0.1 0.57782 0 0 0.589573 0 0.02 0.589573 0 0.04 0.589573 0 0.06 0.589573 0 0.08 0.589573 0 0.1 0.589573 0 0 0.601312 0 0.02 0.601312 0 0.04 0.601312 0 0.06 0.601312 0 0.08 0.601312 0 0.1 0.601312 0 0 0.613043 0 0.02 0.613043 0 0.04 0.613043 0 0.06 0.613043 0 0.08 0.613043 0 0.1 0.613043 0 0 0.624773 0 0.02 0.624773 0 0.04 0.624773 0 0.06 0.624773 0 0.08 0.624773 0 0.1 0.624773 0 0 0.636501 0 0.02 0.636501 0 0.04 0.636501 0 0.06 0.636501 0 0.08 0.636501 0 0.1 0.636501 0 0 0.648229 0 0.02 0.648229 0 0.04 0.648229 0 0.06 0.648229 0 0.08 0.648229 0 0.1 0.648229 0 0 0.65996 0 0.02 0.65996 0 0.04 0.65996 0 0.06 0.65996 0 0.08 0.65996 0 0.1 0.65996 0 0 0.671704 0 0.02 0.671704 0 0.04 0.671704 0 0.06 0.671704 0 0.08 0.671704 0 0.1 0.671704 0 0 0.674314 0 0.02 0.674314 0 0.04 0.674314 0 0.06 0.674314 0 0.08 0.674314 0 0.1 0.674314 0 0 0.67685 0 0.02 0.67685 0 0.04 0.67685 0 0.06 0.67685 0 0.08 0.67685 0 0.1 0.67685 0 0 0.679341 0 0.02 0.679341 0 0.04 0.679341 0 0.06 0.679341 0 0.08 0.679341 0 0.1 0.679341 0 0 0.681801 0 0.02 0.681801 0 0.04 0.681801 0 0.06 0.681801 0 0.08 0.681801 0 0.1 0.681801 0 0 0.68424 0 0.02 0.68424 0 0.04 0.68424 0 0.06 0.68424 0 0.08 0.68424 0 0.1 0.68424 0 0 0.686663 0 0.02 0.686663 0 0.04 0.686663 0 0.06 0.686663 0 0.08 0.686663 0 0.1 0.686663 0 0 0.689076 0 0.02 0.689076 0 0.04 0.689076 0 0.06 0.689076 0 0.08 0.689076 0 0.1 0.689076 0 0 0.691487 0 0.02 0.691487 0 0.04 0.691487 0 0.06 0.691487 0 0.08 0.691487 0 0.1 0.691487 0 0 0.693898 0 0.02 0.693898 0 0.04 0.693898 0 0.06 0.693898 0 0.08 0.693898 0 0.1 0.693898 0 0 0.696295 0 0.02 0.696295 0 0.04 0.696295 0 0.06 0.696295 0 0.08 0.696295 0 0.1 0.696295 0 0 0.698681 0 0.02 0.698681 0 0.04 0.698681 0 0.06 0.698681 0 0.08 0.698681 0 0.1 0.698681 0 0 0.701062 0 0.02 0.701062 0 0.04 0.701062 0 0.06 0.701062 0 0.08 0.701062 0 0.1 0.701062 0 0 0.70344 0 0.02 0.70344 0 0.04 0.70344 0 0.06 0.70344 0 0.08 0.70344 0 0.1 0.70344 0 0 0.705817 0 0.02 0.705817 0 0.04 0.705817 0 0.06 0.705817 0 0.08 0.705817 0 0.1 0.705817 0 0 0.708194 0 0.02 0.708194 0 0.04 0.708194 0 0.06 0.708194 0 0.08 0.708194 0 0.1 0.708194 0 0 0.710567 0 0.02 0.710567 0 0.04 0.710567 0 0.06 0.710567 0 0.08 0.710567 0 0.1 0.710567 0 0 0.712937 0 0.02 0.712937 0 0.04 0.712937 0 0.06 0.712937 0 0.08 0.712937 0 0.1 0.712937 0 0 0.715305 0 0.02 0.715305 0 0.04 0.715305 0 0.06 0.715305 0 0.08 0.715305 0 0.1 0.715305 0 0 0.71767
[...]
			<PointData Scalars="VitesseX">
				<DataArray Name="VitesseX" type="Float32" format="ascii">
 0 0 0 0 0 0 0 -2.96756e-17 5.80946e-15 1.29862e-15 -1.03001e-15 0 0 8.78512e-16 6.09487e-15 2.52552e-15 -3.29052e-15 0 0 2.28467e-15 5.85747e-15 3.37399e-15 -4.95637e-15 0 0 3.22122e-15 4.98771e-15 3.3857e-15 -5.75752e-15 0 0 2.91537e-15 6.09722e-15 3.10837e-16 -2.58451e-15 0 0 1.38867e-15 6.53042e-15 1.06083e-15 -1.6354e-15 0 0 1.30781e-15 3.69793e-15 5.71248e-15 -4.54585e-15 0 0 1.23037e-15 3.74666e-15 3.4622e-15 -1.24577e-15 0 0 -1.25402e-15 5.07036e-15 3.41284e-15 6.00749e-16 0 0 -2.30426e-15 4.95305e-15 4.23199e-15 1.95501e-15 0 0 -1.87986e-16 3.00494e-15 9.60747e-16 5.84148e-15 0 0 -1.12199e-15 2.82556e-15 -1.64622e-15 6.74788e-15 0 0 -3.12556e-15 4.68166e-15 -3.41536e-15 4.63481e-15 0 0 -2.88115e-15 3.43196e-15 -5.30852e-15 4.47643e-15 0 0 -3.33584e-15 2.74276e-15 -6.95898e-15 5.59497e-15 0 0 -4.00095e-15 4.55649e-15 -8.40415e-15 6.24883e-15 0 0 -2.88707e-16 2.92362e-15 -7.42408e-15 2.72568e-15 0 0 2.4876e-15 1.33623e-15 -5.56665e-15 -2.33815e-15 0 0 -1.72234e-15 3.30846e-15 -4.14849e-15 -4.97593e-16 0 0 3.03691e-16 -2.57174e-15 5.48834e-15 -3.83613e-15 0 0 -7.02132e-16 -2.9405e-15 6.48495e-15 -3.00756e-15 0 0 -3.09118e-15 5.63655e-15 -1.24602e-14 1.10813e-14 0 0 2.32751e-15 -1.36175e-15 -1.07817e-14 1.02919e-14 0 0 -2.1309e-16 -6.73607e-15 6.46576e-15 -4.47546e-15 0 0 3.45636e-16 -1.24835e-14 1.62475e-14 -1.33909e-14 0 0 1.67574e-15 -1.13914e-14 1.28815e-14 -1.42738e-14 0 0 -7.69318e-15 6.34454e-15 -3.09855e-15 -7.20826e-15 0 0 -4.03995e-15 4.31353e-15 1.4611e-15 -1.62037e-14 0 0 -2.37802e-15 3.66178e-15 3.60834e-15 -2.19104e-14 0 0 -6.10202e-15 1.15808e-14 -4.17417e-15 -9.35696e-15 0 0 -3.46896e-15 7.69361e-15 -2.21329e-15 2.03426e-15 0 0 -5.17614e-15 3.28818e-15 7.71654e-15 4.11288e-15 0 0 -4.00187e-15 6.49234e-15 4.96834e-15 1.55046e-14 0 0 4.76054e-15 -4.24811e-15 7.75545e-15 1.78675e-14 0 0 1.2742e-14 -8.0773e-15 1.19006e-14 1.06197e-14 0 0 5.93369e-15 1.84815e-14 -3.45212e-15 3.45851e-14 0 0 3.85572e-16 2.00549e-14 -5.64265e-15 4.1778e-14 0 0 1.55639e-15 -1.08001e-15 -1.91498e-15 1.32932e-14 0 0 -9.95007e-15 -3.67805e-16 9.19286e-16 -1.57705e-14 0 0 -9.31934e-15 -6.10435e-15 2.04688e-14 -1.75724e-14 0 0 -8.25866e-15 3.01764e-15 6.89839e-15 1.00961e-14 0 0 -3.19863e-14 1.74018e-14 -3.81548e-14 2.14356e-14 0 0 -3.15471e-14 -1.82937e-14 -1.85513e-14 -6.17807e-15 0 0 -2.28001e-14 -2.67874e-14 -4.65572e-15 -1.85553e-14 0 0 -3.45644e-14 -1.2739e-14 -2.65455e-14 -3.68686e-15 0 0 -1.26631e-14 -5.1005e-14 -1.10228e-14 -1.70001e-14 0 0 -1.37492e-14 -5.57724e-14 -1.86105e-14 -3.70475e-14 0 0 -4.05402e-14 -8.40191e-15 -4.67129e-14 -5.92069e-14 0 0 -1.04614e-14 -1.76762e-14 -4.38204e-14 -5.89988e-14 0 0 1.0173e-14 -3.47557e-14 -3.10235e-14 -3.4264e-14 0 0 1.7105e-14 -3.43235e-14 -2.22185e-14 -1.26483e-14 0 0 2.7617e-14 -1.6167e-14 -1.45692e-14 -4.15997e-15 0 0 1.74104e-14 1.49371e-14 -2.53061e-14 8.72944e-15 0 0 1.47122e-14 1.00168e-14 -2.27387e-14 1.0641e-14 0 0 -1.1932e-15 -4.2397e-15 -5.7402e-15 9.41159e-15 0 0 -1.12061e-14 -1.45148e-14 6.41147e-15 1.94378e-14 0 0 4.01366e-15 -1.99263e-14 3.81719e-14 -1.90252e-15 0 0 -1.6152e-14 -4.42435e-15 3.4352e-14 2.32958e-15 0 0 -3.60938e-14 -7.27761e-15 1.30978e-14 3.23979e-14 0 0 -5.77162e-14 -3.67393e-14 2.42902e-14 4.96982e-14 0 0 -8.5494e-14 -5.47808e-14 4.73122e-14 1.01179e-13 0 0 -1.43833e-13 -9.21645e-14 1.13303e-13 1.66087e-13 0 0 -2.5768e-13 -1.7498e-13 1.95651e-13 2.5125e-13 0 0 -3.51432e-13 -2.12118e-13 2.36245e-13 3.44054e-13 0 0 -4.12063e-13 -2.29873e-13 2.82092e-13 3.87485e-13 0 0 -4.26269e-13 -2.50854e-13 2.83627e-13 4.37739e-13 0 0 -3.1901e-13 -1.80505e-13 1.96825e-13 3.59227e-13 0 0 1.72772e-14 1.64483e-14 -5.25379e-15 -7.15778e-15 0 0 6.88901e-13 4.31527e-13 -4.02694e-13 -7.01201e-13 0 0 1.74721e-12 1.12372e-12 -1.07359e-12 -1.76762e-12 0 0 3.25716e-12 2.07031e-12 -2.01121e-12 -3.27019e-12 0 0 5.20739e-12 3.2251e-12 -3.16642e-12 -5.22039e-12 0 0 7.36412e-12 4.52502e-12 -4.48087e-12 -7.36376e-12 0 0 9.44641e-12 5.8131e-12 -5.79414e-12 -9.42743e-12 0 0 1.10299e-11 6.83183e-12 -6.80466e-12 -1.1023e-11 0 0 1.153e-11 7.17618e-12 -7.11849e-12 -1.15598e-11 0 0 1.03027e-11 6.39691e-12 -6.34724e-12 -1.03254e-11 0 0 6.5618e-12 4.07164e-12 -4.05356e-12 -6.55282e-12 0 0 -4.3016e-13 -2.38979e-13 2.56211e-13 4.35744e-13 0 0 -1.12772e-11 -6.94582e-12 6.98239e-12 1.12855e-11 0 0 -2.64532e-11 -1.63515e-11 1.63774e-11 2.64665e-11 0 0 -4.61456e-11 -2.85159e-11 2.85311e-11 4.61478e-11 0 0 -7.02236e-11 -4.3398e-11 4.3438e-11 7.02028e-11 0 0 -9.82263e-11 -6.07196e-11 6.0765e-11 9.82211e-11 0 0 -1.29736e-10 -8.01463e-11 8.01866e-11 1.29761e-10 0 0 -1.62998e-10 -1.00745e-10 1.00768e-10 1.63031e-10 0 0 -1.66058e-10 -1.02558e-10 1.02579e-10 1.66065e-10 0 0 -1.45793e-10 -9.04504e-11 9.04716e-11 1.45782e-10 0 0 -1.2269e-10 -7.54125e-11 7.54022e-11 1.22662e-10 0 0 -7.36756e-11 -4.39073e-11 4.38592e-11 7.36351e-11 0 0 -6.66651e-12 -1.32488e-11 1.31554e-11 6.62902e-12 0 0 2.09435e-11 3.01015e-11 -3.02002e-11 -2.10281e-11 0 0 2.24471e-11 1.58303e-11 -1.59394e-11 -2.25344e-11 0 0 2.18853e-12 -8.64163e-11 8.63059e-11 -2.23824e-12 0 0 -2.60817e-10 3.73569e-11 -3.74384e-11 2.60772e-10 0 0 -3.27853e-10 -4.45768e-10 4.4572e-10 3.27828e-10 0 0 -1.18324e-09 -2.82716e-10 2.82702e-10 1.18322e-09 0 0 -1.39659e-09 -2.65703e-09 2.65702e-09 1.39659e-09 0 0 -8.3913e-09 2.28235e-09 -2.28239e-09 8.39131e-09 0 0 -9.15983e-09 4.97722e-09 -4.97731e-09 9.15983e-09 0 0 3.04339e-08 -1.92077e-08 1.92075e-08 -3.0434e-08 0 0 1.61741e-08 -2.68162e-09 2.68147e-09 -1.61742e-08 0 0 1.0394e-08 1.95506e-09 -1.95521e-09 -1.0394e-08 0 0 7.51671e-09 3.04414e-09 -3.04432e-09 -7.51677e-09 0 0 5.81433e-09 3.0121e-09 -3.01227e-09 -5.81434e-09 0 0 4.66585e-09 2.64259e-09 -2.64268e-09 -4.66581e-09 0 0 3.82969e-09 2.18298e-09 -2.18288e-09 -3.82958e-09 0 0 3.17799e-09 1.71996e-09 -1.7196e-09 -3.17774e-09 0 0 2.65125e-09 1.31481e-09 -1.3142e-09 -2.65085e-09 0 0 2.23579e-09 1.00623e-09 -1.00542e-09 -2.23524e-09 0 0 1.87268e-09 7.92546e-10 -7.91604e-10 -1.87199e-09 0 0 1.5194e-09 6.5828e-10 -6.57275e-10 -1.51868e-09 0 0 1.21022e-09 5.71683e-10 -5.70643e-10 -1.20958e-09 0 0 9.56821e-10 5.03642e-10 -5.02636e-10 -9.56146e-10 0 0 7.60993e-10 4.57543e-10 -4.56594e-10 -7.60332e-10 0 0 6.11685e-10 4.2343e-10 -4.22528e-10 -6.11097e-10 0 0 5.02215e-10 3.90199e-10 -3.8933e-10 -5.0167e-10 0 0 4.28264e-10 3.48138e-10 -3.47281e-10 -4.2779e-10 0 0 3.81422e-10 2.98619e-10 -2.9783e-10 -3.80989e-10 0 0 3.49438e-10 2.49704e-10 -2.48967e-10 -3.49024e-10 0 0 3.272e-10 2.11452e-10 -2.10774e-10 -3.26768e-10 0 0 3.11535e-10 1.87573e-10 -1.86944e-10 -3.11137e-10 0 0 2.99979e-10 1.75777e-10 -1.75157e-10 -2.9964e-10 0 0 2.92376e-10 1.72262e-10 -1.71676e-10 -2.92041e-10 0 0 2.86859e-10 1.72175e-10 -1.7161e-10 -2.86552e-10 0 0 2.87483e-10 1.75606e-10 -1.75049e-10 -2.87196e-10 0 0 2.93362e-10 1.81111e-10 -1.80554e-10 -2.93107e-10 0 0 2.94575e-10 1.82688e-10 -1.82162e-10 -2.94341e-10 0 0 2.85681e-10 1.77274e-10 -1.76827e-10 -2.8546e-10 0 0 2.72791e-10 1.69079e-10 -1.68659e-10 -2.72599e-10 0 0 2.63464e-10 1.63147e-10 -1.62756e-10 -2.63249e-10 0 0 2.54214e-10 1.57329e-10 -1.56981e-10 -2.53993e-10 0 0 2.41027e-10 1.49152e-10 -1.48828e-10 -2.40825e-10 0 0 2.21558e-10 1.37114e-10 -1.36801e-10 -2.21397e-10 0 0 1.9644e-10 1.21582e-10 -1.21279e-10 -1.96322e-10 0 0 1.68188e-10 1.04157e-10 -1.03869e-10 -1.68083e-10 0 0 1.40464e-10 8.70418e-11 -8.67778e-11 -1.4037e-10 0 0 1.13406e-10 7.03245e-11 -7.0102e-11 -1.13327e-10 0 0 8.40852e-11 5.21797e-11 -5.19988e-11 -8.39977e-11 0 0 4.80776e-11 2.99167e-11 -2.9784e-11 -4.79921e-11 0 0 4.62761e-12 3.02585e-12 -2.92964e-12 -4.59817e-12 0 0 -4.4818e-11 -2.75657e-11 2.76441e-11 4.48056e-11 0 0 -9.31987e-11 -5.74614e-11 5.75208e-11 9.31472e-11 0 0 -1.22345e-10 -7.54775e-11 7.54912e-11 1.22282e-10 0 0 -1.40652e-10 -8.68066e-11 8.67752e-11 1.40599e-10 0 0 -1.65805e-10 -1.02374e-10 1.02307e-10 1.65752e-10 0 0 -1.9358e-10 -1.19515e-10 1.1942e-10 1.93496e-10 0 0 -2.20546e-10 -1.36205e-10 1.36089e-10 2.20436e-10 0 0 -2.287e-10 -1.41268e-10 1.41116e-10 2.28592e-10 0 0 -2.22513e-10 -1.37465e-10 1.37292e-10 2.22384e-10 0 0 -2.15861e-10 -1.33371e-10 1.33185e-10 2.15657e-10 0 0 -2.05027e-10 -1.26703e-10 1.26499e-10 2.0481e-10 0 0 -1.90577e-10 -1.17847e-10 1.176e-10 1.90447e-10 0 0 -1.70043e-10 -1.05177e-10 1.04926e-10 1.69941e-10 0 0 -1.42804e-10 -8.83761e-11 8.81711e-11 1.42704e-10 0 0 -1.13003e-10 -7.00022e-11 6.98484e-11 1.1288e-10 0 0 -8.51348e-11 -5.27196e-11 5.26028e-11 8.49078e-11 0 0 -6.0743e-11 -3.76376e-11 3.74906e-11 6.04457e-11 0 0 -3.91224e-11 -2.43463e-11 2.41138e-11 3.8886e-11 0 0 -2.15869e-11 -1.35032e-11 1.3238e-11 2.13825e-11 0 0 -8.25509e-12 -5.2428e-12 5.00426e-12 7.94449e-12 0 0 1.25202e-12 6.68922e-13 -9.23009e-13 -1.59267e-12 0 0 7.10566e-12 4.32935e-12 -4.61174e-12 -7.41077e-12 0 0 9.76907e-12 5.98237e-12 -6.30145e-12 -1.00671e-11 0 0 9.73699e-12 5.94259e-12 -6.23645e-12 -9.99171e-12 0 0 7.85732e-12 4.79464e-12 -5.04926e-12 -8.03985e-12 0 0 5.1734e-12 3.18949e-12 -3.39303e-12 -5.32056e-12 0 0 2.70303e-12 1.6395e-12 -1.77232e-12 -2.85355e-12 0 0 1.07981e-12 6.01136e-13 -7.36142e-13 -1.14184e-12 0 0 3.09949e-13 1.39521e-13 -2.84343e-13 -3.44822e-13 0 0 4.55006e-14 -1.61464e-14 -1.06153e-13 -1.47368e-13 0 0 -2.50973e-14 -5.81545e-14 -6.05925e-14 -7.64975e-14 0 0 -3.31728e-14 -7.5935e-14 -5.84692e-14 -4.47269e-14 0 0 -3.86062e-14 -6.39183e-14 -5.36028e-14 -4.71224e-14 0 0 -5.49964e-14 -4.88203e-14 -6.21302e-14 -5.99887e-14 0 0 -4.02006e-14 -8.91295e-14 -4.42035e-14 -6.56188e-14 0 0 -2.72211e-14 -1.048e-13 -6.69073e-14 -4.94599e-14 0 0 -4.74094e-14 -7.47242e-14 -1.00492e-13 -3.18806e-14 0 0 -5.0961e-14 -7.32623e-14 -8.48098e-14 -4.06626e-14 0 0 -4.73641e-14 -7.51764e-14 -7.99366e-14 -5.31399e-14 0 0 -4.82495e-14 -6.80386e-14 -7.90601e-14 -5.00243e-14 0 0 -4.54405e-14 -7.57641e-14 -5.65373e-14 -6.37033e-14 0 0 -3.93219e-14 -5.67408e-14 -8.75914e-14 -3.66972e-14 0 0 -2.17541e-14 -4.60125e-14 -1.17881e-13 -2.09675e-15 0 0 -9.73687e-15 -4.71748e-14 -8.96433e-14 -2.36443e-14 0 0 1.11951e-14 -5.94565e-14 -6.53274e-14 -5.71602e-14 0 0 3.25701e-14 -7.06071e-14 -8.06614e-14 -3.34077e-14 0 0 1.89019e-14 -3.68971e-14 -1.09758e-13 2.04635e-14 0 0 4.01708e-15 -3.50818e-15 -1.51758e-13 8.14223e-14 0 0 2.88757e-14 -2.54282e-14 -1.40211e-13 8.44203e-14 0 0 3.66336e-14 -3.68484e-14 -1.01727e-13 4.02272e-14 0 0 1.0737e-14 -6.60819e-15 -1.01419e-13 2.94255e-14 0 0 3.29562e-15 -7.23936e-15 -7.00387e-14 2.1645e-14 0 0 -2.89313e-15 -3.5959e-14 -1.52685e-14 -2.81997e-14 0 0 -3.00762e-14 -1.51052e-14 -3.4479e-14 -3.24916e-14 0 0 -6.65019e-14 3.28851e-15 -5.77173e-14 -5.87503e-14 0 0 -8.00588e-14 -5.51861e-14 -1.63533e-15 -1.28332e-13 0 0 -8.14554e-14 -6.98394e-14 -1.73126e-14 -7.58839e-14 0 0 -6.40293e-14 -9.72669e-14 1.95775e-14 -8.3893e-14 0 0 0 0 0 0 0
				</DataArray>
				<DataArray Name="VitesseY" type="Float32" format="ascii">
 0 0 0 0 0 0 0 1.93636e-16 1.29016e-15 3.95451e-15 1.92611e-15 0 0 2.38008e-15 6.96574e-15 9.63103e-15 7.81455e-15 0 0 6.81578e-15 7.65808e-15 7.02502e-15 5.99675e-15 0 0 7.18285e-15 6.44718e-15 3.57497e-15 1.84157e-15 0 0 3.93304e-15 8.88841e-15 3.28904e-15 5.32679e-15 0 0 6.87192e-15 -7.77464e-16 8.59158e-15 1.34741e-14 0 0 5.8138e-15 2.20567e-15 -4.03198e-16 2.18638e-15 0 0 1.44876e-15 5.34967e-15 -7.18008e-16 1.04507e-15 0 0 2.52995e-15 -5.74225e-15 5.27065e-15 1.09792e-14 0 0 3.70045e-15 7.0563e-15 -1.38392e-15 1.9517e-15 0 0 8.87492e-15 5.86542e-15 -6.09262e-15 -6.75271e-15 0 0 7.54625e-15 6.0692e-15 6.90752e-15 1.08885e-15 0 0 8.4167e-15 9.12559e-15 8.45136e-15 -1.30604e-15 0 0 1.39834e-14 9.01821e-15 -2.79163e-15 -1.46887e-15 0 0 1.11574e-14 1.12656e-14 1.41045e-14 1.07603e-14 0 0 8.561e-15 1.25985e-14 1.07183e-14 1.15038e-14 0 0 1.11902e-14 1.53045e-14 1.40651e-14 3.58487e-15 0 0 6.05058e-15 6.33967e-15 8.62081e-15 6.81404e-15 0 0 4.90471e-15 -4.4636e-15 6.40841e-15 2.18748e-14 0 0 1.10862e-14 5.30657e-15 9.44008e-15 1.9613e-14 0 0 -9.82021e-15 -9.12625e-15 -1.11692e-14 -1.35594e-14 0 0 1.76868e-14 4.19505e-14 2.14505e-15 -1.46119e-14 0 0 1.38817e-14 -1.6883e-14 1.3308e-15 2.19767e-14 0 0 -3.61171e-15 -4.73849e-15 2.45808e-14 1.41052e-14 0 0 2.41931e-14 4.53198e-15 -8.34816e-15 5.50565e-15 0 0 -8.36241e-15 2.08262e-14 2.48001e-14 -6.2727e-15 0 0 -3.60326e-15 7.10536e-16 3.90295e-15 -1.24584e-15 0 0 2.78714e-14 3.04936e-14 3.74264e-14 2.45343e-14 0 0 -6.75041e-15 -5.23336e-15 -6.28145e-15 -7.28873e-15 0 0 8.38504e-15 2.34362e-14 2.51396e-14 4.51257e-14 0 0 2.72412e-14 7.1976e-15 -2.02183e-15 3.10798e-14 0 0 4.84184e-14 4.4372e-14 7.56463e-14 9.04159e-14 0 0 3.60561e-14 5.78302e-14 2.81504e-14 4.80904e-14 0 0 6.54694e-14 3.54805e-14 3.29125e-14 3.42296e-14 0 0 4.31099e-14 8.88987e-14 9.2667e-14 7.95391e-14 0 0 1.44828e-13 1.77727e-13 2.191e-13 2.66429e-13 0 0 7.95011e-13 7.46181e-13 7.02656e-13 6.7488e-13 0 0 4.58112e-12 4.55014e-12 4.52369e-12 4.4526e-12 0 0 2.70548e-11 2.70424e-11 2.70829e-11 2.70495e-11 0 0 1.52268e-10 1.5226e-10 1.52275e-10 1.52379e-10 0 0 8.16728e-10 8.16778e-10 8.16745e-10 8.16697e-10 0 0 4.16103e-09 4.16094e-09 4.16085e-09 4.16076e-09 0 0 2.00896e-08 2.00895e-08 2.00896e-08 2.00896e-08 0 0 9.17266e-08 9.17267e-08 9.17267e-08 9.17267e-08 0 0 3.9507e-07 3.9507e-07 3.9507e-07 3.9507e-07 0 0 1.60054e-06 1.60054e-06 1.60054e-06 1.60054e-06 0 0 6.07935e-06 6.07935e-06 6.07935e-06 6.07935e-06 0 0 2.15677e-05 2.15677e-05 2.15677e-05 2.15677e-05 0 0 7.11538e-05 7.11538e-05 7.11538e-05 7.11538e-05 0 0 0.000217171 0.000217171 0.000217171 0.000217171 0 0 0.000609594 0.000609594 0.000609594 0.000609594 0 0 0.00156338 0.00156338 0.00156338 0.00156338 0 0 0.00363943 0.00363943 0.00363943 0.00363943 0 0 0.00764995 0.00764995 0.00764995 0.00764995 0 0 0.0144887 0.0144887 0.0144887 0.0144887 0 0 0.0247957 0.0247957 0.0247957 0.0247957 0 0 0.038669 0.038669 0.038669 0.038669 0 0 0.055667 0.055667 0.055667 0.055667 0 0 0.0750843 0.0750843 0.0750843 0.0750843 0 0 0.0962568 0.0962568 0.0962568 0.0962568 0 0 0.11871 0.11871 0.11871 0.11871 0 0 0.142161 0.142161 0.142161 0.142161 0 0 0.166456 0.166456 0.166456 0.166456 0 0 0.191523 0.191523 0.191523 0.191523 0 0 0.217328 0.217328 0.217328 0.217328 0 0 0.243863 0.243863 0.243863 0.243863 0 0 0.271136 0.271136 0.271136 0.271136 0 0 0.299163 0.299163 0.299163 0.299163 0 0 0.327968 0.327968 0.327968 0.327968 0 0 0.357582 0.357582 0.357582 0.357582 0 0 0.38804 0.38804 0.38804 0.38804 0 0 0.419383 0.419383 0.419383 0.419383 0 0 0.451656 0.451656 0.451656 0.451656 0 0 0.484908 0.484908 0.484908 0.484908 0 0 0.519192 0.519192 0.519192 0.519192 0 0 0.554565 0.554565 0.554565 0.554565 0 0 0.591084 0.591084 0.591084 0.591084 0 0 0.628805 0.628805 0.628805 0.628805 0 0 0.667775 0.667775 0.667775 0.667775 0 0 0.708023 0.708023 0.708023 0.708023 0 0 0.74953 0.74953 0.74953 0.74953 0 0 0.792181 0.792181 0.792181 0.792181 0 0 0.835628 0.835628 0.835628 0.835628 0 0 0.878971 0.878971 0.878971 0.878971 0 0 0.919851 0.919851 0.919851 0.919851 0 0 0.951959 0.951959 0.951959 0.951959 0 0 0.960281 0.960281 0.960281 0.960281 0 0 0.95199 0.95199 0.95199 0.95199 0 0 0.944199 0.944199 0.944199 0.944199 0 0 0.93732 0.93732 0.93732 0.93732 0 0 0.932412 0.932412 0.932412 0.932412 0 0 0.929513 0.929513 0.929513 0.929513 0 0 0.928038 0.928038 0.928038 0.928038 0 0 0.92735 0.92735 0.92735 0.92735 0 0 0.927023 0.927023 0.927023 0.927023 0 0 0.926846 0.926846 0.926846 0.926846 0 0 0.926744 0.926744 0.926744 0.926744 0 0 0.926681 0.926681 0.926681 0.926681 0 0 0.926604 0.926604 0.926604 0.926604 0 0 0.926523 0.926523 0.926523 0.926523 0 0 0.926639 0.926639 0.926639 0.926639 0 0 0.926646 0.926646 0.926646 0.926646 0 0 0.926641 0.926641 0.926641 0.926641 0 0 0.926634 0.926634 0.926634 0.926634 0 0 0.926624 0.926624 0.926624 0.926624 0 0 0.926616 0.926616 0.926616 0.926616 0 0 0.926609 0.926609 0.926609 0.926609 0 0 0.926606 0.926606 0.926606 0.926606 0 0 0.926609 0.926609 0.926609 0.926609 0 0 0.926667 0.926667 0.926667 0.926667 0 0 0.92681 0.92681 0.92681 0.92681 0 0 0.92679 0.92679 0.92679 0.92679 0 0 0.926751 0.926751 0.926751 0.926751 0 0 0.926695 0.926695 0.926695 0.926695 0 0 0.926635 0.926635 0.926635 0.926635 0 0 0.926579 0.926579 0.926579 0.926579 0 0 0.926526 0.926526 0.926526 0.926526 0 0 0.92648 0.92648 0.92648 0.92648 0 0 0.926439 0.926439 0.926439 0.926439 0 0 0.926405 0.926405 0.926405 0.926405 0 0 0.926375 0.926375 0.926375 0.926375 0 0 0.926347 0.926347 0.926347 0.926347 0 0 0.926322 0.926322 0.926322 0.926322 0 0 0.926301 0.926301 0.926301 0.926301 0 0 0.926285 0.926285 0.926285 0.926285 0 0 0.926279 0.926279 0.926279 0.926279 0 0 0.926285 0.926285 0.926285 0.926285 0 0 0.926387 0.926387 0.926387 0.926387 0 0 0.926491 0.926491 0.926491 0.926491 0 0 0.926421 0.926421 0.926421 0.926421 0 0 0.926355 0.926355 0.926355 0.926355 0 0 0.9263 0.9263 0.9263 0.9263 0 0 0.926237 0.926237 0.926237 0.926237 0 0 0.926181 0.926181 0.926181 0.926181 0 0 0.926125 0.926125 0.926125 0.926125 0 0 0.926057 0.926057 0.926057 0.926057 0 0 0.925963 0.925963 0.925963 0.925963 0 0 0.925841 0.925841 0.925841 0.925841 0 0 0.925711 0.925711 0.925711 0.925711 0 0 0.925601 0.925601 0.925601 0.925601 0 0 0.925551 0.925551 0.925551 0.925551 0 0 0.925601 0.925601 0.925601 0.925601 0 0 0.926113 0.926113 0.926113 0.926113 0 0 0.92607 0.92607 0.92607 0.92607 0 0 0.926008 0.926008 0.926008 0.926008 0 0 0.92593 0.92593 0.92593 0.92593 0 0 0.925889 0.925889 0.925889 0.925889 0 0 0.926155 0.926155 0.926155 0.926155 0 0 0.926054 0.926054 0.926054 0.926054 0 0 0.92566 0.92566 0.92566 0.92566 0 0 0.924971 0.924971 0.924971 0.924971 0 0 0.924513 0.924513 0.924513 0.924513 0 0 0.924506 0.924506 0.924506 0.924506 0 0 0.927112 0.927112 0.927112 0.927112 0 0 0.928897 0.928897 0.928897 0.928897 0 0 0.926789 0.926789 0.926789 0.926789 0 0 0.916181 0.916181 0.916181 0.916181 0 0 0.913127 0.913127 0.913127 0.913127 0 0 0.901689 0.901689 0.901689 0.901689 0 0 0.879216 0.879216 0.879216 0.879216 0 0 0.848536 0.848536 0.848536 0.848536 0 0 0.801527 0.801527 0.801527 0.801527 0 0 0.739858 0.739858 0.739858 0.739858 0 0 0.654636 0.654636 0.654636 0.654636 0 0 0.551451 0.551451 0.551451 0.551451 0 0 0.431029 0.431029 0.431029 0.431029 0 0 0.307172 0.307172 0.307172 0.307172 0 0 0.193403 0.193403 0.193403 0.193403 0 0 0.104993 0.104993 0.104993 0.104993 0 0 0.048876 0.048876 0.048876 0.048876 0 0 0.0201245 0.0201245 0.0201245 0.0201245 0 0 0.00770522 0.00770522 0.00770522 0.00770522 0 0 0.002852 0.002852 0.002852 0.002852 0 0 0.00104122 0.00104122 0.00104122 0.00104122 0 0 0.000378094 0.000378094 0.000378094 0.000378094 0 0 0.000136983 0.000136983 0.000136983 0.000136983 0 0 4.95649e-05 4.95649e-05 4.95649e-05 4.95649e-05 0 0 1.79146e-05 1.79146e-05 1.79146e-05 1.79146e-05 0 0 6.46698e-06 6.46698e-06 6.46698e-06 6.46698e-06 0 0 2.33097e-06 2.33097e-06 2.33097e-06 2.33097e-06 0 0 8.38607e-07 8.38607e-07 8.38607e-07 8.38607e-07 0 0 3.01022e-07 3.01022e-07 3.01022e-07 3.01022e-07 0 0 1.07762e-07 1.07763e-07 1.07762e-07 1.07762e-07 0 0 3.84566e-08 3.84566e-08 3.84566e-08 3.84567e-08 0 0 1.36742e-08 1.36742e-08 1.36743e-08 1.36743e-08 0 0 4.84233e-09 4.84233e-09 4.84229e-09 4.84227e-09 0 0 1.70686e-09 1.7069e-09 1.70684e-09 1.70689e-09 0 0 5.98587e-10 5.98626e-10 5.98702e-10 5.9875e-10 0 0 2.08794e-10 2.08829e-10 2.08718e-10 2.08746e-10 0 0 7.24211e-11 7.23974e-11 7.24669e-11 7.24976e-11 0 0 2.49075e-11 2.4916e-11 2.49546e-11 2.49007e-11 0 0 8.53965e-12 8.54896e-12 8.63318e-12 8.64482e-12 0 0 2.95786e-12 2.91606e-12 2.95434e-12 3.03731e-12 0 0 1.00706e-12 9.08996e-13 9.74224e-13 9.11214e-13 0 0 2.76003e-13 3.48603e-13 2.89843e-13 2.59487e-13 0 0 7.8051e-14 -6.63527e-14 -2.75597e-14 -1.95249e-13 0 0 6.24697e-14 -8.08799e-14 -1.28893e-13 -1.5062e-14 0 0 -9.39581e-15 6.94609e-14 -4.84758e-15 2.79818e-14 0 0 7.67385e-14 -4.16216e-14 7.05211e-14 1.5245e-13 0 0 0 0 0 0 0
				</DataArray>
			</PointData>
			<CellData Scalars="Density">
				<DataArray Name="Density" type="Float32" format="ascii">