<?xml version="1.0"?>
<VTKFile type="PolyData">
	<PolyData>
		<Piece NumberOfPoints="1206" NumberOfPolys="1000">
			<Points>
				<DataArray type="Float32" NumberOfComponents="3" format="ascii">
 0 0 0 0.02 0 0 0.04 0 0 0.06 0 0 0.08 0 0 0.1 0 0 0 0.005 0 0.02 0.005 0 0.04 0.005 0 0.06 0.005 0 0.08 0.005 0 0.1 0.005 0 0 0.01 0 0.02 0.01 0 0.04 0.01 0 0.06 0.01 0 0.08 0.01 0 0.1 0.01 0 0 0.015 0 0.02 0.015 0 0.04 0.015 0 0.06 0.015 0 0.08 0.015 0 0.1 0.015 0 0 0.02 0 0.02 0.02 0 0.04 0.02 0 0.06 0.02 0 0.08 0.02 0 0.1 0.02 0 0 0.025 0 0.02 0.025 0 0.04 0.025 0 0.06 0.025 0 0.08 0.025 0 0.1 0.025 0 0 0.03 0 0.02 0.03 0 0.04 0.03 0 0.06 0.03 0 0.08 0.03 0 0.1 0.03 0 0 0.035 0 0.02 0.035 0 0.04 0.035 0 0.06 0.035 0 0.08 0.035 0 0.1 0.035 0 0 0.04 0 0.02 0.04 0 0.04 0.04 0 0.06 0.04 0 0.08 0.04 0 0.1 0.04 0 0 0.045 0 0.02 0.045 0 0.04 0.045 0 0.06 0.045 0 0.08 0.045 0 0.1 0.045 0 0 0.05 0 0.02 0.05 0 0.04 0.05 0 0.06 0.05 0 0.08 0.05 0 0.1 0.05 0 0 0.055 0 0.02 0.055 0 0.04 0.055 0 0.06 0.055 0 0.08 0.055 0 0.1 0.055 0 0 0.06 0 0.02 0.06 0 0.04 0.06 0 0.06 0.06 0 0.08 0.06 0 0.1 0.06 0 0 0.065 0 0.02 0.065 0 0.04 0.065 0 0.06 0.065 0 0.08 0.065 0 0.1 0.065 0 0 0.07 0 0.02 0.07 0 0.04 0.07 0 0.06 0.07 0 0.08 0.07 0 0.1 0.07 0 0 0.075 0 0.02 0.075 0 0.04 0.075 0 0.06 0.075 0 0.08 0.075 0 0.1 0.075 0 0 0.08 0 0.02 0.08 0 0.04 0.08 0 0.06 0.08 0 0.08 0.08 0 0.1 0.08 0 0 0.085 0 0.02 0.085 0 0.04 0.085 0 0.06 0.085 0 0.08 0.085 0 0.1 0.085 0 0 0.09 0 0.02 0.09 0 0.04 0.09 0 0.06 0.09 0 0.08 0.09 0 0.1 0.09 0 0 0.095 0 0.02 0.095 0 0.04 0.095 0 0.06 0.095 0 0.08 0.095 0 0.1 0.095 0 0 0.1 0 0.02 0.1 0 0.04 0.1 0 0.06 0.1 0 0.08 0.1 0 0.1 0.1 0 0 0.105 0 0.02 0.105 0 0.04 0.105 0 0.06 0.105 0 0.08 0.105 0 0.1 0.105 0 0 0.11 0 0.02 0.11 0 0.04 0.11 0 0.06 0.11 0 0.08 0.11 0 0.1 0.11 0 0 0.115 0 0.02 0.115 0 0.04 0.115 0 0.06 0.115 0 0.08 0.115 0 0.1 0.115 0 0 0.12 0 0.02 0.12 0 0.04 0.12 0 0.06 0.12 0 0.08 0.12 0 0.1 0.12 0 0 0.125 0 0.02 0.125 0 0.04 0.125 0 0.06 0.125 0 0.08 0.125 0 0.1 0.125 0 0 0.13 0 0.02 0.13 0 0.04 0.13 0 0.06 0.13 0 0.08 0.13 0 0.1 0.13 0 0 0.135 0 0.02 0.135 0 0.04 0.135 0 0.06 0.135 0 0.08 0.135 0 0.1 0.135 0 0 0.14 0 0.02 0.14 0 0.04 0.14 0 0.06 0.14 0 0.08 0.14 0 0.1 0.14 0 0 0.145 0 0.02 0.145 0 0.04 0.145 0 0.06 0.145 0 0.08 0.145 0 0.1 0.145 0 0 0.15 0 0.02 0.15 0 0.04 0.15 0 0.06 0.15 0 0.08 0.15 0 0.1 0.15 0 0 0.155 0 0.02 0.155 0 0.04 0.155 0 0.06 0.155 0 0.08 0.155 0 0.1 0.155 0 0 0.16 0 0.02 0.16 0 0.04 0.16 0 0.06 0.16 0 0.08 0.16 0 0.1 0.16 0 0 0.165 0 0.02 0.165 0 0.04 0.165 0 0.06 0.165 0 0.08 0.165 0 0.1 0.165 0 0 0.17 0 0.02 0.17 0 0.04 0.17 0 0.06 0.17 0 0.08 0.17 0 0.1 0.17 0 0 0.175 0 0.02 0.175 0 0.04 0.175 0 0.06 0.175 0 0.08 0.175 0 0.1 0.175 0 0 0.18 0 0.02 0.18 0 0.04 0.18 0 0.06 0.18 0 0.08 0.18 0 0.1 0.18 0 0 0.185 0 0.02 0.185 0 0.04 0.185 0 0.06 0.185 0 0.08 0.185 0 0.1 0.185 0 0 0.19 0 0.02 0.19 0 0.04 0.19 0 0.06 0.19 0 0.08 0.19 0 0.1 0.19 0 0 0.195 0 0.02 0.195 0 0.04 0.195 0 0.06 0.195 0 0.08 0.195 0 0.1 0.195 0 0 0.2 0 0.02 0.2 0 0.04 0.2 0 0.06 0.2 0 0.08 0.2 0 0.1 0.2 0 0 0.205 0 0.02 0.205 0 0.04 0.205 0 0.06 0.205 0 0.08 0.205 0 0.1 0.205 0 0 0.21 0 0.02 0.21 0 0.04 0.21 0 0.06 0.21 0 0.08 0.21 0 0.1 0.21 0 0 0.215 0 0.02 0.215 0 0.04 0.215 0 0.06 0.215 0 0.08 0.215 0 0.1 0.215 0 0 0.22 0 0.02 0.22 0 0.04 0.22 0 0.06 0.22 0 0.08 0.22 0 0.1 0.22 0 0 0.225 0 0.02 0.225 0 0.04 0.225 0 0.06 0.225 0 0.08 0.225 0 0.1 0.225 0 0 0.23 0 0.02 0.23 0 0.04 0.23 0 0.06 0.23 0 0.08 0.23 0 0.1 0.23 0 0 0.235 0 0.02 0.235 0 0.04 0.235 0 0.06 0.235 0 0.08 0.235 0 0.1 0.235 0 0 0.24 0 0.02 0.24 0 0.04 0.24 0 0.06 0.24 0 0.08 0.24 0 0.1 0.24 0 0 0.245 0 0.02 0.245 0 0.04 0.245 0 0.06 0.245 0 0.08 0.245 0 0.1 0.245 0 0 0.25 0 0.02 0.25 0 0.04 0.25 0 0.06 0.25 0 0.08 0.25 0 0.1 0.25 0 0 0.255 0 0.02 0.255 0 0.04 0.255 0 0.06 0.255 0 0.08 0.255 0 0.1 0.255 0 0 0.26 0 0.02 0.26 0 0.04 0.26 0 0.06 0.26 0 0.08 0.26 0 0.1 0.26 0 0 0.265 0 0.02 0.265 0 0.04 0.265 0 0.06 0.265 0 0.08 0.265 0 0.1 0.265 0 0 0.27 0 0.02 0.27 0 0.04 0.27 0 0.06 0.27 0 0.08 0.27 0 0.1 0.27 0 0 0.275 0 0.02 0.275 0 0.04 0.275 0 0.06 0.275 0 0.08 0.275 0 0.1 0.275 0 0 0.28 0 0.02 0.28 0 0.04 0.28 0 0.06 0.28 0 0.08 0.28 0 0.1 0.28 0 0 0.285 0 0.02 0.285 0 0.04 0.285 0 0.06 0.285 0 0.08 0.285 0 0.1 0.285 0 0 0.29 0 0.02 0.29 0 0.04 0.29 0 0.06 0.29 0 0.08 0.29 0 0.1 0.29 0 0 0.295 0 0.02 0.295 0 0.04 0.295 0 0.06 0.295 0 0.08 0.295 0 0.1 0.295 0 0 0.3 0 0.02 0.3 0 0.04 0.3 0 0.06 0.3 0 0.08 0.3 0 0.1 0.3 0 0 0.305 0 0.02 0.305 0 0.04 0.305 0 0.06 0.305 0 0.08 0.305 0 0.1 0.305 0 0 0.31 0 0.02 0.31 0 0.04 0.31 0 0.06 0.31 0 0.08 0.31 0 0.1 0.31 0 0 0.315 0 0.02 0.315 0 0.04 0.315 0 0.06 0.315 0 0.08 0.315 0 0.1 0.315 0 0 0.32 0 0.02 0.32 0 0.04 0.32 0 0.06 0.32 0 0.08 0.32 0 0.1 0.32 0 0 0.325 0 0.02 0.325 0 0.04 0.325 0 0.06 0.325 0 0.08 0.325 0 0.1 0.325 0 0 0.33 0 0.02 0.33 0 0.04 0.33 0 0.06 0.33 0 0.08 0.33 0 0.1 0.33 0 0 0.335 0 0.02 0.335 0 0.04 0.335 0 0.06 0.335 0 0.08 0.335 0 0.1 0.335 0 0 0.34 0 0.02 0.34 0 0.04 0.34 0 0.06 0.34 0 0.08 0.34 0 0.1 0.34 0 0 0.345 0 0.02 0.345 0 0.04 0.345 0 0.06 0.345 0 0.08 0.345 0 0.1 0.345 0 0 0.35 0 0.02 0.35 0 0.04 0.35 0 0.06 0.35 0 0.08 0.35 0 0.1 0.35 0 0 0.355 0 0.02 0.355 0 0.04 0.355 0 0.06 0.355 0 0.08 0.355 0 0.1 0.355 0 0 0.36 0 0.02 0.36 0 0.04 0.36 0 0.06 0.36 0 0.08 0.36 0 0.1 0.36 0 0 0.365 0 0.02 0.365 0 0.04 0.365 0 0.06 0.365 0 0.08 0.365 0 0.1 0.365 0 0 0.37 0 0.02 0.37 0 0.04 0.37 0 0.06 0.37 0 0.08 0.37 0 0.1 0.37 0 0 0.375 0 0.02 0.375 0 0.04 0.375 0 0.06 0.375 0 0.08 0.375 0 0.1 0.375 0 0 0.38 0 0.02 0.38 0 0.04 0.38 0 0.06 0.38 0 0.08 0.38 0 0.1 0.38 0 0 0.385 0 0.02 0.385 0 0.04 0.385 0 0.06 0.385 0 0.08 0.385 0 0.1 0.385 0 0 0.39 0 0.02 0.39 0 0.04 0.39 0 0.06 0.39 0 0.08 0.39 0 0.1 0.39 0 0 0.395 0 0.02 0.395 0 0.04 0.395 0 0.06 0.395 0 0.08 0.395 0 0.1 0.395 0 0 0.4 0 0.02 0.4 0 0.04 0.4 0 0.06 0.4 0 0.08 0.4 0 0.1 0.4 0 0 0.405 0 0.02 0.405 0 0.04 0.405 0 0.06 0.405 0 0.08 0.405 0 0.1 0.405 0 0 0.41 0 0.02 0.41 0 0.04 0.41 0 0.06 0.41 0 0.08 0.41 0 0.1 0.41 0 0 0.415 0 0.02 0.415 0 0.04 0.415 0 0.06 0.415 0 0.08 0.415 0 0.1 0.415 0 0 0.42 0 0.02 0.42 0 0.04 0.42 0 0.06 0.42 0 0.08 0.42 0 0.1 0.42 0 0 0.425 0 0.02 0.425 0 0.04 0.425 0 0.06 0.425 0 0.08 0.425 0 0.1 0.425 0 0 0.43 0 0.02 0.43 0 0.04 0.43 0 0.06 0.43 0 0.08 0.43 0 0.1 0.43 0 0 0.435 0 0.02 0.435 0 0.04 0.435 0 0.06 0.435 0 0.08 0.435 0 0.1 0.435 0 0 0.44 0 0.02 0.44 0 0.04 0.44 0 0.06 0.44 0 0.08 0.44 0 0.1 0.44 0 0 0.445 0 0.02 0.445 0 0.04 0.445 0 0.06 0.445 0 0.08 0.445 0 0.1 0.445 0 0 0.45 0 0.02 0.45 0 0.04 0.45 0 0.06 0.45 0 0.08 0.45 0 0.1 0.45 0 0 0.455 0 0.02 0.455 0 0.04 0.455 0 0.06 0.455 0 0.08 0.455 0 0.1 0.455 0 0 0.46 0 0.02 0.46 0 0.04 0.46 0 0.06 0.46 0 0.08 0.46 0 0.1 0.46 0 0 0.465004 0 0.02 0.465004 0 0.04 0.465004 0 0.06 0.465004 0 0.08 0.465004 0 0.1 0.465004 0 0 0.470029 0 0.02 0.470029 0 0.04 0.470029 0 0.06 0.470029 0 0.08 0.470029 0 0.1 0.470029 0 0 0.475169 0 0.02 0.475169 0 0.04 0.475169 0 0.06 0.475169 0 0.08 0.475169 0 0.1 0.475169 0 0 0.480681 0 0.02 0.480681 0 0.04 0.480681 0 0.06 0.480681 0 0.08 0.480681 0 0.1 0.480681 0 0 0.487032 0 0.02 0.487032 0 0.04 0.487032 0 0.06 0.487032 0 0.08 0.487032 0 0.1 0.487032 0 0 0.494924 0 0.02 0.494924 0 0.04 0.494924 0 0.06 0.494924 0 0.08 0.494924 0 0.1 0.494924 0 0 0.505464 0 0.02 0.505464 0 0.04 0.505464 0 0.06 0.505464 0 0.08 0.505464 0 0.1 0.505464 0 0 0.518572 0 0.02 0.518572 0 0.04 0.518572 0 0.06 0.518572 0 0.08 0.518572 0 0.1 0.518572 0 0 0.521236 0 0.02 0.521236 0 0.04 0.521236 0 0.06 0.521236 0 0.08 0.521236 0 0.1 0.521236 0 0 0.523742 0 0.02 0.523742 0 0.04 0.523742 0 0.06 0.523742 0 0.08 0.523742 0 0.1 0.523742 0 0 0.526228 0 0.02 0.526228 0 0.04 0.526228 0 0.06 0.526228 0 0.08 0.526228 0 0.1 0.526228 0 0 0.528786 0 0.02 0.528786 0 0.04 0.528786 0 0.06 0.528786 0 0.08 0.528786 0 0.1 0.528786 0 0 0.531505 0 0.02 0.531505 0 0.04 0.531505 0 0.06 0.531505 0 0.08 0.531505 0 0.1 0.531505 0 0 0.534481 0 0.02 0.534481 0 0.04 0.534481 0 0.06 0.534481 0 0.08 0.534481 0 0.1 0.534481 0 0 0.537805 0 0.02 0.537805 0 0.04 0.537805 0 0.06 0.537805 0 0.08 0.537805 0 0.1 0.537805 0 0 0.541542 0 0.02 0.541542 0 0.04 0.541542 0 0.06 0.541542 0 0.08 0.541542 0 0.1 0.541542 0 0 0.545711 0 0.02 0.545711 0 0.04 0.545711 0 0.06 0.545711 0 0.08 0.545711 0 0.1 0.545711 0 0 0.550261 0 0.02 0.550261 0 0.04 0.550261 0 0.06 0.550261 0 0.08 0.550261 0 0.1 0.550261 0 0 0.555074 0 0.02 0.555074 0 0.04 0.555074 0 0.06 0.555074 0 0.08 0.555074 0 0.1 0.555074 0 0 0.560017 0 0.02 0.560017 0 0.04 0.560017 0 0.06 0.560017 0 0.08 0.560017 0 0.1 0.560017 0 0 0.565003 0 0.02 0.565003 0 0.04 0.565003 0 0.06 0.565003 0 0.08 0.565003 0 0.1 0.565003 0 0 0.570001 0 0.02 0.570001 0 0.04 0.570001 0 0.06 0.570001 0 0.08 0.570001 0 0.1 0.570001 0 0 0.575 0 0.02 0.575 0 0.04 0.575 0 0.06 0.575 0 0.08 0.575 0 0.1 0.575 0 0 0.58 0 0.02 0.58 0 0.04 0.58 0 0.06 0.58 0 0.08 0.58 0 0.1 0.58 0 0 0.585 0 0.02 0.585 0 0.04 0.585 0 0.06 0.585 0 0.08 0.585 0 0.1 0.585 0 0 0.59 0 0.02 0.59 0 0.04 0.59 0 0.06 0.59 0 0.08 0.59 0 0.1 0.59 0 0 0.595 0 0.02 0.595 0 0.04 0.595 0 0.06 0.595 0 0.08 0.595 0 0.1 0.595 0 0 0.6 0 0.02 0.6 0 0.04 0.6 0 0.06 0.6 0 0.08 0.6 0 0.1 0.6 0 0 0.605 0 0.02 0.605 0 0.04 0.605 0 0.06 0.605 0 0.08 0.605 0 0.1 0.605 0 0 0.61 0 0.02 0.61 0 0.04 0.61 0 0.06 0.61 0 0.08 0.61 0 0.1 0.61 0 0 0.615 0 0.02 0.615 0 0.04 0.615 0 0.06 0.615 0 0.08 0.615 0 0.1 0.615 0 0 0.62 0 0.02 0.62 0 0.04 0.62 0 0.06 0.62 0 0.08 0.62 0 0.1 0.62 0 0 0.625 0 0.02 0.625 0 0.04 0.625 0 0.06 0.625 0 0.08 0.625 0 0.1 0.625 0 0 0.63 0 0.02 0.63 0 0.04 0.63 0 0.06 0.63 0 0.08 0.63 0 0.1 0.63 0 0 0.635 0 0.02 0.635 0 0.04 0.635 0 0.06 0.635 0 0.08 0.635 0 0.1 0.635 0 0 0.64 0 0.02 0.64 0 0.04 0.64 0 0.06 0.64 0 0.08 0.64 0 0.1 0.64 0 0 0.645 0 0.02 0.645 0 0.04 0.645 0 0.06 0.645 0 0.08 0.645 0 0.1 0.645 0 0 0.65 0 0.02 0.65 0 0.04 0.65 0 0.06 0.65 0 0.08 0.65 0 0.1 0.65 0 0 0.655 0 0.02 0.655 0 0.04 0.655 0 0.06 0.655 0 0.08 0.655 0 0.1 0.655 0 0 0.66 0 0.02 0.66 
[...]
			<PointData Scalars="VitesseX">
				<DataArray Name="VitesseX" type="Float32" format="ascii">
 0 -3.46497e-17 -6.00054e-16 1.12101e-15 -5.76929e-16 0 0 0 -5.48877e-16 8.24764e-16 -3.29882e-16 0 0 -2.79668e-16 7.0708e-17 2.37372e-16 -2.02568e-16 0 0 1.58407e-16 -3.50378e-16 4.24425e-16 -5.47252e-16 0 0 4.3912e-16 -3.58925e-16 1.49306e-16 -4.1729e-16 0 0 -1.23396e-16 6.60919e-16 -4.72988e-16 -2.649e-16 0 0 6.84776e-17 2.32407e-17 4.52952e-16 -7.4718e-16 0 0 8.14262e-16 -1.63018e-15 2.56052e-15 -2.29454e-15 0 0 6.38668e-16 -6.95729e-16 1.17197e-15 -1.65852e-15 0 0 -6.37854e-16 1.3531e-15 -7.18845e-16 2.92607e-16 0 0 -3.44918e-16 -1.48207e-17 -3.8535e-16 1.95784e-17 0 0 -4.35135e-16 -1.91354e-16 -8.91032e-16 6.07212e-16 0 0 1.05038e-15 -1.88079e-15 7.3528e-16 1.17467e-15 0 0 -2.93592e-16 4.06781e-16 -1.28593e-15 2.34277e-15 0 0 -1.17552e-15 9.31683e-16 -2.34166e-16 2.8764e-16 0 0 1.4177e-15 -2.9674e-15 2.96269e-15 -6.92859e-16 0 0 -1.46374e-15 1.71343e-15 -7.79371e-16 2.02314e-15 0 0 -5.50382e-16 1.07664e-15 -2.09087e-15 2.07323e-15 0 0 -3.13912e-16 1.19229e-15 -3.66971e-15 2.04172e-15 0 0 -1.40346e-15 1.75236e-15 -2.76738e-15 1.24593e-16 0 0 1.00965e-15 -2.81698e-15 2.89582e-15 -1.21554e-15 0 0 7.29575e-16 -1.99184e-15 4.39626e-15 -1.33648e-15 0 0 -3.22e-16 1.85542e-15 7.46954e-16 -2.05313e-15 0 0 -1.41027e-15 4.16252e-15 -2.3629e-15 -2.00668e-15 0 0 6.94555e-16 -1.07375e-15 4.00958e-16 5.63362e-17 0 0 3.23246e-15 -6.26377e-15 4.26302e-15 1.90892e-15 0 0 3.26606e-16 2.1027e-16 -2.10729e-15 2.24126e-15 0 0 -1.73605e-15 4.44913e-15 -5.31985e-15 2.12647e-15 0 0 -5.6696e-16 1.41054e-15 -8.26956e-16 -3.89907e-16 0 0 1.43307e-15 -3.52731e-15 4.81221e-15 -2.18081e-15 0 0 -5.46201e-16 -1.49485e-15 2.66504e-15 -2.39544e-15 0 0 -1.3624e-17 -1.0162e-15 2.44093e-15 -6.25682e-15 0 0 1.15601e-15 4.18271e-16 4.32152e-15 -7.44397e-15 0 0 -1.65444e-15 9.21111e-15 -6.52612e-15 -1.53955e-16 0 0 9.2905e-16 1.65497e-15 -7.97057e-16 3.9128e-15 0 0 1.03787e-15 -2.63126e-15 5.54565e-15 1.26839e-15 0 0 1.84842e-15 5.77513e-16 -1.09015e-15 7.33765e-15 0 0 -1.04876e-15 4.817e-15 -3.36546e-15 9.30434e-15 0 0 -9.28301e-16 2.63645e-15 -1.65252e-16 1.81906e-15 0 0 9.0823e-16 -7.82236e-16 9.02784e-17 5.00005e-15 0 0 -3.25866e-16 -1.99053e-15 3.63952e-15 4.41116e-15 0 0 1.36846e-15 -3.58075e-15 5.06727e-15 -1.91283e-15 0 0 -1.75858e-15 3.77527e-15 -3.62676e-15 -9.43234e-16 0 0 -2.97438e-16 -8.6595e-16 2.96441e-15 -5.04089e-15 0 0 3.25139e-15 -4.83946e-15 9.10763e-15 -1.27445e-14 0 0 -1.57822e-15 3.33254e-15 3.70851e-15 -8.52713e-15 0 0 4.05043e-16 3.05503e-15 -2.9432e-15 3.48212e-15 0 0 2.33272e-16 5.59435e-15 -7.84557e-15 8.11038e-15 0 0 -1.56219e-15 3.98678e-15 -3.81411e-15 3.73171e-15 0 0 2.60162e-15 -5.45575e-15 4.06352e-15 -4.15638e-15 0 0 1.12179e-15 -5.96323e-15 8.97479e-15 -9.96197e-15 0 0 2.01842e-15 -3.79131e-15 6.70804e-15 -4.66579e-15 0 0 -2.80151e-15 4.79218e-15 -3.63927e-15 1.53928e-16 0 0 2.11487e-15 1.81e-15 -3.45362e-15 -2.82539e-16 0 0 5.10321e-15 -1.06286e-15 2.87026e-15 -4.23953e-15 0 0 -5.37629e-16 4.462e-15 1.73894e-15 -9.4404e-15 0 0 4.0688e-15 5.34726e-15 -1.59515e-15 -1.15521e-14 0 0 -2.12845e-15 1.27575e-14 -8.71072e-15 -5.53226e-15 0 0 1.6794e-16 6.24669e-15 -3.98291e-15 -4.63097e-15 0 0 7.26139e-16 5.41278e-15 -2.57242e-15 -5.98738e-15 0 0 -2.10615e-15 7.27876e-16 6.28095e-15 -4.81321e-15 0 0 3.54345e-15 4.69714e-16 -1.35277e-15 6.37498e-17 0 0 -2.23623e-15 1.09507e-14 -9.49295e-15 2.45393e-15 0 0 4.7801e-16 2.94258e-15 6.40232e-16 -6.20655e-15 0 0 1.47828e-15 3.90704e-15 -6.0121e-15 -4.37262e-15 0 0 -2.24175e-15 3.14652e-15 -9.20203e-16 3.78143e-17 0 0 4.86125e-16 2.26269e-16 -8.86837e-16 3.30085e-15 0 0 9.15106e-16 3.58088e-15 -1.3387e-15 3.22896e-15 0 0 2.50976e-15 9.76716e-15 -5.44501e-15 -1.12353e-15 0 0 1.40332e-16 8.82778e-15 -1.22085e-15 -7.47449e-15 0 0 -4.85734e-15 6.27537e-15 8.20828e-15 -1.24585e-14 0 0 4.02188e-15 4.24141e-15 2.26845e-15 -3.45615e-15 0 0 1.16469e-14 2.46846e-15 4.62922e-15 -4.67632e-15 0 0 7.7161e-15 1.30963e-14 -4.96376e-15 -9.09934e-15 0 0 8.48046e-15 -4.68579e-16 3.31631e-15 -1.29618e-14 0 0 7.86911e-15 -7.63421e-15 1.09173e-14 -1.44919e-14 0 0 5.53226e-15 1.88889e-15 7.34373e-15 -1.30524e-14 0 0 1.10268e-15 4.7396e-16 1.10018e-14 -2.60081e-15 0 0 2.58025e-15 5.43e-16 2.27122e-15 1.50179e-14 0 0 -1.63683e-15 6.263e-16 1.30596e-14 -4.25935e-15 0 0 2.55484e-15 -5.21421e-15 2.31626e-14 -1.76786e-14 0 0 9.46976e-15 -1.11185e-15 1.12896e-14 -9.59771e-15 0 0 -6.24274e-16 3.70169e-15 7.84296e-15 1.26434e-15 0 0 8.10233e-15 -9.77448e-15 6.63675e-15 2.81689e-14 0 0 7.53284e-15 1.02005e-14 -1.56657e-14 3.28041e-14 0 0 7.70788e-16 2.75878e-14 -1.94232e-14 1.43183e-14 0 0 8.12936e-15 1.00758e-14 -6.55356e-16 8.27324e-15 0 0 1.14382e-14 1.18067e-15 1.24839e-14 5.26066e-15 0 0 1.75848e-15 8.36189e-15 1.64673e-14 -1.70635e-14 0 0 4.95512e-15 -6.36937e-15 6.28337e-15 -6.37133e-15 0 0 1.38013e-15 -8.75901e-15 1.56069e-14 3.84538e-15 0 0 -8.06033e-15 5.9431e-15 2.53865e-14 -9.49413e-15 0 0 4.21391e-15 1.04429e-15 5.10061e-16 7.5515e-15 0 0 3.97538e-15 -6.10048e-16 -2.67132e-15 1.25571e-14 0 0 3.92739e-16 6.15693e-15 5.39247e-15 -6.01602e-15 0 0 3.07028e-15 8.32084e-15 1.5623e-15 -7.96847e-15 0 0 -5.37569e-15 6.37531e-16 4.45546e-15 2.29979e-15 0 0 -2.93096e-15 2.06585e-15 2.2101e-15 -9.70436e-16 0 0 8.06453e-15 7.20844e-15 -2.11187e-15 1.20587e-14 0 0 3.15936e-15 2.8895e-15 -1.40021e-15 7.62602e-15 0 0 2.35868e-15 -2.31791e-15 -4.90296e-15 -6.32884e-15 0 0 -6.99728e-14 -1.18674e-13 -4.22123e-14 -1.01934e-13 0 0 -3.12756e-13 -4.97396e-13 -3.9568e-13 -3.16379e-13 0 0 2.58528e-13 3.80938e-13 4.64767e-13 2.82567e-13 0 0 -1.88613e-13 -2.81152e-13 -2.7991e-13 -2.03414e-13 0 0 -5.68772e-14 -1.26236e-14 -1.85587e-14 -7.41777e-14 0 0 2.97071e-13 4.13701e-13 4.1378e-13 2.5048e-13 0 0 -1.80683e-13 -3.95396e-13 -3.22659e-13 -2.74215e-13 0 0 1.11015e-13 1.66939e-13 2.52435e-13 7.21882e-14 0 0 -2.2347e-14 -3.64621e-14 -3.44912e-14 -2.3482e-14 0 0 1.34678e-14 1.366e-14 1.69887e-14 2.84058e-14 0 0 1.05149e-14 -1.19722e-15 1.73964e-14 2.17026e-14 0 0 1.12362e-14 1.55743e-15 2.05493e-14 1.12611e-14 0 0 -5.59606e-15 8.72628e-15 2.52559e-14 -2.20847e-18 0 0 2.08711e-15 9.12496e-15 7.92305e-15 -1.0656e-15 0 0 1.17524e-14 1.57396e-14 -8.56807e-15 1.7365e-15 0 0 1.24997e-14 -2.95646e-15 2.05009e-14 4.71186e-15 0 0 1.01415e-14 -9.33107e-15 1.65544e-14 2.90913e-14 0 0 5.09799e-15 3.36967e-15 9.10713e-15 1.09917e-14 0 0 6.48608e-15 1.55749e-14 -1.46324e-15 7.92884e-15 0 0 5.85469e-15 4.2826e-15 2.29997e-14 1.24408e-14 0 0 1.44187e-14 -1.67053e-14 5.05213e-14 -1.81426e-14 0 0 2.42276e-14 -4.5565e-15 1.98571e-14 -9.84954e-15 0 0 2.04061e-14 1.28665e-14 8.83451e-15 -1.65076e-14 0 0 1.75924e-14 9.10283e-15 2.22421e-14 -4.76282e-14 0 0 6.49863e-15 9.22731e-15 -5.05977e-16 -2.42352e-14 0 0 3.54767e-15 1.67971e-15 -4.7449e-16 -1.13173e-14 0 0 1.16718e-14 -3.30718e-15 8.3539e-15 -1.5876e-14 0 0 5.79484e-15 1.35334e-14 -1.42495e-14 -5.65404e-15 0 0 8.85739e-15 -6.26144e-16 -1.75374e-15 -6.68824e-15 0 0 1.72025e-15 -5.77789e-15 2.32744e-15 -1.63314e-15 0 0 -5.91612e-15 8.75852e-16 2.83288e-15 -5.07648e-15 0 0 2.69361e-15 8.43032e-15 2.20043e-15 -2.25894e-14 0 0 7.56237e-15 1.55014e-14 -1.34148e-14 -2.37174e-14 0 0 6.45486e-15 5.10002e-15 1.51748e-15 -1.05821e-14 0 0 4.98846e-16 3.98984e-16 6.88684e-15 9.11541e-17 0 0 3.64535e-15 -6.30961e-15 -2.33225e-15 6.27071e-15 0 0 1.08343e-14 4.1443e-15 -1.11584e-14 -1.08425e-14 0 0 6.21569e-15 2.97744e-14 -4.522e-14 4.51715e-16 0 0 1.71245e-14 1.35979e-14 -3.90156e-14 1.7421e-14 0 0 3.1508e-14 -2.26502e-14 7.82929e-15 -6.40142e-15 0 0 1.59944e-14 3.81162e-15 -1.42443e-14 -7.89759e-16 0 0 2.6175e-14 2.04977e-14 -3.08583e-14 2.85073e-15 0 0 2.84525e-14 8.1136e-15 8.8028e-15 -1.40023e-14 0 0 1.0438e-14 6.33172e-15 7.92789e-15 -5.32004e-15 0 0 1.64618e-14 -1.82732e-15 -2.91296e-15 -9.33146e-16 0 0 9.05186e-15 3.19834e-15 1.09422e-14 -7.08871e-15 0 0 1.53239e-14 5.84168e-15 7.97177e-17 4.98104e-15 0 0 1.19888e-14 2.36414e-14 -1.18692e-14 -9.05314e-15 0 0 -4.9903e-15 3.7894e-14 -1.91353e-14 -6.89497e-15 0 0 9.65738e-15 7.46522e-15 -1.08405e-14 8.33553e-15 0 0 2.5359e-15 -2.03252e-15 6.05569e-15 2.68362e-16 0 0 3.60175e-15 -2.34851e-15 1.33844e-14 -5.53536e-16 0 0 6.12731e-15 -4.25189e-16 2.20689e-14 -3.6212e-14 0 0 3.11359e-15 1.59747e-14 -7.05563e-15 -2.2715e-14 0 0 9.09369e-15 1.72923e-14 -3.24106e-14 1.66975e-14 0 0 7.4095e-15 -3.48339e-15 1.45777e-15 -1.26023e-14 0 0 1.94238e-14 -1.36924e-14 3.40187e-15 -5.47818e-16 0 0 3.36432e-14 -1.79736e-14 4.18041e-15 -3.32124e-15 0 0 4.00507e-14 -2.91631e-14 4.09489e-14 -5.32433e-14 0 0 4.10462e-14 -1.48155e-15 -3.33042e-15 -1.88553e-14 0 0 3.04506e-14 3.24576e-14 -2.41899e-14 -1.88297e-14 0 0 3.12522e-14 1.62063e-14 4.19011e-14 -9.69037e-14 0 0 3.76743e-14 -1.75502e-14 6.9413e-14 -9.96412e-14 0 0 1.40964e-14 -1.09955e-14 2.57129e-14 -2.85362e-14 0 0 -2.86898e-17 -8.97479e-15 3.46982e-14 -3.13522e-15 0 0 1.70033e-14 -1.33978e-14 5.56619e-14 -3.2707e-14 0 0 2.36412e-14 -2.44054e-15 1.41232e-14 -3.11269e-14 0 0 3.18711e-15 1.08498e-14 -1.52529e-14 -6.8601e-15 0 0 3.52439e-15 1.59485e-15 -9.72876e-15 6.42681e-15 0 0 -4.46277e-15 4.86268e-16 3.58562e-15 1.71713e-16 0 0 -1.10767e-14 9.5437e-15 1.74177e-14 -2.72618e-14 0 0 7.71311e-15 3.69935e-15 1.73767e-14 -3.10742e-14 0 0 3.25436e-15 4.52012e-15 -1.88873e-15 -4.48624e-15 0 0 4.06628e-15 3.24413e-14 -4.72918e-14 2.50666e-14 0 0 7.9916e-15 4.0681e-14 -6.42279e-14 2.92043e-14 0 0 -1.4051e-15 1.25768e-14 -1.41125e-14 -1.53277e-16 0 0 4.28331e-15 -3.28242e-15 7.8199e-15 -2.74995e-14 0 0 5.20972e-15 -3.18903e-15 3.67487e-15 -2.31066e-14 0 0 8.24178e-16 2.78182e-15 -4.01938e-15 6.45923e-15 0 0 5.85999e-15 -1.06818e-14 -1.66943e-15 6.18077e-15 0 0 -6.91423e-15 1.52548e-15 2.23912e-16 -3.7355e-15 0 0 -9.44103e-15 1.34854e-14 -1.59203e-14 9.55166e-15 0 0 -7.29529e-16 1.49382e-14 -2.75853e-14 9.63219e-15 0 0 6.70201e-15 4.06925e-15 -1.56997e-14 1.05158e-14 0 0 -1.95852e-16 -4.7699e-15 5.09359e-15 -6.70826e-15 0 0 -3.81383e-15 8.54938e-15 -1.39991e-14 -1.58455e-14 0 0 1.67321e-14 2.03464e-15 -3.75459e-14 5.97946e-15 0 0 8.94346e-15 2.65319e-16 -1.03218e-14 -5.17747e-15 0 0 5.96073e-15 -1.16405e-15 1.06709e-14 -1.46474e-14 0 0 8.4213e-15 1.47094e-14 -1.49129e-14 -1.48107e-14 0 0 -4.75158e-15 1.59524e-14 1.63078e-15 -2.67905e-14 0 0 5.82248e-15 -1.13401e-15 3.56103e-16 2.21999e-15 0 0 1.04729e-14 -3.18946e-15 -1.11482e-14 2.26705e-15 0 0 7.65172e-15 -1.26694e-15 1.15575e-17 -1.5971e-14 0 0 1.00806e-14 1.77599e-17 -3.51302e-15 4.59861e-15 0 0 -1.00969e-14 1.06979e-14 -5.38663e-15 1.25323e-14 0 0 -1.33783e-15 1.06153e-14 -2.84778e-14 2.99122e-14 0 0 6.38355e-15 -4.28816e-18 -1.51057e-14 2.20659e-14 0 0 -6.98216e-15 1.56075e-14 -1.85204e-14 1.86321e-14 0 0 -1.84573e-15 2.41604e-14 -4.57792e-14 3.935e-14 0
				</DataArray>
				<DataArray Name="VitesseY" type="Float32" format="ascii">