<?xml version="1.0"?>
<VTKFile type="PolyData">
	<PolyData>
		<Piece NumberOfPoints="1206" NumberOfPolys="1000">
			<Points>
				<DataArray type="Float32" NumberOfComponents="3" format="ascii">
 0 0 0 0.02 0 0 0.04 0 0 0.06 0 0 0.08 0 0 0.1 0 0 0 0.005 0 0.02 0.005 0 0.04 0.005 0 0.06 0.005 0 0.08 0.005 0 0.1 0.005 0 0 0.01 0 0.02 0.01 0 0.04 0.01 0 0.06 0.01 0 0.08 0.01 0 0.1 0.01 0 0 0.015 0 0.02 0.015 0 0.04 0.015 0 0.06 0.015 0 0.08 0.015 0 0.1 0.015 0 0 0.02 0 0.02 0.02 0 0.04 0.02 0 0.06 0.02 0 0.08 0.02 0 0.1 0.02 0 0 0.025 0 0.02 0.025 0 0.04 0.025 0 0.06 0.025 0 0.08 0.025 0 0.1 0.025 0 0 0.03 0 0.02 0.03 0 0.04 0.03 0 0.06 0.03 0 0.08 0.03 0 0.1 0.03 0 0 0.035 0 0.02 0.035 0 0.04 0.035 0 0.06 0.035 0 0.08 0.035 0 0.1 0.035 0 0 0.04 0 0.02 0.04 0 0.04 0.04 0 0.06 0.04 0 0.08 0.04 0 0.1 0.04 0 0 0.045 0 0.02 0.045 0 0.04 0.045 0 0.06 0.045 0 0.08 0.045 0 0.1 0.045 0 0 0.05 0 0.02 0.05 0 0.04 0.05 0 0.06 0.05 0 0.08 0.05 0 0.1 0.05 0 0 0.055 0 0.02 0.055 0 0.04 0.055 0 0.06 0.055 0 0.08 0.055 0 0.1 0.055 0 0 0.06 0 0.02 0.06 0 0.04 0.06 0 0.06 0.06 0 0.08 0.06 0 0.1 0.06 0 0 0.065 0 0.02 0.065 0 0.04 0.065 0 0.06 0.065 0 0.08 0.065 0 0.1 0.065 0 0 0.07 0 0.02 0.07 0 0.04 0.07 0 0.06 0.07 0 0.08 0.07 0 0.1 0.07 0 0 0.075 0 0.02 0.075 0 0.04 0.075 0 0.06 0.075 0 0.08 0.075 0 0.1 0.075 0 0 0.08 0 0.02 0.08 0 0.04 0.08 0 0.06 0.08 0 0.08 0.08 0 0.1 0.08 0 0 0.085 0 0.02 0.085 0 0.04 0.085 0 0.06 0.085 0 0.08 0.085 0 0.1 0.085 0 0 0.09 0 0.02 0.09 0 0.04 0.09 0 0.06 0.09 0 0.08 0.09 0 0.1 0.09 0 0 0.095 0 0.02 0.095 0 0.04 0.095 0 0.06 0.095 0 0.08 0.095 0 0.1 0.095 0 0 0.1 0 0.02 0.1 0 0.04 0.1 0 0.06 0.1 0 0.08 0.1 0 0.1 0.1 0 0 0.105 0 0.02 0.105 0 0.04 0.105 0 0.06 0.105 0 0.08 0.105 0 0.1 0.105 0 0 0.11 0 0.02 0.11 0 0.04 0.11 0 0.06 0.11 0 0.08 0.11 0 0.1 0.11 0 0 0.115 0 0.02 0.115 0 0.04 0.115 0 0.06 0.115 0 0.08 0.115 0 0.1 0.115 0 0 0.12 0 0.02 0.12 0 0.04 0.12 0 0.06 0.12 0 0.08 0.12 0 0.1 0.12 0 0 0.125 0 0.02 0.125 0 0.04 0.125 0 0.06 0.125 0 0.08 0.125 0 0.1 0.125 0 0 0.13 0 0.02 0.13 0 0.04 0.13 0 0.06 0.13 0 0.08 0.13 0 0.1 0.13 0 0 0.135 0 0.02 0.135 0 0.04 0.135 0 0.06 0.135 0 0.08 0.135 0 0.1 0.135 0 0 0.14 0 0.02 0.14 0 0.04 0.14 0 0.06 0.14 0 0.08 0.14 0 0.1 0.14 0 0 0.145 0 0.02 0.145 0 0.04 0.145 0 0.06 0.145 0 0.08 0.145 0 0.1 0.145 0 0 0.15 0 0.02 0.15 0 0.04 0.15 0 0.06 0.15 0 0.08 0.15 0 0.1 0.15 0 0 0.155 0 0.02 0.155 0 0.04 0.155 0 0.06 0.155 0 0.08 0.155 0 0.1 0.155 0 0 0.16 0 0.02 0.16 0 0.04 0.16 0 0.06 0.16 0 0.08 0.16 0 0.1 0.16 0 0 0.165 0 0.02 0.165 0 0.04 0.165 0 0.06 0.165 0 0.08 0.165 0 0.1 0.165 0 0 0.17 0 0.02 0.17 0 0.04 0.17 0 0.06 0.17 0 0.08 0.17 0 0.1 0.17 0 0 0.175 0 0.02 0.175 0 0.04 0.175 0 0.06 0.175 0 0.08 0.175 0 0.1 0.175 0 0 0.18 0 0.02 0.18 0 0.04 0.18 0 0.06 0.18 0 0.08 0.18 0 0.1 0.18 0 0 0.185 0 0.02 0.185 0 0.04 0.185 0 0.06 0.185 0 0.08 0.185 0 0.1 0.185 0 0 0.19 0 0.02 0.19 0 0.04 0.19 0 0.06 0.19 0 0.08 0.19 0 0.1 0.19 0 0 0.195 0 0.02 0.195 0 0.04 0.195 0 0.06 0.195 0 0.08 0.195 0 0.1 0.195 0 0 0.2 0 0.02 0.2 0 0.04 0.2 0 0.06 0.2 0 0.08 0.2 0 0.1 0.2 0 0 0.205 0 0.02 0.205 0 0.04 0.205 0 0.06 0.205 0 0.08 0.205 0 0.1 0.205 0 0 0.21 0 0.02 0.21 0 0.04 0.21 0 0.06 0.21 0 0.08 0.21 0 0.1 0.21 0 0 0.215 0 0.02 0.215 0 0.04 0.215 0 0.06 0.215 0 0.08 0.215 0 0.1 0.215 0 0 0.22 0 0.02 0.22 0 0.04 0.22 0 0.06 0.22 0 0.08 0.22 0 0.1 0.22 0 0 0.225 0 0.02 0.225 0 0.04 0.225 0 0.06 0.225 0 0.08 0.225 0 0.1 0.225 0 0 0.23 0 0.02 0.23 0 0.04 0.23 0 0.06 0.23 0 0.08 0.23 0 0.1 0.23 0 0 0.235 0 0.02 0.235 0 0.04 0.235 0 0.06 0.235 0 0.08 0.235 0 0.1 0.235 0 0 0.24 0 0.02 0.24 0 0.04 0.24 0 0.06 0.24 0 0.08 0.24 0 0.1 0.24 0 0 0.245 0 0.02 0.245 0 0.04 0.245 0 0.06 0.245 0 0.08 0.245 0 0.1 0.245 0 0 0.25 0 0.02 0.25 0 0.04 0.25 0 0.06 0.25 0 0.08 0.25 0 0.1 0.25 0 0 0.255 0 0.02 0.255 0 0.04 0.255 0 0.06 0.255 0 0.08 0.255 0 0.1 0.255 0 0 0.26 0 0.02 0.26 0 0.04 0.26 0 0.06 0.26 0 0.08 0.26 0 0.1 0.26 0 0 0.265 0 0.02 0.265 0 0.04 0.265 0 0.06 0.265 0 0.08 0.265 0 0.1 0.265 0 0 0.27 0 0.02 0.27 0 0.04 0.27 0 0.06 0.27 0 0.08 0.27 0 0.1 0.27 0 0 0.275 0 0.02 0.275 0 0.04 0.275 0 0.06 0.275 0 0.08 0.275 0 0.1 0.275 0 0 0.28 0 0.02 0.28 0 0.04 0.28 0 0.06 0.28 0 0.08 0.28 0 0.1 0.28 0 0 0.285 0 0.02 0.285 0 0.04 0.285 0 0.06 0.285 0 0.08 0.285 0 0.1 0.285 0 0 0.29 0 0.02 0.29 0 0.04 0.29 0 0.06 0.29 0 0.08 0.29 0 0.1 0.29 0 0 0.295 0 0.02 0.295 0 0.04 0.295 0 0.06 0.295 0 0.08 0.295 0 0.1 0.295 0 0 0.3 0 0.02 0.3 0 0.04 0.3 0 0.06 0.3 0 0.08 0.3 0 0.1 0.3 0 0 0.305 0 0.02 0.305 0 0.04 0.305 0 0.06 0.305 0 0.08 0.305 0 0.1 0.305 0 0 0.31 0 0.02 0.31 0 0.04 0.31 0 0.06 0.31 0 0.08 0.31 0 0.1 0.31 0 0 0.315 0 0.02 0.315 0 0.04 0.315 0 0.06 0.315 0 0.08 0.315 0 0.1 0.315 0 0 0.32 0 0.02 0.32 0 0.04 0.32 0 0.06 0.32 0 0.08 0.32 0 0.1 0.32 0 0 0.325 0 0.02 0.325 0 0.04 0.325 0 0.06 0.325 0 0.08 0.325 0 0.1 0.325 0 0 0.33 0 0.02 0.33 0 0.04 0.33 0 0.06 0.33 0 0.08 0.33 0 0.1 0.33 0 0 0.335 0 0.02 0.335 0 0.04 0.335 0 0.06 0.335 0 0.08 0.335 0 0.1 0.335 0 0 0.34 0 0.02 0.34 0 0.04 0.34 0 0.06 0.34 0 0.08 0.34 0 0.1 0.34 0 0 0.345 0 0.02 0.345 0 0.04 0.345 0 0.06 0.345 0 0.08 0.345 0 0.1 0.345 0 0 0.35 0 0.02 0.35 0 0.04 0.35 0 0.06 0.35 0 0.08 0.35 0 0.1 0.35 0 0 0.355 0 0.02 0.355 0 0.04 0.355 0 0.06 0.355 0 0.08 0.355 0 0.1 0.355 0 0 0.36 0 0.02 0.36 0 0.04 0.36 0 0.06 0.36 0 0.08 0.36 0 0.1 0.36 0 0 0.365 0 0.02 0.365 0 0.04 0.365 0 0.06 0.365 0 0.08 0.365 0 0.1 0.365 0 0 0.37 0 0.02 0.37 0 0.04 0.37 0 0.06 0.37 0 0.08 0.37 0 0.1 0.37 0 0 0.375 0 0.02 0.375 0 0.04 0.375 0 0.06 0.375 0 0.08 0.375 0 0.1 0.375 0 0 0.38 0 0.02 0.38 0 0.04 0.38 0 0.06 0.38 0 0.08 0.38 0 0.1 0.38 0 0 0.385 0 0.02 0.385 0 0.04 0.385 0 0.06 0.385 0 0.08 0.385 0 0.1 0.385 0 0 0.39 0 0.02 0.39 0 0.04 0.39 0 0.06 0.39 0 0.08 0.39 0 0.1 0.39 0 0 0.395 0 0.02 0.395 0 0.04 0.395 0 0.06 0.395 0 0.08 0.395 0 0.1 0.395 0 0 0.4 0 0.02 0.4 0 0.04 0.4 0 0.06 0.4 0 0.08 0.4 0 0.1 0.4 0 0 0.405 0 0.02 0.405 0 0.04 0.405 0 0.06 0.405 0 0.08 0.405 0 0.1 0.405 0 0 0.41 0 0.02 0.41 0 0.04 0.41 0 0.06 0.41 0 0.08 0.41 0 0.1 0.41 0 0 0.415 0 0.02 0.415 0 0.04 0.415 0 0.06 0.415 0 0.08 0.415 0 0.1 0.415 0 0 0.42 0 0.02 0.42 0 0.04 0.42 0 0.06 0.42 0 0.08 0.42 0 0.1 0.42 0 0 0.425 0 0.02 0.425 0 0.04 0.425 0 0.06 0.425 0 0.08 0.425 0 0.1 0.425 0 0 0.43 0 0.02 0.43 0 0.04 0.43 0 0.06 0.43 0 0.08 0.43 0 0.1 0.43 0 0 0.435 0 0.02 0.435 0 0.04 0.435 0 0.06 0.435 0 0.08 0.435 0 0.1 0.435 0 0 0.44 0 0.02 0.44 0 0.04 0.44 0 0.06 0.44 0 0.08 0.44 0 0.1 0.44 0 0 0.445 0 0.02 0.445 0 0.04 0.445 0 0.06 0.445 0 0.08 0.445 0 0.1 0.445 0 0 0.45 0 0.02 0.45 0 0.04 0.45 0 0.06 0.45 0 0.08 0.45 0 0.1 0.45 0 0 0.455 0 0.02 0.455 0 0.04 0.455 0 0.06 0.455 0 0.08 0.455 0 0.1 0.455 0 0 0.46 0 0.02 0.46 0 0.04 0.46 0 0.06 0.46 0 0.08 0.46 0 0.1 0.46 0 0 0.465004 0 0.02 0.465004 0 0.04 0.465004 0 0.06 0.465004 0 0.08 0.465004 0 0.1 0.465004 0 0 0.47003 0 0.02 0.47003 0 0.04 0.47003 0 0.06 0.47003 0 0.08 0.47003 0 0.1 0.47003 0 0 0.475169 0 0.02 0.475169 0 0.04 0.475169 0 0.06 0.475169 0 0.08 0.475169 0 0.1 0.475169 0 0 0.480681 0 0.02 0.480681 0 0.04 0.480681 0 0.06 0.480681 0 0.08 0.480681 0 0.1 0.480681 0 0 0.487033 0 0.02 0.487033 0 0.04 0.487033 0 0.06 0.487033 0 0.08 0.487033 0 0.1 0.487033 0 0 0.494925 0 0.02 0.494925 0 0.04 0.494925 0 0.06 0.494925 0 0.08 0.494925 0 0.1 0.494925 0 0 0.505465 0 0.02 0.505465 0 0.04 0.505465 0 0.06 0.505465 0 0.08 0.505465 0 0.1 0.505465 0 0 0.518574 0 0.02 0.518574 0 0.04 0.518574 0 0.06 0.518574 0 0.08 0.518574 0 0.1 0.518574 0 0 0.521235 0 0.02 0.521235 0 0.04 0.521235 0 0.06 0.521235 0 0.08 0.521235 0 0.1 0.521235 0 0 0.52374 0 0.02 0.52374 0 0.04 0.52374 0 0.06 0.52374 0 0.08 0.52374 0 0.1 0.52374 0 0 0.526227 0 0.02 0.526227 0 0.04 0.526227 0 0.06 0.526227 0 0.08 0.526227 0 0.1 0.526227 0 0 0.528786 0 0.02 0.528786 0 0.04 0.528786 0 0.06 0.528786 0 0.08 0.528786 0 0.1 0.528786 0 0 0.531506 0 0.02 0.531506 0 0.04 0.531506 0 0.06 0.531506 0 0.08 0.531506 0 0.1 0.531506 0 0 0.534485 0 0.02 0.534485 0 0.04 0.534485 0 0.06 0.534485 0 0.08 0.534485 0 0.1 0.534485 0 0 0.537809 0 0.02 0.537809 0 0.04 0.537809 0 0.06 0.537809 0 0.08 0.537809 0 0.1 0.537809 0 0 0.541546 0 0.02 0.541546 0 0.04 0.541546 0 0.06 0.541546 0 0.08 0.541546 0 0.1 0.541546 0 0 0.545714 0 0.02 0.545714 0 0.04 0.545714 0 0.06 0.545714 0 0.08 0.545714 0 0.1 0.545714 0 0 0.550262 0 0.02 0.550262 0 0.04 0.550262 0 0.06 0.550262 0 0.08 0.550262 0 0.1 0.550262 0 0 0.555075 0 0.02 0.555075 0 0.04 0.555075 0 0.06 0.555075 0 0.08 0.555075 0 0.1 0.555075 0 0 0.560017 0 0.02 0.560017 0 0.04 0.560017 0 0.06 0.560017 0 0.08 0.560017 0 0.1 0.560017 0 0 0.565003 0 0.02 0.565003 0 0.04 0.565003 0 0.06 0.565003 0 0.08 0.565003 0 0.1 0.565003 0 0 0.570001 0 0.02 0.570001 0 0.04 0.570001 0 0.06 0.570001 0 0.08 0.570001 0 0.1 0.570001 0 0 0.575 0 0.02 0.575 0 0.04 0.575 0 0.06 0.575 0 0.08 0.575 0 0.1 0.575 0 0 0.58 0 0.02 0.58 0 0.04 0.58 0 0.06 0.58 0 0.08 0.58 0 0.1 0.58 0 0 0.585 0 0.02 0.585 0 0.04 0.585 0 0.06 0.585 0 0.08 0.585 0 0.1 0.585 0 0 0.59 0 0.02 0.59 0 0.04 0.59 0 0.06 0.59 0 0.08 0.59 0 0.1 0.59 0 0 0.595 0 0.02 0.595 0 0.04 0.595 0 0.06 0.595 0 0.08 0.595 0 0.1 0.595 0 0 0.6 0 0.02 0.6 0 0.04 0.6 0 0.06 0.6 0 0.08 0.6 0 0.1 0.6 0 0 0.605 0 0.02 0.605 0 0.04 0.605 0 0.06 0.605 0 0.08 0.605 0 0.1 0.605 0 0 0.61 0 0.02 0.61 0 0.04 0.61 0 0.06 0.61 0 0.08 0.61 0 0.1 0.61 0 0 0.615 0 0.02 0.615 0 0.04 0.615 0 0.06 0.615 0 0.08 0.615 0 0.1 0.615 0 0 0.62 0 0.02 0.62 0 0.04 0.62 0 0.06 0.62 0 0.08 0.62 0 0.1 0.62 0 0 0.625 0 0.02 0.625 0 0.04 0.625 0 0.06 0.625 0 0.08 0.625 0 0.1 0.625 0 0 0.63 0 0.02 0.63 0 0.04 0.63 0 0.06 0.63 0 0.08 0.63 0 0.1 0.63 0 0 0.635 0 0.02 0.635 0 0.04 0.635 0 0.06 0.635 0 0.08 0.635 0 0.1 0.635 0 0 0.64 0 0.02 0.64 0 0.04 0.64 0 0.06 0.64 0 0.08 0.64 0 0.1 0.64 0 0 0.645 0 0.02 0.645 0 0.04 0.645 0 0.06 0.645 0 0.08 0.645 0 0.1 0.645 0 0 0.65 0 0.02 0.65 0 0.04 0.65 0 0.06 0.65 0 0.08 0.65 0 0.1 0.65 0 0 0.655 0 0.02 0.655 0 0.04 0.655 0 0.06 0.655 0 0.08 0.655 0 0.1 0.655 0 0 0.66 0 0.02 0.66 0 0.04 0.66 
[...]
			<PointData Scalars="VitesseX">
				<DataArray Name="VitesseX" type="Float32" format="ascii">
 0 0 0 0 0 0 0 3.59223e-17 -7.03997e-16 1.26919e-15 -4.30308e-16 0 0 3.01763e-17 -5.22387e-16 9.23471e-16 -3.07811e-16 0 0 6.37016e-16 -6.81747e-16 4.72786e-16 -1.76778e-16 0 0 5.10631e-16 7.88895e-17 -2.6673e-16 5.59514e-16 0 0 -9.69901e-16 1.23636e-15 -2.14907e-16 9.64325e-16 0 0 -1.69191e-15 1.31627e-15 3.24087e-16 1.45563e-16 0 0 7.32508e-16 -1.62425e-15 2.42389e-15 -1.52915e-15 0 0 1.35218e-15 -1.47724e-15 2.10239e-15 -1.35906e-15 0 0 8.96999e-18 1.23614e-16 -6.75036e-16 1.77368e-15 0 0 -7.99873e-16 8.21761e-16 -2.01245e-15 2.35388e-15 0 0 -6.06942e-16 -1.66768e-16 8.53169e-16 -4.8049e-16 0 0 1.5502e-15 -3.07917e-15 4.21068e-15 -2.34405e-15 0 0 -3.14712e-15 2.56992e-15 4.12393e-16 6.12587e-17 0 0 -1.69517e-15 8.24782e-16 1.74548e-15 4.81052e-16 0 0 2.69707e-15 -4.72622e-15 6.18143e-15 -2.27416e-15 0 0 -2.526e-15 2.26648e-15 1.19826e-15 6.38827e-16 0 0 5.44759e-16 3.13916e-15 -6.05675e-15 6.57908e-15 0 0 9.18876e-16 2.73216e-15 -6.2705e-15 6.21125e-15 0 0 -1.8131e-15 1.86996e-15 -2.50866e-16 4.36788e-15 0 0 3.4999e-15 -5.99216e-15 2.65557e-15 8.61142e-15 0 0 1.87764e-15 -3.33965e-15 -5.19719e-16 1.23383e-14 0 0 -2.20305e-15 3.11936e-15 8.40891e-16 4.85573e-15 0 0 -2.0267e-15 4.38576e-15 6.22023e-16 2.81437e-15 0 0 1.55353e-16 1.44469e-15 -2.21424e-16 1.08623e-14 0 0 1.93622e-16 -2.60693e-15 5.27086e-15 7.30639e-15 0 0 -2.77114e-15 5.11808e-15 -1.82666e-15 3.23754e-15 0 0 -3.00213e-15 5.12964e-15 7.56812e-16 -1.22097e-15 0 0 3.52814e-16 -2.36795e-15 6.13035e-15 -4.80787e-15 0 0 4.69788e-15 -3.12496e-15 -2.67007e-15 2.68208e-15 0 0 2.94329e-15 -3.49665e-15 3.0518e-16 2.43182e-15 0 0 3.17756e-15 -5.08153e-15 5.77194e-15 -5.77531e-15 0 0 -2.14216e-16 3.13383e-15 6.03208e-17 -3.19942e-15 0 0 -5.25616e-15 1.17827e-14 -4.46344e-15 5.57388e-15 0 0 1.59636e-15 7.70589e-16 4.80442e-16 8.38881e-15 0 0 6.57866e-16 -2.26928e-15 2.78172e-15 4.73644e-15 0 0 -6.57981e-16 3.22292e-15 -5.50833e-15 8.3443e-15 0 0 1.93029e-15 -1.0899e-15 1.10274e-15 2.37207e-15 0 0 8.33357e-16 -3.15564e-15 3.40649e-15 -1.24812e-15 0 0 8.70426e-16 3.07216e-15 -9.04663e-15 6.7526e-15 0 0 6.593e-16 -2.34776e-15 -1.01502e-16 4.98481e-15 0 0 7.20552e-16 -3.31237e-15 4.29533e-16 5.53661e-15 0 0 -3.32102e-15 6.82859e-15 -2.60685e-15 -1.61976e-16 0 0 -6.82665e-15 5.16181e-15 1.26744e-15 -5.76715e-15 0 0 1.34856e-16 -4.07702e-15 -2.75927e-15 -8.10971e-16 0 0 6.55058e-16 -2.82615e-15 -5.45381e-15 -7.96458e-16 0 0 -2.92417e-15 3.01575e-15 -1.35572e-16 -6.67545e-15 0 0 -1.74828e-15 6.56311e-15 -1.23307e-15 -1.38967e-15 0 0 1.16483e-16 7.95238e-15 -4.25206e-15 3.10573e-15 0 0 3.48288e-15 -1.92218e-15 9.19813e-16 5.31762e-15 0 0 1.61811e-15 -7.18665e-15 6.9999e-15 9.31623e-17 0 0 -1.86443e-15 1.16768e-15 3.25839e-15 -3.55446e-15 0 0 2.39113e-15 8.66517e-15 1.28692e-15 -2.97076e-15 0 0 9.09238e-15 4.00473e-15 6.75463e-15 -6.9421e-15 0 0 -2.36276e-15 8.39991e-15 -2.54549e-15 -1.65603e-15 0 0 -6.57504e-15 8.97926e-15 -1.86087e-15 -8.44902e-15 0 0 4.72534e-15 1.17251e-14 -9.11954e-15 -9.70782e-15 0 0 7.22413e-16 1.96755e-14 -1.814e-14 1.47142e-15 0 0 -2.48327e-15 1.07511e-14 -1.50246e-15 -2.03368e-15 0 0 2.51299e-15 8.45667e-15 2.21907e-15 -1.43396e-14 0 0 1.2922e-15 9.23348e-15 -3.33759e-15 -1.22113e-14 0 0 2.15904e-15 1.21921e-14 1.02689e-17 -1.17885e-14 0 0 5.26161e-15 9.69436e-15 -6.71271e-16 -8.46786e-15 0 0 1.25429e-15 5.09724e-15 6.45213e-15 -7.39069e-15 0 0 -1.11089e-15 6.77288e-15 1.67622e-14 -1.93536e-14 0 0 4.11708e-16 4.91274e-15 6.87138e-15 -1.01917e-14 0 0 2.13011e-15 -1.16477e-17 4.0669e-16 9.66638e-15 0 0 -1.51072e-17 2.50233e-15 -3.23062e-15 8.43583e-15 0 0 9.03304e-16 6.82111e-15 -6.25343e-15 3.13728e-15 0 0 5.18765e-15 4.2028e-15 1.18854e-15 8.59376e-15 0 0 1.00787e-15 5.52182e-15 4.21504e-15 2.04072e-15 0 0 5.86188e-15 5.70178e-15 -2.47467e-15 -6.49299e-15 0 0 1.21121e-14 1.2869e-14 -1.56807e-14 -4.50823e-15 0 0 1.92323e-14 6.84582e-15 -3.89176e-15 -1.45442e-14 0 0 1.80651e-14 -7.22604e-15 1.37808e-14 -7.73669e-15 0 0 1.54576e-14 -6.99004e-15 4.98404e-15 7.07732e-15 0 0 1.31751e-14 2.7425e-15 -2.16451e-15 7.3656e-15 0 0 1.0728e-15 8.74111e-15 6.28333e-15 1.37794e-14 0 0 -9.36235e-15 1.82407e-14 5.38169e-15 1.44441e-14 0 0 -1.9122e-15 7.85931e-15 1.97055e-14 -1.37562e-14 0 0 1.03502e-14 6.84044e-15 1.56112e-14 -1.05976e-14 0 0 2.92102e-16 1.67935e-14 1.24521e-14 3.27315e-14 0 0 -1.04027e-14 1.63175e-14 2.73426e-14 2.31238e-14 0 0 -6.01754e-15 1.82281e-14 8.98985e-15 1.32166e-14 0 0 1.25636e-15 5.11976e-15 -1.42312e-15 1.92982e-14 0 0 9.27043e-15 -8.02778e-15 2.30436e-14 1.51155e-14 0 0 4.92781e-15 -8.09574e-15 3.23464e-14 1.21399e-14 0 0 9.73255e-16 2.54266e-15 1.80919e-14 2.86819e-15 0 0 3.17019e-15 2.96681e-15 1.73163e-14 -2.57678e-15 0 0 3.70996e-15 4.39196e-15 -3.73414e-15 -1.15747e-15 0 0 -1.84821e-16 3.93838e-15 -5.96141e-16 1.36742e-15 0 0 -2.10201e-14 -6.89934e-15 2.76212e-14 1.43229e-14 0 0 -2.0644e-13 -1.26726e-13 1.30831e-13 2.14145e-13 0 0 -2.70583e-12 -1.67256e-12 1.67472e-12 2.71732e-12 0 0 -2.43824e-11 -1.50668e-11 1.50798e-11 2.43846e-11 0 0 -1.44004e-10 -8.90085e-11 8.90142e-11 1.44009e-10 0 0 -5.60813e-10 -3.46609e-10 3.46614e-10 5.60806e-10 0 0 -1.54052e-09 -9.4727e-10 9.4727e-10 1.54052e-09 0 0 -2.99029e-09 -2.44569e-09 2.44568e-09 2.99031e-09 0 0 -1.0747e-08 4.45544e-09 -4.45543e-09 1.0747e-08 0 0 -1.09678e-08 4.66143e-09 -4.66142e-09 1.09678e-08 0 0 4.45813e-08 -3.39858e-08 3.39858e-08 -4.45813e-08 0 0 2.82276e-08 -1.13731e-08 1.13731e-08 -2.82276e-08 0 0 1.9453e-08 -8.62322e-10 8.62334e-10 -1.9453e-08 0 0 1.42113e-08 3.95128e-09 -3.95122e-09 -1.42112e-08 0 0 1.08028e-08 5.29403e-09 -5.29398e-09 -1.08027e-08 0 0 8.17745e-09 4.7709e-09 -4.77082e-09 -8.17746e-09 0 0 5.77927e-09 3.53188e-09 -3.53182e-09 -5.77924e-09 0 0 3.56168e-09 2.19692e-09 -2.19691e-09 -3.56166e-09 0 0 1.77529e-09 1.09667e-09 -1.09665e-09 -1.77525e-09 0 0 6.54008e-10 4.0412e-10 -4.04117e-10 -6.53959e-10 0 0 1.63442e-10 1.01019e-10 -1.00999e-10 -1.63414e-10 0 0 2.77656e-11 1.71615e-11 -1.71417e-11 -2.77493e-11 0 0 3.68745e-12 2.26858e-12 -2.26507e-12 -3.66482e-12 0 0 4.34195e-13 2.72396e-13 -2.63546e-13 -4.25172e-13 0 0 4.78893e-14 3.64194e-14 -1.72794e-14 -6.012e-14 0 0 3.78794e-15 7.28633e-15 1.25218e-14 -1.26599e-14 0 0 6.10126e-15 1.10129e-15 7.09816e-15 3.4873e-15 0 0 7.76459e-15 4.52745e-15 -4.48713e-15 1.60002e-14 0 0 4.57378e-15 3.22293e-15 -1.33065e-15 3.11845e-15 0 0 -2.07315e-15 4.50573e-15 -8.78511e-16 4.4477e-16 0 0 -1.3409e-15 9.27748e-15 -5.98224e-16 1.43293e-14 0 0 2.99366e-15 1.09865e-14 1.20555e-14 -4.95951e-15 0 0 -6.11194e-16 8.78262e-15 2.67921e-14 -2.41497e-14 0 0 1.34573e-14 -1.78096e-14 2.50982e-14 -2.00108e-15 0 0 1.67617e-14 -1.97196e-15 -5.57805e-16 7.67918e-16 0 0 4.35602e-15 1.43013e-14 -2.08002e-15 -1.47545e-14 0 0 8.25685e-15 1.42384e-14 -2.20264e-15 -9.91847e-15 0 0 6.06978e-15 3.62234e-14 -2.4108e-14 -8.45096e-15 0 0 6.87226e-15 2.11979e-14 -1.24342e-14 6.00767e-15 0 0 1.02834e-14 1.19491e-14 1.83927e-14 7.78863e-15 0 0 4.85617e-15 8.40743e-15 1.91761e-14 -2.87774e-15 0 0 5.06727e-15 1.76089e-15 1.24986e-14 4.02946e-15 0 0 9.5345e-15 8.01517e-15 -5.0853e-17 2.09539e-14 0 0 1.39348e-14 -1.52885e-14 6.8085e-15 8.14312e-15 0 0 1.25725e-14 -1.57233e-14 2.7311e-14 -2.46755e-14 0 0 2.20523e-15 2.97706e-15 1.15158e-14 -1.50943e-14 0 0 9.04062e-15 8.36223e-15 -1.82013e-14 3.65001e-15 0 0 1.45251e-14 7.13776e-15 -7.38353e-15 -3.14649e-15 0 0 1.03218e-14 9.89406e-16 1.07915e-14 4.4112e-15 0 0 1.27753e-14 1.69129e-14 1.28638e-15 2.65019e-15 0 0 1.25812e-14 1.41438e-14 2.70878e-14 -3.33971e-14 0 0 1.358e-14 9.8653e-15 4.38438e-15 -3.35907e-14 0 0 3.20852e-15 7.9792e-15 -1.11843e-14 -3.33697e-14 0 0 -1.22771e-16 1.31719e-14 6.74296e-15 -3.79346e-14 0 0 1.1465e-14 2.94506e-15 -1.82484e-15 -4.99073e-15 0 0 1.61719e-14 -2.6062e-15 4.97843e-15 1.04028e-14 0 0 1.40054e-14 9.47851e-15 -1.5936e-15 1.36527e-15 0 0 1.41908e-14 5.55244e-15 6.85932e-15 -3.02995e-14 0 0 1.84348e-14 5.68593e-15 1.27787e-14 -4.02442e-14 0 0 1.57118e-14 1.70917e-14 -1.94277e-14 -1.261e-14 0 0 1.03638e-14 4.13386e-14 -2.67503e-14 -8.98236e-15 0 0 1.24433e-14 3.06565e-14 -8.71541e-15 -1.66196e-14 0 0 1.47859e-15 3.03445e-14 -7.16407e-15 -2.00763e-14 0 0 -2.11349e-16 2.14037e-14 4.68379e-15 -1.54601e-14 0 0 1.16693e-14 1.6004e-14 -3.78551e-15 -4.39427e-15 0 0 2.07839e-14 2.48105e-14 -1.25391e-14 -1.61574e-14 0 0 3.40081e-14 1.46263e-14 5.955e-15 -3.40361e-14 0 0 3.10564e-14 2.27779e-14 4.46856e-15 -5.22109e-14 0 0 2.04088e-14 1.76606e-14 4.05392e-15 -5.17266e-14 0 0 1.24375e-14 -2.51724e-15 -6.40345e-15 -9.78484e-15 0 0 1.60648e-14 -1.41979e-14 -1.53353e-14 2.86725e-14 0 0 1.4387e-14 -3.77146e-15 3.26417e-15 1.12784e-14 0 0 5.92811e-15 2.45504e-14 1.96358e-14 -4.77041e-14 0 0 5.28475e-14 -1.60738e-14 4.38713e-14 -8.46237e-14 0 0 5.51564e-14 -3.44099e-14 5.29436e-14 -9.30056e-14 0 0 1.54283e-14 3.3873e-14 -1.13046e-14 -6.59176e-14 0 0 2.51876e-14 4.90612e-14 -3.03669e-14 -5.89099e-14 0 0 2.89461e-14 3.00448e-14 -1.42037e-14 -4.6799e-14 0 0 1.80118e-14 8.66963e-15 -7.62403e-16 -3.09038e-14 0 0 6.16072e-15 2.29559e-14 -1.48674e-14 -1.24621e-14 0 0 -3.92411e-16 4.09249e-14 -3.11802e-14 -3.26986e-15 0 0 1.74351e-14 -1.12479e-14 2.39836e-14 -3.17756e-14 0 0 2.53892e-14 -1.86288e-14 1.99506e-14 -2.71903e-14 0 0 1.1294e-14 -1.93007e-15 1.73867e-14 -1.8538e-14 0 0 1.24003e-15 1.73699e-14 -4.84087e-15 1.11596e-14 0 0 -7.72735e-15 4.14624e-14 -1.98261e-14 5.10113e-15 0 0 4.5254e-15 5.30397e-15 2.76168e-14 -8.77063e-15 0 0 -3.54431e-16 7.48245e-15 9.01039e-15 3.98504e-14 0 0 -1.17907e-14 1.15772e-14 3.3595e-15 1.05312e-14 0 0 -6.82641e-16 2.36651e-15 1.98214e-14 -2.286e-14 0 0 -4.05807e-15 3.00948e-14 9.07608e-15 -1.58191e-14 0 0 3.50307e-15 3.46434e-14 1.80843e-14 -3.55485e-14 0 0 -2.00625e-15 3.55845e-14 1.65545e-14 -3.71295e-14 0 0 -9.90676e-15 2.25e-14 -8.78803e-15 -1.64083e-15 0 0 -4.18172e-16 1.39627e-14 -1.6626e-14 1.95423e-14 0 0 -6.58943e-15 3.00147e-14 -5.81068e-15 -1.05477e-14 0 0 2.11447e-16 1.69228e-14 2.56555e-14 -4.30741e-14 0 0 5.76624e-15 -1.82775e-15 6.09194e-14 -4.95726e-14 0 0 -1.30007e-15 -6.89922e-16 3.42609e-14 -1.80954e-14 0 0 2.2737e-15 7.18842e-15 1.20672e-14 -5.58346e-15 0 0 1.27353e-14 -2.67595e-15 2.52536e-14 -2.3483e-14 0 0 1.8412e-14 -1.69833e-14 7.54043e-15 7.96674e-15 0 0 -7.78617e-15 8.52876e-15 -1.81508e-14 3.50847e-14 0 0 -4.71245e-15 8.71101e-15 4.8487e-15 -1.57613e-14 0 0 1.83117e-14 -1.26203e-14 3.58017e-14 -5.11659e-14 0 0 -1.43176e-15 1.84126e-14 -1.30431e-14 -3.60334e-15 0 0 -1.20857e-14 1.71703e-14 -3.27338e-14 3.4415e-14 0 0 -1.839e-15 -4.18597e-15 -8.29055e-15 3.54766e-14 0 0 3.88387e-15 1.18812e-14 -1.94466e-14 3.15699e-14 0 0 0 0 0 0 0
				</DataArray>
				<DataArray Name="VitesseY" type="Float32" format="ascii">