<?xml version="1.0"?>
<VTKFile type="PolyData">
	<PolyData>
		<Piece NumberOfPoints="1206" NumberOfPolys="1000">
			<Points>
				<DataArray type="Float32" NumberOfComponents="3" format="ascii">
 0 0 0 0.02 0 0 0.04 0 0 0.06 0 0 0.08 0 0 0.1 0 0 0 0.005 0 0.02 0.005 0 0.04 0.005 0 0.06 0.005 0 0.08 0.005 0 0.1 0.005 0 0 0.01 0 0.02 0.01 0 0.04 0.01 0 0.06 0.01 0 0.08 0.01 0 0.1 0.01 0 0 0.015 0 0.02 0.015 0 0.04 0.015 0 0.06 0.015 0 0.08 0.015 0 0.1 0.015 0 0 0.02 0 0.02 0.02 0 0.04 0.02 0 0.06 0.02 0 0.08 0.02 0 0.1 0.02 0 0 0.025 0 0.02 0.025 0 0.04 0.025 0 0.06 0.025 0 0.08 0.025 0 0.1 0.025 0 0 0.03 0 0.02 0.03 0 0.04 0.03 0 0.06 0.03 0 0.08 0.03 0 0.1 0.03 0 0 0.035 0 0.02 0.035 0 0.04 0.035 0 0.06 0.035 0 0.08 0.035 0 0.1 0.035 0 0 0.04 0 0.02 0.04 0 0.04 0.04 0 0.06 0.04 0 0.08 0.04 0 0.1 0.04 0 0 0.045 0 0.02 0.045 0 0.04 0.045 0 0.06 0.045 0 0.08 0.045 0 0.1 0.045 0 0 0.05 0 0.02 0.05 0 0.04 0.05 0 0.06 0.05 0 0.08 0.05 0 0.1 0.05 0 0 0.055 0 0.02 0.055 0 0.04 0.055 0 0.06 0.055 0 0.08 0.055 0 0.1 0.055 0 0 0.06 0 0.02 0.06 0 0.04 0.06 0 0.06 0.06 0 0.08 0.06 0 0.1 0.06 0 0 0.065 0 0.02 0.065 0 0.04 0.065 0 0.06 0.065 0 0.08 0.065 0 0.1 0.065 0 0 0.07 0 0.02 0.07 0 0.04 0.07 0 0.06 0.07 0 0.08 0.07 0 0.1 0.07 0 0 0.075 0 0.02 0.075 0 0.04 0.075 0 0.06 0.075 0 0.08 0.075 0 0.1 0.075 0 0 0.08 0 0.02 0.08 0 0.04 0.08 0 0.06 0.08 0 0.08 0.08 0 0.1 0.08 0 0 0.085 0 0.02 0.085 0 0.04 0.085 0 0.06 0.085 0 0.08 0.085 0 0.1 0.085 0 0 0.09 0 0.02 0.09 0 0.04 0.09 0 0.06 0.09 0 0.08 0.09 0 0.1 0.09 0 0 0.095 0 0.02 0.095 0 0.04 0.095 0 0.06 0.095 0 0.08 0.095 0 0.1 0.095 0 0 0.1 0 0.02 0.1 0 0.04 0.1 0 0.06 0.1 0 0.08 0.1 0 0.1 0.1 0 0 0.105 0 0.02 0.105 0 0.04 0.105 0 0.06 0.105 0 0.08 0.105 0 0.1 0.105 0 0 0.11 0 0.02 0.11 0 0.04 0.11 0 0.06 0.11 0 0.08 0.11 0 0.1 0.11 0 0 0.115 0 0.02 0.115 0 0.04 0.115 0 0.06 0.115 0 0.08 0.115 0 0.1 0.115 0 0 0.12 0 0.02 0.12 0 0.04 0.12 0 0.06 0.12 0 0.08 0.12 0 0.1 0.12 0 0 0.125 0 0.02 0.125 0 0.04 0.125 0 0.06 0.125 0 0.08 0.125 0 0.1 0.125 0 0 0.13 0 0.02 0.13 0 0.04 0.13 0 0.06 0.13 0 0.08 0.13 0 0.1 0.13 0 0 0.135 0 0.02 0.135 0 0.04 0.135 0 0.06 0.135 0 0.08 0.135 0 0.1 0.135 0 0 0.14 0 0.02 0.14 0 0.04 0.14 0 0.06 0.14 0 0.08 0.14 0 0.1 0.14 0 0 0.145 0 0.02 0.145 0 0.04 0.145 0 0.06 0.145 0 0.08 0.145 0 0.1 0.145 0 0 0.15 0 0.02 0.15 0 0.04 0.15 0 0.06 0.15 0 0.08 0.15 0 0.1 0.15 0 0 0.155 0 0.02 0.155 0 0.04 0.155 0 0.06 0.155 0 0.08 0.155 0 0.1 0.155 0 0 0.16 0 0.02 0.16 0 0.04 0.16 0 0.06 0.16 0 0.08 0.16 0 0.1 0.16 0 0 0.165 0 0.02 0.165 0 0.04 0.165 0 0.06 0.165 0 0.08 0.165 0 0.1 0.165 0 0 0.17 0 0.02 0.17 0 0.04 0.17 0 0.06 0.17 0 0.08 0.17 0 0.1 0.17 0 0 0.175 0 0.02 0.175 0 0.04 0.175 0 0.06 0.175 0 0.08 0.175 0 0.1 0.175 0 0 0.18 0 0.02 0.18 0 0.04 0.18 0 0.06 0.18 0 0.08 0.18 0 0.1 0.18 0 0 0.185 0 0.02 0.185 0 0.04 0.185 0 0.06 0.185 0 0.08 0.185 0 0.1 0.185 0 0 0.19 0 0.02 0.19 0 0.04 0.19 0 0.06 0.19 0 0.08 0.19 0 0.1 0.19 0 0 0.195 0 0.02 0.195 0 0.04 0.195 0 0.06 0.195 0 0.08 0.195 0 0.1 0.195 0 0 0.2 0 0.02 0.2 0 0.04 0.2 0 0.06 0.2 0 0.08 0.2 0 0.1 0.2 0 0 0.205 0 0.02 0.205 0 0.04 0.205 0 0.06 0.205 0 0.08 0.205 0 0.1 0.205 0 0 0.21 0 0.02 0.21 0 0.04 0.21 0 0.06 0.21 0 0.08 0.21 0 0.1 0.21 0 0 0.215 0 0.02 0.215 0 0.04 0.215 0 0.06 0.215 0 0.08 0.215 0 0.1 0.215 0 0 0.22 0 0.02 0.22 0 0.04 0.22 0 0.06 0.22 0 0.08 0.22 0 0.1 0.22 0 0 0.225 0 0.02 0.225 0 0.04 0.225 0 0.06 0.225 0 0.08 0.225 0 0.1 0.225 0 0 0.23 0 0.02 0.23 0 0.04 0.23 0 0.06 0.23 0 0.08 0.23 0 0.1 0.23 0 0 0.235 0 0.02 0.235 0 0.04 0.235 0 0.06 0.235 0 0.08 0.235 0 0.1 0.235 0 0 0.24 0 0.02 0.24 0 0.04 0.24 0 0.06 0.24 0 0.08 0.24 0 0.1 0.24 0 0 0.245 0 0.02 0.245 0 0.04 0.245 0 0.06 0.245 0 0.08 0.245 0 0.1 0.245 0 0 0.25 0 0.02 0.25 0 0.04 0.25 0 0.06 0.25 0 0.08 0.25 0 0.1 0.25 0 0 0.255 0 0.02 0.255 0 0.04 0.255 0 0.06 0.255 0 0.08 0.255 0 0.1 0.255 0 0 0.26 0 0.02 0.26 0 0.04 0.26 0 0.06 0.26 0 0.08 0.26 0 0.1 0.26 0 0 0.265001 0 0.02 0.265001 0 0.04 0.265001 0 0.06 0.265001 0 0.08 0.265001 0 0.1 0.265001 0 0 0.270004 0 0.02 0.270004 0 0.04 0.270004 0 0.06 0.270004 0 0.08 0.270004 0 0.1 0.270004 0 0 0.275011 0 0.02 0.275011 0 0.04 0.275011 0 0.06 0.275011 0 0.08 0.275011 0 0.1 0.275011 0 0 0.280026 0 0.02 0.280026 0 0.04 0.280026 0 0.06 0.280026 0 0.08 0.280026 0 0.1 0.280026 0 0 0.28506 0 0.02 0.28506 0 0.04 0.28506 0 0.06 0.28506 0 0.08 0.28506 0 0.1 0.28506 0 0 0.290125 0 0.02 0.290125 0 0.04 0.290125 0 0.06 0.290125 0 0.08 0.290125 0 0.1 0.290125 0 0 0.295238 0 0.02 0.295238 0 0.04 0.295238 0 0.06 0.295238 0 0.08 0.295238 0 0.1 0.295238 0 0 0.300417 0 0.02 0.300417 0 0.04 0.300417 0 0.06 0.300417 0 0.08 0.300417 0 0.1 0.300417 0 0 0.305676 0 0.02 0.305676 0 0.04 0.305676 0 0.06 0.305676 0 0.08 0.305676 0 0.1 0.305676 0 0 0.31103 0 0.02 0.31103 0 0.04 0.31103 0 0.06 0.31103 0 0.08 0.31103 0 0.1 0.31103 0 0 0.316489 0 0.02 0.316489 0 0.04 0.316489 0 0.06 0.316489 0 0.08 0.316489 0 0.1 0.316489 0 0 0.322062 0 0.02 0.322062 0 0.04 0.322062 0 0.06 0.322062 0 0.08 0.322062 0 0.1 0.322062 0 0 0.327758 0 0.02 0.327758 0 0.04 0.327758 0 0.06 0.327758 0 0.08 0.327758 0 0.1 0.327758 0 0 0.333584 0 0.02 0.333584 0 0.04 0.333584 0 0.06 0.333584 0 0.08 0.333584 0 0.1 0.333584 0 0 0.339548 0 0.02 0.339548 0 0.04 0.339548 0 0.06 0.339548 0 0.08 0.339548 0 0.1 0.339548 0 0 0.345659 0 0.02 0.345659 0 0.04 0.345659 0 0.06 0.345659 0 0.08 0.345659 0 0.1 0.345659 0 0 0.351926 0 0.02 0.351926 0 0.04 0.351926 0 0.06 0.351926 0 0.08 0.351926 0 0.1 0.351926 0 0 0.358358 0 0.02 0.358358 0 0.04 0.358358 0 0.06 0.358358 0 0.08 0.358358 0 0.1 0.358358 0 0 0.364966 0 0.02 0.364966 0 0.04 0.364966 0 0.06 0.364966 0 0.08 0.364966 0 0.1 0.364966 0 0 0.37176 0 0.02 0.37176 0 0.04 0.37176 0 0.06 0.37176 0 0.08 0.37176 0 0.1 0.37176 0 0 0.378754 0 0.02 0.378754 0 0.04 0.378754 0 0.06 0.378754 0 0.08 0.378754 0 0.1 0.378754 0 0 0.385961 0 0.02 0.385961 0 0.04 0.385961 0 0.06 0.385961 0 0.08 0.385961 0 0.1 0.385961 0 0 0.393395 0 0.02 0.393395 0 0.04 0.393395 0 0.06 0.393395 0 0.08 0.393395 0 0.1 0.393395 0 0 0.401073 0 0.02 0.401073 0 0.04 0.401073 0 0.06 0.401073 0 0.08 0.401073 0 0.1 0.401073 0 0 0.409013 0 0.02 0.409013 0 0.04 0.409013 0 0.06 0.409013 0 0.08 0.409013 0 0.1 0.409013 0 0 0.417236 0 0.02 0.417236 0 0.04 0.417236 0 0.06 0.417236 0 0.08 0.417236 0 0.1 0.417236 0 0 0.425764 0 0.02 0.425764 0 0.04 0.425764 0 0.06 0.425764 0 0.08 0.425764 0 0.1 0.425764 0 0 0.434621 0 0.02 0.434621 0 0.04 0.434621 0 0.06 0.434621 0 0.08 0.434621 0 0.1 0.434621 0 0 0.443836 0 0.02 0.443836 0 0.04 0.443836 0 0.06 0.443836 0 0.08 0.443836 0 0.1 0.443836 0 0 0.453439 0 0.02 0.453439 0 0.04 0.453439 0 0.06 0.453439 0 0.08 0.453439 0 0.1 0.453439 0 0 0.463464 0 0.02 0.463464 0 0.04 0.463464 0 0.06 0.463464 0 0.08 0.463464 0 0.1 0.463464 0 0 0.473943 0 0.02 0.473943 0 0.04 0.473943 0 0.06 0.473943 0 0.08 0.473943 0 0.1 0.473943 0 0 0.484906 0 0.02 0.484906 0 0.04 0.484906 0 0.06 0.484906 0 0.08 0.484906 0 0.1 0.484906 0 0 0.496366 0 0.02 0.496366 0 0.04 0.496366 0 0.06 0.496366 0 0.08 0.496366 0 0.1 0.496366 0 0 0.508276 0 0.02 0.508276 0 0.04 0.508276 0 0.06 0.508276 0 0.08 0.508276 0 0.1 0.508276 0 0 0.520425 0 0.02 0.520425 0 0.04 0.520425 0 0.06 0.520425 0 0.08 0.520425 0 0.1 0.520425 0 0 0.532516 0 0.02 0.532516 0 0.04 0.532516 0 0.06 0.532516 0 0.08 0.532516 0 0.1 0.532516 0 0 0.544511 0 0.02 0.544511 0 0.04 0.544511 0 0.06 0.544511 0 0.08 0.544511 0 0.1 0.544511 0 0 0.556408 0 0.02 0.556408 0 0.04 0.556408 0 0.06 0.556408 0 0.08 0.556408 0 0.1 0.556408 0 0 0.568229 0 0.02 0.568229 0 0.04 0.568229 0 0.06 0.568229 0 0.08 0.568229 0 0.1 0.568229 0 0 0.580002 0 0.02 0.580002 0 0.04 0.580002 0 0.06 0.580002 0 0.08 0.580002 0 0.1 0.580002 0 0 0.59175 0 0.02 0.59175 0 0.04 0.59175 0 0.06 0.59175 0 0.08 0.59175 0 0.1 0.59175 0 0 0.603486 0 0.02 0.603486 0 0.04 0.603486 0 0.06 0.603486 0 0.08 0.603486 0 0.1 0.603486 0 0 0.615218 0 0.02 0.615218 0 0.04 0.615218 0 0.06 0.615218 0 0.08 0.615218 0 0.1 0.615218 0 0 0.626947 0 0.02 0.626947 0 0.04 0.626947 0 0.06 0.626947 0 0.08 0.626947 0 0.1 0.626947 0 0 0.638676 0 0.02 0.638676 0 0.04 0.638676 0 0.06 0.638676 0 0.08 0.638676 0 0.1 0.638676 0 0 0.650408 0 0.02 0.650408 0 0.04 0.650408 0 0.06 0.650408 0 0.08 0.650408 0 0.1 0.650408 0 0 0.662154 0 0.02 0.662154 0 0.04 0.662154 0 0.06 0.662154 0 0.08 0.662154 0 0.1 0.662154 0 0 0.664763 0 0.02 0.664763 0 0.04 0.664763 0 0.06 0.664763 0 0.08 0.664763 0 0.1 0.664763 0 0 0.667299 0 0.02 0.667299 0 0.04 0.667299 0 0.06 0.667299 0 0.08 0.667299 0 0.1 0.667299 0 0 0.669789 0 0.02 0.669789 0 0.04 0.669789 0 0.06 0.669789 0 0.08 0.669789 0 0.1 0.669789 0 0 0.672249 0 0.02 0.672249 0 0.04 0.672249 0 0.06 0.672249 0 0.08 0.672249 0 0.1 0.672249 0 0 0.674688 0 0.02 0.674688 0 0.04 0.674688 0 0.06 0.674688 0 0.08 0.674688 0 0.1 0.674688 0 0 0.677111 0 0.02 0.677111 0 0.04 0.677111 0 0.06 0.677111 0 0.08 0.677111 0 0.1 0.677111 0 0 0.679524 0 0.02 0.679524 0 0.04 0.679524 0 0.06 0.679524 0 0.08 0.679524 0 0.1 0.679524 0 0 0.681936 0 0.02 0.681936 0 0.04 0.681936 0 0.06 0.681936 0 0.08 0.681936 0 0.1 0.681936 0 0 0.684347 0 0.02 0.684347 0 0.04 0.684347 0 0.06 0.684347 0 0.08 0.684347 0 0.1 0.684347 0 0 0.686744 0 0.02 0.686744 0 0.04 0.686744 0 0.06 0.686744 0 0.08 0.686744 0 0.1 0.686744 0 0 0.689129 0 0.02 0.689129 0 0.04 0.689129 0 0.06 0.689129 0 0.08 0.689129 0 0.1 0.689129 0 0 0.69151 0 0.02 0.69151 0 0.04 0.69151 0 0.06 0.69151 0 0.08 0.69151 0 0.1 0.69151 0 0 0.693887 0 0.02 0.693887 0 0.04 0.693887 0 0.06 0.693887 0 0.08 0.693887 0 0.1 0.693887 0 0 0.696264 0 0.02 0.696264 0 0.04 0.696264 0 0.06 0.696264 0 0.08 0.696264 0 0.1 0.696264 0 0 0.69864 0 0.02 0.69864 0 0.04 0.69864 0 0.06 0.69864 0 0.08 0.69864 0 0.1 0.69864 0 0 0.701013 0 0.02 0.701013 0 0.04 0.701013 0 0.06 0.701013 0 0.08 0.701013 0 0.1 0.701013 0 0 0.703384 0 0.02 0.703384 0 0.04 0.703384 0 0.06 0.703384 0 0.08 0.703384 0 0.1 0.703384 0 0 0.705753 0 0.02 0.705753 0 0.04 0.705753 0 0.06 0.705753 0 0.08 0.705753 0 0.1 0.705753 0 0 0.708121 0 0.02 0.708121 0 0.04 0.708
[...]
			<PointData Scalars="VitesseX">
				<DataArray Name="VitesseX" type="Float32" format="ascii">
 0 0 0 0 0 0 0 9.64453e-16 4.71413e-15 4.28808e-15 3.44302e-15 0 0 1.06676e-15 5.18074e-15 3.73612e-15 8.50722e-16 0 0 5.64647e-16 5.85986e-15 3.33401e-15 -2.12576e-15 0 0 9.94122e-16 6.03247e-15 2.4669e-15 -2.81635e-15 0 0 1.65774e-15 6.66077e-15 3.10767e-16 -2.1668e-15 0 0 3.14045e-15 6.30813e-15 -1.81695e-15 -1.02484e-15 0 0 3.5679e-15 6.53562e-15 -2.5288e-15 -1.5835e-15 0 0 3.8717e-15 6.72901e-15 -5.36693e-16 -3.03255e-15 0 0 4.43899e-15 6.93868e-15 -4.93096e-16 -1.01906e-15 0 0 6.06879e-15 2.89193e-15 5.31905e-15 -2.74992e-15 0 0 4.26027e-15 3.86271e-15 7.39498e-15 -2.27177e-15 0 0 3.1981e-15 4.95623e-15 5.05162e-15 2.79368e-15 0 0 5.0664e-15 1.93326e-15 2.66128e-15 7.8221e-15 0 0 8.03654e-16 6.71073e-15 -5.18506e-15 1.37544e-14 0 0 1.0465e-15 4.88992e-15 -5.76728e-15 1.20279e-14 0 0 3.44969e-15 4.64721e-16 -3.54057e-15 4.91454e-15 0 0 4.28677e-15 -3.63656e-15 3.58297e-15 -3.1578e-15 0 0 1.20293e-15 1.2397e-15 2.9086e-15 -5.49338e-15 0 0 3.44703e-16 6.23325e-15 -1.00841e-15 -7.88502e-15 0 0 4.41189e-15 1.14242e-15 2.37196e-15 -1.08825e-14 0 0 3.02488e-15 3.03143e-15 -3.52559e-15 -2.53253e-15 0 0 7.22963e-16 -1.6858e-15 5.94114e-15 -7.96389e-16 0 0 -9.66778e-16 -7.20875e-15 1.15925e-14 -3.34314e-15 0 0 -6.30507e-15 1.84664e-15 -3.53442e-15 1.02938e-15 0 0 -1.09734e-14 8.33684e-15 -3.75513e-15 -6.52404e-15 0 0 -4.28433e-15 3.93241e-15 -3.7764e-15 -1.02327e-14 0 0 -2.65187e-15 9.25077e-15 -1.43792e-14 -3.42461e-15 0 0 -1.6587e-15 6.79851e-15 -8.0135e-15 -5.28588e-15 0 0 7.83224e-16 -2.89713e-15 -2.49154e-15 -4.99042e-15 0 0 3.00507e-15 -6.1536e-15 -1.19612e-15 -9.32564e-15 0 0 5.34176e-15 -7.00309e-15 1.76941e-15 -1.45784e-14 0 0 3.13459e-15 -3.18114e-15 -3.02847e-15 -8.72309e-15 0 0 1.01802e-15 -7.69553e-15 1.28886e-15 -3.86653e-16 0 0 -5.32799e-15 -9.79116e-15 1.01138e-14 5.16527e-15 0 0 -4.61242e-15 -9.21627e-15 1.67515e-14 1.00155e-14 0 0 2.57375e-15 -8.68873e-15 1.14375e-14 1.15628e-14 0 0 5.11425e-15 -8.54756e-16 1.47376e-15 1.17034e-14 0 0 1.06358e-14 -1.0842e-15 9.8219e-15 1.47503e-14 0 0 7.12796e-15 1.2e-14 1.22401e-16 4.02004e-14 0 0 -3.7927e-15 2.69373e-14 -2.03508e-14 3.12362e-14 0 0 -2.5809e-15 8.55294e-16 -4.20175e-15 -1.39183e-14 0 0 9.30829e-16 -5.25301e-15 5.15411e-15 -1.77868e-14 0 0 7.03476e-15 -1.49082e-16 3.95342e-15 -5.62376e-15 0 0 -1.62546e-14 -7.90414e-15 -2.10535e-15 -1.03824e-14 0 0 -4.88616e-14 1.13733e-15 -2.18287e-14 -1.70094e-14 0 0 -4.56992e-14 -1.17657e-14 -5.67867e-15 -2.75405e-14 0 0 -1.93293e-14 -3.41814e-14 -5.81487e-15 -2.33351e-14 0 0 -1.87389e-14 -3.16762e-14 -4.16874e-14 -5.08967e-15 0 0 -4.04059e-14 -1.4179e-14 -4.59703e-14 -2.75679e-14 0 0 -1.64352e-14 -2.80737e-14 -4.12373e-14 -3.77949e-14 0 0 5.38276e-15 -5.30455e-14 -2.35678e-14 -3.91792e-14 0 0 -5.18578e-15 -4.04901e-14 -3.11389e-14 -1.89924e-14 0 0 -9.64402e-15 -1.51863e-14 -4.18289e-14 -6.88138e-15 0 0 1.66879e-14 -2.10327e-14 -2.3022e-14 -1.53079e-14 0 0 3.04692e-14 2.85332e-15 -5.41945e-14 1.55947e-14 0 0 6.03438e-15 2.51014e-14 -6.23548e-14 2.31966e-14 0 0 4.00359e-15 -1.31788e-14 -2.74693e-14 8.36606e-15 0 0 1.68445e-14 -3.61967e-14 -1.04227e-14 6.85782e-15 0 0 1.13489e-14 -3.80637e-14 2.1672e-14 -1.18115e-14 0 0 -2.77705e-14 -9.71321e-15 2.34695e-14 8.75105e-15 0 0 -7.4535e-14 -6.16842e-15 7.93335e-15 6.33889e-14 0 0 -8.82282e-14 -4.55674e-14 3.20316e-14 1.00403e-13 0 0 -1.14988e-13 -6.88415e-14 9.05595e-14 1.40726e-13 0 0 -2.21694e-13 -1.42147e-13 1.71527e-13 2.35976e-13 0 0 -4.00041e-13 -2.33483e-13 2.49577e-13 3.87882e-13 0 0 -5.69107e-13 -3.18001e-13 3.39577e-13 5.49467e-13 0 0 -7.06742e-13 -4.21871e-13 4.34386e-13 7.1577e-13 0 0 -7.82665e-13 -4.71389e-13 4.92947e-13 8.05573e-13 0 0 -6.96633e-13 -4.13099e-13 4.27931e-13 6.91614e-13 0 0 -2.48189e-13 -1.41807e-13 1.58825e-13 2.34514e-13 0 0 7.07133e-13 4.53792e-13 -4.01391e-13 -7.23199e-13 0 0 2.26905e-12 1.44505e-12 -1.37974e-12 -2.28536e-12 0 0 4.55276e-12 2.85122e-12 -2.79558e-12 -4.57118e-12 0 0 7.55417e-12 4.66092e-12 -4.64331e-12 -7.52176e-12 0 0 1.1015e-11 6.81858e-12 -6.8226e-12 -1.09657e-11 0 0 1.45821e-11 9.06029e-12 -9.0301e-12 -1.45894e-11 0 0 1.77073e-11 1.0959e-11 -1.09182e-11 -1.77108e-11 0 0 1.94795e-11 1.20205e-11 -1.20016e-11 -1.94675e-11 0 0 1.88854e-11 1.16757e-11 -1.16722e-11 -1.8874e-11 0 0 1.47945e-11 9.18374e-12 -9.17751e-12 -1.47836e-11 0 0 6.01684e-12 3.73044e-12 -3.71981e-12 -5.99628e-12 0 0 -8.58233e-12 -5.30506e-12 5.30456e-12 8.59944e-12 0 0 -3.00063e-11 -1.8548e-11 1.85763e-11 2.99922e-11 0 0 -5.90035e-11 -3.6477e-11 3.65355e-11 5.89822e-11 0 0 -9.62126e-11 -5.94212e-11 5.94759e-11 9.62046e-11 0 0 -1.42622e-10 -8.81512e-11 8.81771e-11 1.42638e-10 0 0 -1.98482e-10 -1.22671e-10 1.22697e-10 1.98491e-10 0 0 -2.28922e-10 -1.41766e-10 1.41802e-10 2.28921e-10 0 0 -2.38092e-10 -1.46275e-10 1.46284e-10 2.38092e-10 0 0 -2.28094e-10 -1.41669e-10 1.41638e-10 2.28077e-10 0 0 -1.73075e-10 -1.12244e-10 1.12165e-10 1.73027e-10 0 0 -1.24239e-10 -5.56785e-11 5.55674e-11 1.24155e-10 0 0 -7.54816e-11 -7.66523e-11 7.6497e-11 7.54004e-11 0 0 -1.08625e-10 -9.90341e-11 9.88618e-11 1.08536e-10 0 0 -3.32173e-10 -7.32042e-12 7.17393e-12 3.3208e-10 0 0 -3.47301e-10 -5.77785e-10 5.77671e-10 3.47231e-10 0 0 -1.3175e-09 -2.58709e-10 2.58624e-10 1.31745e-09 0 0 -1.5161e-09 -2.68968e-09 2.68962e-09 1.51605e-09 0 0 -8.46371e-09 2.1822e-09 -2.18228e-09 8.46367e-09 0 0 -9.27281e-09 4.95703e-09 -4.95715e-09 9.27274e-09 0 0 3.05352e-08 -1.95222e-08 1.95221e-08 -3.05354e-08 0 0 1.63684e-08 -3.07415e-09 3.07393e-09 -1.63685e-08 0 0 1.06345e-08 1.53983e-09 -1.54006e-09 -1.06346e-08 0 0 7.77344e-09 2.62544e-09 -2.62566e-09 -7.77362e-09 0 0 6.07699e-09 2.58291e-09 -2.5831e-09 -6.07714e-09 0 0 4.90017e-09 2.2295e-09 -2.22963e-09 -4.90024e-09 0 0 3.9839e-09 1.86133e-09 -1.86132e-09 -3.98387e-09 0 0 3.23172e-09 1.54433e-09 -1.54403e-09 -3.23159e-09 0 0 2.61024e-09 1.28152e-09 -1.28094e-09 -2.60993e-09 0 0 2.11974e-09 1.08778e-09 -1.08702e-09 -2.11924e-09 0 0 1.71757e-09 9.55549e-10 -9.54662e-10 -1.71698e-09 0 0 1.3663e-09 8.63328e-10 -8.62415e-10 -1.36569e-09 0 0 1.07285e-09 7.90242e-10 -7.89333e-10 -1.07228e-09 0 0 8.40026e-10 7.05657e-10 -7.04799e-10 -8.39493e-10 0 0 6.73455e-10 6.06465e-10 -6.05691e-10 -6.72941e-10 0 0 5.51143e-10 4.87138e-10 -4.86413e-10 -5.50614e-10 0 0 4.5887e-10 3.60866e-10 -3.60161e-10 -4.58369e-10 0 0 3.89874e-10 2.59924e-10 -2.59253e-10 -3.89457e-10 0 0 3.35328e-10 1.93732e-10 -1.93125e-10 -3.34927e-10 0 0 2.86729e-10 1.50227e-10 -1.49661e-10 -2.86353e-10 0 0 2.42741e-10 1.23224e-10 -1.22666e-10 -2.4245e-10 0 0 2.02041e-10 1.06305e-10 -1.05759e-10 -2.01787e-10 0 0 1.63122e-10 9.19725e-11 -9.14478e-11 -1.62853e-10 0 0 1.2635e-10 7.60449e-11 -7.55439e-11 -1.26101e-10 0 0 9.03499e-11 5.69067e-11 -5.64284e-11 -9.01073e-11 0 0 6.00448e-11 3.88712e-11 -3.8412e-11 -5.97917e-11 0 0 3.70048e-11 2.42025e-11 -2.37816e-11 -3.67677e-11 0 0 1.98915e-11 1.2995e-11 -1.26282e-11 -1.96624e-11 0 0 6.66651e-12 4.46247e-12 -4.13803e-12 -6.43182e-12 0 0 -1.21153e-11 -7.30067e-12 7.58828e-12 1.23085e-11 0 0 -3.92968e-11 -2.41728e-11 2.44268e-11 3.94576e-11 0 0 -7.34419e-11 -4.52943e-11 4.5503e-11 7.36359e-11 0 0 -1.15539e-10 -7.1316e-11 7.14642e-11 1.15756e-10 0 0 -1.58043e-10 -9.75531e-11 9.76694e-11 1.58206e-10 0 0 -1.79694e-10 -1.10878e-10 1.10957e-10 1.79828e-10 0 0 -1.90602e-10 -1.17601e-10 1.17642e-10 1.90711e-10 0 0 -2.10531e-10 -1.29903e-10 1.2994e-10 2.10515e-10 0 0 -2.3617e-10 -1.45752e-10 1.45776e-10 2.3609e-10 0 0 -2.64222e-10 -1.63082e-10 1.63069e-10 2.64175e-10 0 0 -2.96527e-10 -1.83064e-10 1.83025e-10 2.96444e-10 0 0 -3.24733e-10 -2.00494e-10 2.00456e-10 3.24598e-10 0 0 -3.27872e-10 -2.02437e-10 2.0238e-10 3.27744e-10 0 0 -3.1668e-10 -1.95587e-10 1.95504e-10 3.16554e-10 0 0 -3.08846e-10 -1.90761e-10 1.90675e-10 3.0868e-10 0 0 -2.98328e-10 -1.84256e-10 1.84161e-10 2.98146e-10 0 0 -2.84143e-10 -1.75545e-10 1.75443e-10 2.83977e-10 0 0 -2.66589e-10 -1.64781e-10 1.64685e-10 2.66408e-10 0 0 -2.38026e-10 -1.47149e-10 1.4705e-10 2.37845e-10 0 0 -1.9898e-10 -1.23014e-10 1.22869e-10 1.98771e-10 0 0 -1.59391e-10 -9.85625e-11 9.84043e-11 1.59074e-10 0 0 -1.1942e-10 -7.38676e-11 7.36901e-11 1.19079e-10 0 0 -8.063e-11 -4.99551e-11 4.97007e-11 8.03128e-11 0 0 -4.54341e-11 -2.81793e-11 2.78625e-11 4.50781e-11 0 0 -1.42444e-11 -8.91558e-12 8.53412e-12 1.38557e-11 0 0 7.93884e-12 4.81007e-12 -5.21719e-12 -8.31067e-12 0 0 2.33967e-11 1.43243e-11 -1.47643e-11 -2.36401e-11 0 0 3.40157e-11 2.07937e-11 -2.12156e-11 -3.42667e-11 0 0 3.8726e-11 2.37491e-11 -2.41596e-11 -3.90601e-11 0 0 3.8637e-11 2.36757e-11 -2.41068e-11 -3.8998e-11 0 0 3.46792e-11 2.12344e-11 -2.16164e-11 -3.50583e-11 0 0 2.80963e-11 1.72547e-11 -1.75399e-11 -2.83708e-11 0 0 2.01702e-11 1.24208e-11 -1.26402e-11 -2.03304e-11 0 0 1.24781e-11 7.64117e-12 -7.82927e-12 -1.26114e-11 0 0 6.37573e-12 3.878e-12 -4.02658e-12 -6.45806e-12 0 0 2.57316e-12 1.53648e-12 -1.6613e-12 -2.638e-12 0 0 7.94564e-13 4.1742e-13 -5.17551e-13 -9.01488e-13 0 0 1.64436e-13 5.99856e-14 -1.53156e-13 -2.77179e-13 0 0 1.6944e-15 -2.96361e-14 -6.521e-14 -1.06112e-13 0 0 -2.66653e-14 -7.03143e-14 -3.45244e-14 -8.71961e-14 0 0 -2.47919e-14 -9.46701e-14 -3.3831e-14 -8.12662e-14 0 0 -3.19109e-14 -8.25193e-14 -5.50955e-14 -6.35357e-14 0 0 -3.91577e-14 -6.99773e-14 -6.70084e-14 -6.1448e-14 0 0 -3.81858e-14 -6.83034e-14 -5.99456e-14 -5.75596e-14 0 0 -3.45351e-14 -7.09452e-14 -7.54945e-14 -2.31745e-14 0 0 -3.67767e-14 -6.05623e-14 -1.07561e-13 9.06675e-15 0 0 -4.09992e-14 -6.28146e-14 -6.81124e-14 -2.2257e-14 0 0 -3.96012e-14 -7.78419e-14 -3.06266e-14 -4.96455e-14 0 0 -4.33934e-14 -5.80948e-14 -4.65137e-14 -6.31476e-14 0 0 -4.28276e-14 -5.9712e-14 -3.77449e-14 -9.48977e-14 0 0 -5.03626e-14 -4.86877e-14 -4.74721e-14 -9.83133e-14 0 0 -6.0768e-14 -3.63063e-14 -4.11457e-14 -8.34587e-14 0 0 -4.13997e-14 -5.67892e-14 -3.36291e-14 -5.23628e-14 0 0 -3.71463e-14 -3.20116e-14 -8.87424e-14 8.5395e-15 0 0 -2.96995e-14 -1.93342e-14 -9.51321e-14 4.18237e-14 0 0 -5.2606e-15 -2.99202e-14 -5.90335e-14 2.18486e-14 0 0 -2.80117e-14 1.58975e-14 -5.218e-14 5.64788e-15 0 0 -1.9106e-14 2.0848e-14 -2.83769e-14 -3.10016e-14 0 0 -2.89138e-15 -9.431e-15 -3.0818e-14 -2.4473e-14 0 0 -2.5244e-14 7.05965e-15 -3.07147e-14 -3.2843e-14 0 0 -3.12833e-14 1.32098e-15 -1.1911e-14 -3.73349e-14 0 0 -2.76947e-14 -1.73713e-14 -1.44435e-14 -2.15231e-14 0 0 -1.03115e-14 -5.0288e-14 -1.03e-14 -1.13635e-14 0 0 -1.66713e-15 -9.54548e-14 1.24349e-14 -5.94328e-14 0 0 -4.54564e-15 -9.01425e-14 -2.79284e-14 -1.00678e-13 0 0 -2.74102e-14 -5.9712e-14 -8.9098e-14 -2.80269e-14 0 0 -9.05975e-14 -2.55822e-14 -6.58254e-14 -3.3137e-14 0 0 -1.20754e-13 -1.75175e-14 -3.93059e-14 -5.1847e-14 0 0 -1.12818e-13 -4.43691e-14 -3.46076e-14 -2.86361e-14 0 0 -9.08799e-14 -1.11932e-13 8.69175e-16 -3.02858e-14 0 0 0 0 0 0 0
				</DataArray>
				<DataArray Name="VitesseY" type="Float32" format="ascii">
 0 0 0 0 0 0 0 1.19125e-15 3.74675e-15 2.26515e-15 -1.02473e-15 0 0 1.52827e-15 2.08566e-15 2.47802e-15 -6.48662e-15 0 0 1.38036e-15 2.2933e-15 2.52167e-15 -1.52793e-15 0 0 4.11007e-15 5.56263e-15 2.34673e-15 6.60397e-16 0 0 4.38479e-15 9.15198e-15 5.58515e-15 1.1428e-15 0 0 8.10951e-15 9.552e-15 2.192e-15 2.76349e-15 0 0 4.89171e-15 6.43191e-15 1.13426e-14 6.21052e-15 0 0 5.21818e-15 6.06497e-15 9.96947e-15 1.74744e-14 0 0 6.51083e-15 9.02931e-15 5.99513e-15 7.05331e-15 0 0 6.80204e-15 -5.72928e-15 4.2353e-15 1.98763e-14 0 0 -2.19392e-15 6.56601e-15 9.23921e-15 4.09981e-15 0 0 9.0474e-15 2.99845e-16 -7.28116e-15 9.01363e-15 0 0 8.49715e-15 1.24242e-14 -1.75173e-15 -7.53204e-15 0 0 7.67745e-15 5.6541e-15 7.53842e-15 5.57987e-15 0 0 1.90159e-14 1.44837e-14 3.28085e-15 -3.86567e-15 0 0 9.86486e-15 5.89318e-15 7.73942e-15 -3.99746e-15 0 0 1.15104e-14 2.24542e-15 1.20457e-14 2.03662e-14 0 0 -7.77104e-15 8.28309e-15 1.52991e-14 -4.63552e-15 0 0 1.41612e-14 1.45906e-14 1.13735e-14 6.73587e-15 0 0 1.37308e-14 9.48971e-15 5.85348e-15 1.23936e-14 0 0 2.36824e-15 9.02995e-15 -3.68061e-15 -6.54745e-17 0 0 1.56535e-14 -1.88979e-14 1.25051e-14 5.39937e-14 0 0 1.00419e-14 1.55317e-14 -1.55569e-14 -4.42944e-14 0 0 -4.45903e-15 4.68299e-15 1.16435e-14 -2.44815e-15 0 0 9.29479e-15 7.39795e-15 2.58033e-14 8.76347e-15 0 0 5.59049e-15 1.64688e-14 -1.95349e-14 -1.75912e-14 0 0 -8.86867e-15 8.09554e-15 2.30667e-14 5.38058e-15 0 0 1.07314e-14 -1.16314e-14 -1.09335e-14 2.44865e-14 0 0 1.42849e-14 7.77849e-15 -9.72079e-15 -2.14993e-14 0 0 2.32983e-14 2.54874e-14 3.52001e-14 3.47802e-14 0 0 9.46242e-15 1.31942e-14 1.21113e-14 3.06637e-15 0 0 7.11365e-15 1.02155e-14 7.26726e-15 2.03651e-14 0 0 1.52512e-14 -1.41087e-14 -1.22299e-14 2.54137e-14 0 0 2.08573e-14 1.62091e-14 4.08743e-14 6.13293e-14 0 0 3.2658e-14 4.16916e-14 4.58364e-14 7.19185e-14 0 0 3.19842e-14 5.34911e-14 3.05272e-14 -1.08953e-14 0 0 4.5289e-14 6.52196e-14 7.99716e-14 8.16685e-14 0 0 1.07567e-13 1.08805e-13 1.26129e-13 1.70284e-13 0 0 2.04747e-13 2.41559e-13 2.3761e-13 2.56921e-13 0 0 1.11589e-12 1.09495e-12 1.0769e-12 9.40014e-13 0 0 7.10485e-12 7.02662e-12 7.00474e-12 7.02573e-12 0 0 4.23519e-11 4.24198e-11 4.24542e-11 4.24554e-11 0 0 2.4381e-10 2.43787e-10 2.43767e-10 2.4381e-10 0 0 1.33102e-09 1.33092e-09 1.33088e-09 1.3308e-09 0 0 6.883e-09 6.88301e-09 6.88301e-09 6.88299e-09 0 0 3.36481e-08 3.36481e-08 3.36481e-08 3.36482e-08 0 0 1.55121e-07 1.55121e-07 1.55121e-07 1.55121e-07 0 0 6.72514e-07 6.72514e-07 6.72514e-07 6.72514e-07 0 0 2.73324e-06 2.73324e-06 2.73324e-06 2.73324e-06 0 0 1.03758e-05 1.03758e-05 1.03758e-05 1.03758e-05 0 0 3.66348e-05 3.66348e-05 3.66348e-05 3.66348e-05 0 0 0.000119713 0.000119713 0.000119713 0.000119713 0 0 0.000359949 0.000359949 0.000359949 0.000359949 0 0 0.000989292 0.000989292 0.000989292 0.000989292 0 0 0.00246789 0.00246789 0.00246789 0.00246789 0 0 0.00555165 0.00555165 0.00555165 0.00555165 0 0 0.0112148 0.0112148 0.0112148 0.0112148 0 0 0.020349 0.020349 0.020349 0.020349 0 0 0.0333694 0.0333694 0.0333694 0.0333694 0 0 0.0500398 0.0500398 0.0500398 0.0500398 0 0 0.0696697 0.0696697 0.0696697 0.0696697 0 0 0.0914829 0.0914829 0.0914829 0.0914829 0 0 0.114871 0.114871 0.114871 0.114871 0 0 0.139452 0.139452 0.139452 0.139452 0 0 0.165017 0.165017 0.165017 0.165017 0 0 0.191463 0.191463 0.191463 0.191463 0 0 0.218747 0.218747 0.218747 0.218747 0 0 0.246855 0.246855 0.246855 0.246855 0 0 0.275795 0.275795 0.275795 0.275795 0 0 0.305587 0.305587 0.305587 0.305587 0 0 0.33626 0.33626 0.33626 0.33626 0 0 0.367851 0.367851 0.367851 0.367851 0 0 0.400403 0.400403 0.400403 0.400403 0 0 0.433965 0.433965 0.433965 0.433965 0 0 0.468592 0.468592 0.468592 0.468592 0 0 0.504345 0.504345 0.504345 0.504345 0 0 0.541285 0.541285 0.541285 0.541285 0 0 0.579481 0.579481 0.579481 0.579481 0 0 0.618996 0.618996 0.618996 0.618996 0 0 0.659888 0.659888 0.659888 0.659888 0 0 0.702192 0.702192 0.702192 0.702192 0 0 0.745892 0.745892 0.745892 0.745892 0 0 0.790856 0.790856 0.790856 0.790856 0 0 0.83668 0.83668 0.83668 0.83668 0 0 0.882278 0.882278 0.882278 0.882278 0 0 0.92474 0.92474 0.92474 0.92474 0 0 0.95615 0.95615 0.95615 0.95615 0 0 0.959661 0.959661 0.959661 0.959661 0 0 0.950935 0.950935 0.950935 0.950935 0 0 0.942633 0.942633 0.942633 0.942633 0 0 0.935891 0.935891 0.935891 0.935891 0 0 0.931396 0.931396 0.931396 0.931396 0 0 0.928924 0.928924 0.928924 0.928924 0 0 0.927745 0.927745 0.927745 0.927745 0 0 0.927211 0.927211 0.927211 0.927211 0 0 0.926945 0.926945 0.926945 0.926945 0 0 0.926786 0.926786 0.926786 0.926786 0 0 0.926696 0.926696 0.926696 0.926696 0 0 0.926663 0.926663 0.926663 0.926663 0 0 0.926523 0.926523 0.926523 0.926523 0 0 0.926498 0.926498 0.926498 0.926498 0 0 0.926481 0.926481 0.926481 0.926481 0 0 0.926472 0.926472 0.926472 0.926472 0 0 0.926471 0.926471 0.926471 0.926471 0 0 0.926519 0.926519 0.926519 0.926519 0 0 0.926629 0.926629 0.926629 0.926629 0 0 0.926573 0.926573 0.926573 0.926573 0 0 0.92655 0.92655 0.92655 0.92655 0 0 0.926519 0.926519 0.926519 0.926519 0 0 0.926495 0.926495 0.926495 0.926495 0 0 0.92648 0.92648 0.92648 0.92648 0 0 0.926475 0.926475 0.926475 0.926475 0 0 0.926474 0.926474 0.926474 0.926474 0 0 0.926479 0.926479 0.926479 0.926479 0 0 0.926537 0.926537 0.926537 0.926537 0 0 0.926741 0.926741 0.926741 0.926741 0 0 0.926866 0.926866 0.926866 0.926866 0 0 0.926776 0.926776 0.926776 0.926776 0 0 0.926686 0.926686 0.926686 0.926686 0 0 0.926603 0.926603 0.926603 0.926603 0 0 0.926503 0.926503 0.926503 0.926503 0 0 0.926413 0.926413 0.926413 0.926413 0 0 0.926343 0.926343 0.926343 0.926343 0 0 0.926298 0.926298 0.926298 0.926298 0 0 0.926277 0.926277 0.926277 0.926277 0 0 0.926266 0.926266 0.926266 0.926266 0 0 0.92624 0.92624 0.92624 0.92624 0 0 0.926186 0.926186 0.926186 0.926186 0 0 0.92612 0.92612 0.92612 0.92612 0 0 0.926052 0.926052 0.926052 0.926052 0 0 0.926007 0.926007 0.926007 0.926007 0 0 0.925996 0.925996 0.925996 0.925996 0 0 0.926138 0.926138 0.926138 0.926138 0 0 0.926561 0.926561 0.926561 0.926561 0 0 0.92631 0.92631 0.92631 0.92631 0 0 0.926176 0.926176 0.926176 0.926176 0 0 0.925989 0.925989 0.925989 0.925989 0 0 0.925813 0.925813 0.925813 0.925813 0 0 0.925702 0.925702 0.925702 0.925702 0 0 0.925711 0.925711 0.925711 0.925711 0 0 0.926214 0.926214 0.926214 0.926214 0 0 0.926104 0.926104 0.926104 0.926104 0 0 0.925643 0.925643 0.925643 0.925643 0 0 0.925026 0.925026 0.925026 0.925026 0 0 0.924486 0.924486 0.924486 0.924486 0 0 0.92422 0.92422 0.92422 0.92422 0 0 0.924411 0.924411 0.924411 0.924411 0 0 0.926554 0.926554 0.926554 0.926554 0 0 0.925719 0.925719 0.925719 0.925719 0 0 0.924643 0.924643 0.924643 0.924643 0 0 0.924035 0.924035 0.924035 0.924035 0 0 0.923594 0.923594 0.923594 0.923594 0 0 0.922035 0.922035 0.922035 0.922035 0 0 0.92683 0.92683 0.92683 0.92683 0 0 0.900301 0.900301 0.900301 0.900301 0 0 0.890257 0.890257 0.890257 0.890257 0 0 0.863542 0.863542 0.863542 0.863542 0 0 0.820513 0.820513 0.820513 0.820513 0 0 0.763938 0.763938 0.763938 0.763938 0 0 0.689423 0.689423 0.689423 0.689423 0 0 0.594534 0.594534 0.594534 0.594534 0 0 0.479855 0.479855 0.479855 0.479855 0 0 0.354056 0.354056 0.354056 0.354056 0 0 0.234465 0.234465 0.234465 0.234465 0 0 0.135019 0.135019 0.135019 0.135019 0 0 0.0666106 0.0666106 0.0666106 0.0666106 0 0 0.0286013 0.0286013 0.0286013 0.0286013 0 0 0.0111994 0.0111994 0.0111994 0.0111994 0 0 0.00418583 0.00418583 0.00418583 0.00418583 0 0 0.00153391 0.00153391 0.00153391 0.00153391 0 0 0.000557716 0.000557716 0.000557716 0.000557716 0 0 0.000202102 0.000202102 0.000202102 0.000202102 0 0 7.30978e-05 7.30978e-05 7.30978e-05 7.30978e-05 0 0 2.63966e-05 2.63966e-05 2.63966e-05 2.63966e-05 0 0 9.51586e-06 9.51586e-06 9.51586e-06 9.51586e-06 0 0 3.42351e-06 3.42351e-06 3.42351e-06 3.42351e-06 0 0 1.22871e-06 1.22871e-06 1.22871e-06 1.22871e-06 0 0 4.39728e-07 4.39728e-07 4.39728e-07 4.39728e-07 0 0 1.56843e-07 1.56843e-07 1.56843e-07 1.56843e-07 0 0 5.57269e-08 5.57269e-08 5.5727e-08 5.57269e-08 0 0 1.9713e-08 1.97129e-08 1.9713e-08 1.97131e-08 0 0 6.93893e-09 6.93899e-09 6.93888e-09 6.93893e-09 0 0 2.42907e-09 2.42913e-09 2.42911e-09 2.42909e-09 0 0 8.45291e-10 8.45316e-10 8.45354e-10 8.45486e-10 0 0 2.92265e-10 2.92296e-10 2.92359e-10 2.92291e-10 0 0 1.00274e-10 1.00336e-10 1.00484e-10 1.00514e-10 0 0 3.4265e-11 3.42585e-11 3.42263e-11 3.41445e-11 0 0 1.15938e-11 1.15441e-11 1.14452e-11 1.15432e-11 0 0 3.92547e-12 3.95198e-12 4.1166e-12 3.98529e-12 0 0 1.3656e-12 1.2921e-12 1.17948e-12 1.36829e-12 0 0 3.72183e-13 3.84735e-13 4.12241e-13 2.76133e-13 0 0 1.44486e-13 7.01866e-14 -7.18691e-14 1.21219e-13 0 0 6.19759e-14 -9.99635e-15 4.18605e-14 -2.52277e-13 0 0 3.42899e-14 1.15798e-13 -7.69195e-14 -1.08977e-13 0 0 -5.4373e-14 -1.05737e-13 -3.60472e-14 4.26692e-14 0 0 -3.97578e-14 -1.04407e-13 5.48391e-14 4.86681e-14 0 0 8.90715e-14 6.58231e-14 4.54609e-14 8.29773e-14 0 0 2.48348e-15 -5.04211e-14 -1.19761e-13 -4.62602e-14 0 0 1.00376e-13 -2.85528e-14 -8.74541e-14 -2.6474e-14 0 0 0 0 0 0 0
				</DataArray>
			</PointData>
			<CellData Scalars="Density">