<?xml version="1.0"?>
<VTKFile type="PolyData">
	<PolyData>
		<Piece NumberOfPoints="1206" NumberOfPolys="1000">
			<Points>
				<DataArray type="Float32" NumberOfComponents="3" format="ascii">
 0 0 0 0.02 0 0 0.04 0 0 0.06 0 0 0.08 0 0 0.1 0 0 0 0.005 0 0.02 0.005 0 0.04 0.005 0 0.06 0.005 0 0.08 0.005 0 0.1 0.005 0 0 0.01 0 0.02 0.01 0 0.04 0.01 0 0.06 0.01 0 0.08 0.01 0 0.1 0.01 0 0 0.015 0 0.02 0.015 0 0.04 0.015 0 0.06 0.015 0 0.08 0.015 0 0.1 0.015 0 0 0.02 0 0.02 0.02 0 0.04 0.02 0 0.06 0.02 0 0.08 0.02 0 0.1 0.02 0 0 0.025 0 0.02 0.025 0 0.04 0.025 0 0.06 0.025 0 0.08 0.025 0 0.1 0.025 0 0 0.03 0 0.02 0.03 0 0.04 0.03 0 0.06 0.03 0 0.08 0.03 0 0.1 0.03 0 0 0.035 0 0.02 0.035 0 0.04 0.035 0 0.06 0.035 0 0.08 0.035 0 0.1 0.035 0 0 0.04 0 0.02 0.04 0 0.04 0.04 0 0.06 0.04 0 0.08 0.04 0 0.1 0.04 0 0 0.045 0 0.02 0.045 0 0.04 0.045 0 0.06 0.045 0 0.08 0.045 0 0.1 0.045 0 0 0.05 0 0.02 0.05 0 0.04 0.05 0 0.06 0.05 0 0.08 0.05 0 0.1 0.05 0 0 0.055 0 0.02 0.055 0 0.04 0.055 0 0.06 0.055 0 0.08 0.055 0 0.1 0.055 0 0 0.06 0 0.02 0.06 0 0.04 0.06 0 0.06 0.06 0 0.08 0.06 0 0.1 0.06 0 0 0.065 0 0.02 0.065 0 0.04 0.065 0 0.06 0.065 0 0.08 0.065 0 0.1 0.065 0 0 0.07 0 0.02 0.07 0 0.04 0.07 0 0.06 0.07 0 0.08 0.07 0 0.1 0.07 0 0 0.075 0 0.02 0.075 0 0.04 0.075 0 0.06 0.075 0 0.08 0.075 0 0.1 0.075 0 0 0.08 0 0.02 0.08 0 0.04 0.08 0 0.06 0.08 0 0.08 0.08 0 0.1 0.08 0 0 0.085 0 0.02 0.085 0 0.04 0.085 0 0.06 0.085 0 0.08 0.085 0 0.1 0.085 0 0 0.09 0 0.02 0.09 0 0.04 0.09 0 0.06 0.09 0 0.08 0.09 0 0.1 0.09 0 0 0.095 0 0.02 0.095 0 0.04 0.095 0 0.06 0.095 0 0.08 0.095 0 0.1 0.095 0 0 0.1 0 0.02 0.1 0 0.04 0.1 0 0.06 0.1 0 0.08 0.1 0 0.1 0.1 0 0 0.105 0 0.02 0.105 0 0.04 0.105 0 0.06 0.105 0 0.08 0.105 0 0.1 0.105 0 0 0.11 0 0.02 0.11 0 0.04 0.11 0 0.06 0.11 0 0.08 0.11 0 0.1 0.11 0 0 0.115 0 0.02 0.115 0 0.04 0.115 0 0.06 0.115 0 0.08 0.115 0 0.1 0.115 0 0 0.12 0 0.02 0.12 0 0.04 0.12 0 0.06 0.12 0 0.08 0.12 0 0.1 0.12 0 0 0.125 0 0.02 0.125 0 0.04 0.125 0 0.06 0.125 0 0.08 0.125 0 0.1 0.125 0 0 0.13 0 0.02 0.13 0 0.04 0.13 0 0.06 0.13 0 0.08 0.13 0 0.1 0.13 0 0 0.135 0 0.02 0.135 0 0.04 0.135 0 0.06 0.135 0 0.08 0.135 0 0.1 0.135 0 0 0.14 0 0.02 0.14 0 0.04 0.14 0 0.06 0.14 0 0.08 0.14 0 0.1 0.14 0 0 0.145 0 0.02 0.145 0 0.04 0.145 0 0.06 0.145 0 0.08 0.145 0 0.1 0.145 0 0 0.15 0 0.02 0.15 0 0.04 0.15 0 0.06 0.15 0 0.08 0.15 0 0.1 0.15 0 0 0.155 0 0.02 0.155 0 0.04 0.155 0 0.06 0.155 0 0.08 0.155 0 0.1 0.155 0 0 0.16 0 0.02 0.16 0 0.04 0.16 0 0.06 0.16 0 0.08 0.16 0 0.1 0.16 0 0 0.165 0 0.02 0.165 0 0.04 0.165 0 0.06 0.165 0 0.08 0.165 0 0.1 0.165 0 0 0.17 0 0.02 0.17 0 0.04 0.17 0 0.06 0.17 0 0.08 0.17 0 0.1 0.17 0 0 0.175 0 0.02 0.175 0 0.04 0.175 0 0.06 0.175 0 0.08 0.175 0 0.1 0.175 0 0 0.18 0 0.02 0.18 0 0.04 0.18 0 0.06 0.18 0 0.08 0.18 0 0.1 0.18 0 0 0.185 0 0.02 0.185 0 0.04 0.185 0 0.06 0.185 0 0.08 0.185 0 0.1 0.185 0 0 0.19 0 0.02 0.19 0 0.04 0.19 0 0.06 0.19 0 0.08 0.19 0 0.1 0.19 0 0 0.195 0 0.02 0.195 0 0.04 0.195 0 0.06 0.195 0 0.08 0.195 0 0.1 0.195 0 0 0.2 0 0.02 0.2 0 0.04 0.2 0 0.06 0.2 0 0.08 0.2 0 0.1 0.2 0 0 0.205 0 0.02 0.205 0 0.04 0.205 0 0.06 0.205 0 0.08 0.205 0 0.1 0.205 0 0 0.21 0 0.02 0.21 0 0.04 0.21 0 0.06 0.21 0 0.08 0.21 0 0.1 0.21 0 0 0.215 0 0.02 0.215 0 0.04 0.215 0 0.06 0.215 0 0.08 0.215 0 0.1 0.215 0 0 0.22 0 0.02 0.22 0 0.04 0.22 0 0.06 0.22 0 0.08 0.22 0 0.1 0.22 0 0 0.225 0 0.02 0.225 0 0.04 0.225 0 0.06 0.225 0 0.08 0.225 0 0.1 0.225 0 0 0.23 0 0.02 0.23 0 0.04 0.23 0 0.06 0.23 0 0.08 0.23 0 0.1 0.23 0 0 0.235 0 0.02 0.235 0 0.04 0.235 0 0.06 0.235 0 0.08 0.235 0 0.1 0.235 0 0 0.240001 0 0.02 0.240001 0 0.04 0.240001 0 0.06 0.240001 0 0.08 0.240001 0 0.1 0.240001 0 0 0.245004 0 0.02 0.245004 0 0.04 0.245004 0 0.06 0.245004 0 0.08 0.245004 0 0.1 0.245004 0 0 0.25001 0 0.02 0.25001 0 0.04 0.25001 0 0.06 0.25001 0 0.08 0.25001 0 0.1 0.25001 0 0 0.255025 0 0.02 0.255025 0 0.04 0.255025 0 0.06 0.255025 0 0.08 0.255025 0 0.1 0.255025 0 0 0.260056 0 0.02 0.260056 0 0.04 0.260056 0 0.06 0.260056 0 0.08 0.260056 0 0.1 0.260056 0 0 0.265115 0 0.02 0.265115 0 0.04 0.265115 0 0.06 0.265115 0 0.08 0.265115 0 0.1 0.265115 0 0 0.270215 0 0.02 0.270215 0 0.04 0.270215 0 0.06 0.270215 0 0.08 0.270215 0 0.1 0.270215 0 0 0.275371 0 0.02 0.275371 0 0.04 0.275371 0 0.06 0.275371 0 0.08 0.275371 0 0.1 0.275371 0 0 0.280598 0 0.02 0.280598 0 0.04 0.280598 0 0.06 0.280598 0 0.08 0.280598 0 0.1 0.280598 0 0 0.285906 0 0.02 0.285906 0 0.04 0.285906 0 0.06 0.285906 0 0.08 0.285906 0 0.1 0.285906 0 0 0.291306 0 0.02 0.291306 0 0.04 0.291306 0 0.06 0.291306 0 0.08 0.291306 0 0.1 0.291306 0 0 0.296804 0 0.02 0.296804 0 0.04 0.296804 0 0.06 0.296804 0 0.08 0.296804 0 0.1 0.296804 0 0 0.302407 0 0.02 0.302407 0 0.04 0.302407 0 0.06 0.302407 0 0.08 0.302407 0 0.1 0.302407 0 0 0.308123 0 0.02 0.308123 0 0.04 0.308123 0 0.06 0.308123 0 0.08 0.308123 0 0.1 0.308123 0 0 0.313956 0 0.02 0.313956 0 0.04 0.313956 0 0.06 0.313956 0 0.08 0.313956 0 0.1 0.313956 0 0 0.319914 0 0.02 0.319914 0 0.04 0.319914 0 0.06 0.319914 0 0.08 0.319914 0 0.1 0.319914 0 0 0.326002 0 0.02 0.326002 0 0.04 0.326002 0 0.06 0.326002 0 0.08 0.326002 0 0.1 0.326002 0 0 0.332229 0 0.02 0.332229 0 0.04 0.332229 0 0.06 0.332229 0 0.08 0.332229 0 0.1 0.332229 0 0 0.338602 0 0.02 0.338602 0 0.04 0.338602 0 0.06 0.338602 0 0.08 0.338602 0 0.1 0.338602 0 0 0.345128 0 0.02 0.345128 0 0.04 0.345128 0 0.06 0.345128 0 0.08 0.345128 0 0.1 0.345128 0 0 0.351817 0 0.02 0.351817 0 0.04 0.351817 0 0.06 0.351817 0 0.08 0.351817 0 0.1 0.351817 0 0 0.358677 0 0.02 0.358677 0 0.04 0.358677 0 0.06 0.358677 0 0.08 0.358677 0 0.1 0.358677 0 0 0.36572 0 0.02 0.36572 0 0.04 0.36572 0 0.06 0.36572 0 0.08 0.36572 0 0.1 0.36572 0 0 0.372955 0 0.02 0.372955 0 0.04 0.372955 0 0.06 0.372955 0 0.08 0.372955 0 0.1 0.372955 0 0 0.380396 0 0.02 0.380396 0 0.04 0.380396 0 0.06 0.380396 0 0.08 0.380396 0 0.1 0.380396 0 0 0.388055 0 0.02 0.388055 0 0.04 0.388055 0 0.06 0.388055 0 0.08 0.388055 0 0.1 0.388055 0 0 0.395947 0 0.02 0.395947 0 0.04 0.395947 0 0.06 0.395947 0 0.08 0.395947 0 0.1 0.395947 0 0 0.404088 0 0.02 0.404088 0 0.04 0.404088 0 0.06 0.404088 0 0.08 0.404088 0 0.1 0.404088 0 0 0.412496 0 0.02 0.412496 0 0.04 0.412496 0 0.06 0.412496 0 0.08 0.412496 0 0.1 0.412496 0 0 0.421189 0 0.02 0.421189 0 0.04 0.421189 0 0.06 0.421189 0 0.08 0.421189 0 0.1 0.421189 0 0 0.430189 0 0.02 0.430189 0 0.04 0.430189 0 0.06 0.430189 0 0.08 0.430189 0 0.1 0.430189 0 0 0.43952 0 0.02 0.43952 0 0.04 0.43952 0 0.06 0.43952 0 0.08 0.43952 0 0.1 0.43952 0 0 0.449207 0 0.02 0.449207 0 0.04 0.449207 0 0.06 0.449207 0 0.08 0.449207 0 0.1 0.449207 0 0 0.459277 0 0.02 0.459277 0 0.04 0.459277 0 0.06 0.459277 0 0.08 0.459277 0 0.1 0.459277 0 0 0.469759 0 0.02 0.469759 0 0.04 0.469759 0 0.06 0.469759 0 0.08 0.469759 0 0.1 0.469759 0 0 0.480677 0 0.02 0.480677 0 0.04 0.480677 0 0.06 0.480677 0 0.08 0.480677 0 0.1 0.480677 0 0 0.492044 0 0.02 0.492044 0 0.04 0.492044 0 0.06 0.492044 0 0.08 0.492044 0 0.1 0.492044 0 0 0.503838 0 0.02 0.503838 0 0.04 0.503838 0 0.06 0.503838 0 0.08 0.503838 0 0.1 0.503838 0 0 0.515928 0 0.02 0.515928 0 0.04 0.515928 0 0.06 0.515928 0 0.08 0.515928 0 0.1 0.515928 0 0 0.528034 0 0.02 0.528034 0 0.04 0.528034 0 0.06 0.528034 0 0.08 0.528034 0 0.1 0.528034 0 0 0.540056 0 0.02 0.540056 0 0.04 0.540056 0 0.06 0.540056 0 0.08 0.540056 0 0.1 0.540056 0 0 0.551988 0 0.02 0.551988 0 0.04 0.551988 0 0.06 0.551988 0 0.08 0.551988 0 0.1 0.551988 0 0 0.56384 0 0.02 0.56384 0 0.04 0.56384 0 0.06 0.56384 0 0.08 0.56384 0 0.1 0.56384 0 0 0.575636 0 0.02 0.575636 0 0.04 0.575636 0 0.06 0.575636 0 0.08 0.575636 0 0.1 0.575636 0 0 0.587395 0 0.02 0.587395 0 0.04 0.587395 0 0.06 0.587395 0 0.08 0.587395 0 0.1 0.587395 0 0 0.599137 0 0.02 0.599137 0 0.04 0.599137 0 0.06 0.599137 0 0.08 0.599137 0 0.1 0.599137 0 0 0.61087 0 0.02 0.61087 0 0.04 0.61087 0 0.06 0.61087 0 0.08 0.61087 0 0.1 0.61087 0 0 0.622599 0 0.02 0.622599 0 0.04 0.622599 0 0.06 0.622599 0 0.08 0.622599 0 0.1 0.622599 0 0 0.634326 0 0.02 0.634326 0 0.04 0.634326 0 0.06 0.634326 0 0.08 0.634326 0 0.1 0.634326 0 0 0.646054 0 0.02 0.646054 0 0.04 0.646054 0 0.06 0.646054 0 0.08 0.646054 0 0.1 0.646054 0 0 0.657782 0 0.02 0.657782 0 0.04 0.657782 0 0.06 0.657782 0 0.08 0.657782 0 0.1 0.657782 0 0 0.669512 0 0.02 0.669512 0 0.04 0.669512 0 0.06 0.669512 0 0.08 0.669512 0 0.1 0.669512 0 0 0.681256 0 0.02 0.681256 0 0.04 0.681256 0 0.06 0.681256 0 0.08 0.681256 0 0.1 0.681256 0 0 0.683866 0 0.02 0.683866 0 0.04 0.683866 0 0.06 0.683866 0 0.08 0.683866 0 0.1 0.683866 0 0 0.686402 0 0.02 0.686402 0 0.04 0.686402 0 0.06 0.686402 0 0.08 0.686402 0 0.1 0.686402 0 0 0.688893 0 0.02 0.688893 0 0.04 0.688893 0 0.06 0.688893 0 0.08 0.688893 0 0.1 0.688893 0 0 0.691353 0 0.02 0.691353 0 0.04 0.691353 0 0.06 0.691353 0 0.08 0.691353 0 0.1 0.691353 0 0 0.693792 0 0.02 0.693792 0 0.04 0.693792 0 0.06 0.693792 0 0.08 0.693792 0 0.1 0.693792 0 0 0.696215 0 0.02 0.696215 0 0.04 0.696215 0 0.06 0.696215 0 0.08 0.696215 0 0.1 0.696215 0 0 0.698629 0 0.02 0.698629 0 0.04 0.698629 0 0.06 0.698629 0 0.08 0.698629 0 0.1 0.698629 0 0 0.70104 0 0.02 0.70104 0 0.04 0.70104 0 0.06 0.70104 0 0.08 0.70104 0 0.1 0.70104 0 0 0.703452 0 0.02 0.703452 0 0.04 0.703452 0 0.06 0.703452 0 0.08 0.703452 0 0.1 0.703452 0 0 0.705849 0 0.02 0.705849 0 0.04 0.705849 0 0.06 0.705849 0 0.08 0.705849 0 0.1 0.705849 0 0 0.708234 0 0.02 0.708234 0 0.04 0.708234 0 0.06 0.708234 0 0.08 0.708234 0 0.1 0.708234 0 0 0.710615 0 0.02 0.710615 0 0.04 0.710615 0 0.06 0.710615 0 0.08 0.710615 0 0.1 0.710615 0 0 0.712992 0 0.02 0.712992 0 0.04 0.712992 0 0.06 0.712992 0 0.08 0.712992 0 0.1 0.712992 0 0 0.715369 0 0.02 0.715369 0 0.04 0.715369 0 0.06 0.715369 0 0.08 0.715369 0 0.1 0.715369 0 0 0.717745 0 0.02 0.717745 0 0.04 0.717745 0 0.06 0.717745 0 0.08 0.717745 0 0.1 0.717745 0 0 0.720117 0 0.02 0.720117 0 0.04 0.720117 0 0.06 0.720117 0 0.08 0.720117 0 0.1 0.720117 0 0 0.722487 0 0.02 0.722487 0 0.04 0.722487 0 0.06 0.722487 0 0.08 0.722487 0 0.1 0.722487 0 0 0.724855 0 0.02 0.724
[...]
			<PointData Scalars="VitesseX">
				<DataArray Name="VitesseX" type="Float32" format="ascii">
 0 0 0 0 0 0 0 -7.44492e-16 7.33653e-15 1.77053e-15 7.44816e-15 0 0 4.78082e-16 5.23794e-15 5.67748e-15 6.67076e-15 0 0 1.40258e-15 4.7329e-15 6.82204e-15 7.44021e-15 0 0 1.69493e-15 4.55642e-15 5.26456e-15 8.93942e-15 0 0 -4.07762e-16 6.3002e-15 1.01209e-15 1.13008e-14 0 0 -1.13726e-15 6.28416e-15 -1.05038e-16 1.02121e-14 0 0 1.87168e-15 8.40163e-16 3.6073e-15 5.46924e-15 0 0 2.06015e-15 -9.64894e-16 3.77046e-15 2.05882e-15 0 0 -7.36892e-16 2.05994e-15 -1.48993e-15 3.48536e-15 0 0 -1.89316e-15 2.35568e-15 -1.50166e-15 3.32909e-15 0 0 -3.15082e-15 2.3659e-15 -1.89348e-15 5.61767e-15 0 0 -6.17401e-15 4.75015e-15 -6.14771e-15 6.50612e-15 0 0 -8.22401e-15 6.14979e-15 -6.9155e-15 3.00008e-15 0 0 -5.64383e-15 3.36832e-15 -4.79983e-15 3.61853e-15 0 0 -1.44228e-15 -4.38596e-15 4.04033e-15 1.46214e-15 0 0 -7.7271e-16 -5.9362e-15 8.85417e-15 -3.40988e-15 0 0 -1.63524e-15 1.78408e-15 2.10483e-15 -1.94084e-16 0 0 8.91594e-16 3.05014e-15 -1.5642e-16 7.50855e-16 0 0 4.20682e-15 3.66028e-16 1.73121e-15 -3.35041e-15 0 0 3.14437e-15 -2.36585e-15 7.22189e-15 -5.68212e-15 0 0 8.98996e-16 -2.82401e-15 5.86053e-15 -1.09367e-14 0 0 2.67766e-16 2.16941e-15 -8.15628e-15 -6.47391e-15 0 0 -3.63127e-15 8.70252e-15 -4.95592e-15 -8.13074e-15 0 0 -5.33508e-15 1.02794e-14 6.99228e-15 -1.55021e-14 0 0 -1.0659e-15 6.62708e-15 1.00313e-15 -6.23042e-15 0 0 -5.21709e-17 -4.42381e-16 1.61674e-15 -3.7403e-15 0 0 -1.91091e-15 -2.94907e-16 1.02552e-15 -2.11752e-15 0 0 -4.17768e-15 5.22491e-15 -4.31083e-15 5.17292e-16 0 0 -1.66044e-15 6.41391e-15 -9.18562e-15 3.40746e-15 0 0 7.32103e-15 -2.41962e-15 -8.14271e-15 1.22053e-15 0 0 1.56668e-14 -1.38407e-14 3.88951e-15 -1.41931e-14 0 0 8.82747e-15 3.31751e-15 -9.16283e-15 -1.18947e-14 0 0 5.4258e-15 9.87845e-15 1.45745e-15 -2.46766e-15 0 0 9.50927e-15 -1.18522e-17 2.46886e-14 7.36764e-15 0 0 4.56823e-15 2.4943e-15 1.61973e-14 2.18956e-14 0 0 1.08525e-14 5.89914e-15 4.58175e-15 8.2162e-15 0 0 5.65359e-15 4.99029e-15 4.55772e-15 -2.15314e-14 0 0 -1.71935e-14 -1.15847e-14 1.46343e-14 -3.28122e-14 0 0 -1.65682e-14 -2.26141e-14 -4.82398e-15 -1.95238e-14 0 0 -1.61503e-15 -2.47245e-14 -2.41993e-14 -5.26533e-16 0 0 1.41336e-16 -1.80628e-14 -1.55158e-14 -5.0671e-15 0 0 -2.98755e-15 -7.99188e-15 -2.17771e-14 2.46715e-16 0 0 -1.65595e-14 -9.88013e-15 -3.27356e-14 4.04757e-15 0 0 -3.66709e-14 -1.99122e-14 -2.84776e-14 -2.60925e-14 0 0 -1.61109e-14 -5.57356e-14 -1.12844e-14 -3.61981e-14 0 0 -4.9767e-15 -6.42197e-14 -6.95092e-15 -2.66985e-14 0 0 -1.80092e-14 -3.68039e-14 -9.6563e-15 -3.03308e-14 0 0 5.29784e-15 -3.26934e-14 -7.19085e-15 -3.43926e-14 0 0 9.25562e-15 -2.18359e-14 -3.14826e-15 -4.64526e-14 0 0 4.11574e-15 -1.37298e-15 2.89694e-15 -4.50189e-14 0 0 1.03228e-14 1.86059e-14 -1.90612e-14 -1.34324e-14 0 0 2.50023e-14 -1.24913e-14 -1.78324e-14 5.13114e-15 0 0 1.14886e-14 -4.52247e-14 4.20955e-14 -9.50056e-15 0 0 -3.55374e-14 -1.96239e-14 6.62467e-14 -9.2156e-15 0 0 -2.94126e-14 -3.63753e-16 3.75649e-14 6.66721e-15 0 0 1.0659e-14 -4.02052e-15 1.54363e-14 1.75339e-14 0 0 9.96899e-15 9.05999e-15 1.13351e-14 1.76598e-14 0 0 -6.96973e-16 1.14153e-14 1.92483e-14 7.32982e-15 0 0 3.40842e-14 -3.1539e-14 3.51894e-14 5.57668e-15 0 0 4.75038e-14 -1.30569e-14 2.98869e-14 2.58642e-15 0 0 1.63339e-14 2.42804e-14 1.05336e-14 -1.02846e-14 0 0 1.08886e-14 1.84877e-15 4.20387e-15 2.31711e-15 0 0 1.52577e-14 -1.64272e-15 1.6703e-14 1.51797e-14 0 0 4.13777e-15 7.69575e-15 2.63866e-14 1.15165e-14 0 0 1.33396e-14 -8.549e-15 2.63529e-14 2.08498e-14 0 0 -1.99521e-15 -6.49601e-16 1.80302e-14 6.88086e-16 0 0 -1.87303e-14 6.43498e-16 1.44656e-14 1.59846e-15 0 0 -1.11207e-14 1.2195e-14 1.56095e-14 1.33043e-14 0 0 2.70173e-15 2.72192e-14 3.61006e-14 -3.3126e-14 0 0 -6.19818e-15 2.43415e-14 4.38404e-14 -3.03637e-14 0 0 -1.40057e-14 1.40353e-14 2.9872e-14 1.34943e-14 0 0 1.44797e-14 -3.51385e-14 5.62961e-14 2.02751e-15 0 0 1.6545e-14 -3.59157e-14 4.30669e-14 -1.08596e-14 0 0 3.07017e-16 -1.54643e-14 2.26903e-14 7.38697e-15 0 0 -2.63224e-14 4.24865e-15 4.29206e-14 1.0152e-14 0 0 -2.92624e-14 1.40381e-14 4.64514e-14 -8.66914e-15 0 0 6.66538e-15 3.06832e-15 1.692e-14 -8.67645e-15 0 0 5.35043e-15 3.24144e-14 -2.99133e-14 2.40562e-14 0 0 -6.08493e-15 1.41587e-15 1.32524e-14 1.48954e-14 0 0 -8.33296e-15 -1.26542e-14 3.61585e-14 4.88435e-15 0 0 -2.35832e-14 1.98544e-14 7.60955e-15 3.06101e-14 0 0 -1.40616e-14 4.48691e-16 1.61135e-14 4.51868e-14 0 0 -6.18449e-16 1.24261e-15 7.94355e-15 1.37718e-14 0 0 1.04051e-14 8.6939e-15 6.86608e-16 -4.30288e-15 0 0 -4.85622e-16 7.77535e-15 -2.09899e-15 1.75677e-14 0 0 -1.59559e-14 2.22844e-14 4.81556e-15 -6.70897e-15 0 0 5.20999e-15 3.00539e-14 4.21157e-14 -1.10965e-14 0 0 3.28224e-14 4.50823e-14 8.69644e-14 2.3068e-14 0 0 6.23478e-14 1.01877e-13 1.12456e-13 5.04992e-14 0 0 9.6106e-14 1.58915e-13 1.56916e-13 8.23451e-14 0 0 1.14767e-13 1.95377e-13 1.89036e-13 1.12842e-13 0 0 1.1255e-13 1.99454e-13 1.74627e-13 1.16445e-13 0 0 9.22719e-14 1.43491e-13 1.45327e-13 8.18876e-14 0 0 4.62995e-14 8.07161e-14 8.64558e-14 3.79406e-14 0 0 2.72033e-15 1.03235e-14 7.6264e-15 1.37616e-16 0 0 -3.63093e-14 -6.6336e-14 -5.75067e-14 -3.16802e-14 0 0 -7.36561e-14 -1.09419e-13 -1.03995e-13 -6.02605e-14 0 0 -8.33432e-14 -1.13016e-13 -1.23387e-13 -8.45127e-14 0 0 -4.63949e-14 -7.95423e-14 -8.40399e-14 -8.62349e-14 0 0 -7.96907e-15 -3.4288e-14 -3.28626e-14 -4.99873e-14 0 0 6.41535e-14 1.12385e-13 9.21067e-14 6.04445e-14 0 0 6.88173e-14 1.52156e-13 1.1679e-13 1.08432e-13 0 0 8.98453e-14 2.02716e-13 1.66827e-13 1.04429e-13 0 0 1.20462e-13 2.33214e-13 2.26118e-13 1.22958e-13 0 0 1.72993e-13 2.42448e-13 3.0808e-13 1.91454e-13 0 0 1.92703e-13 2.39217e-13 2.93394e-13 1.84604e-13 0 0 8.11251e-14 3.70452e-14 5.99939e-14 6.38624e-14 0 0 -2.71446e-13 -4.96446e-13 -4.99568e-13 -2.5991e-13 0 0 -7.03479e-13 -1.1705e-12 -1.1858e-12 -7.21794e-13 0 0 -1.04814e-12 -1.76821e-12 -1.75339e-12 -1.08343e-12 0 0 -1.27957e-12 -2.14734e-12 -2.07778e-12 -1.3211e-12 0 0 -1.34567e-12 -2.26312e-12 -2.19333e-12 -1.4319e-12 0 0 -1.3265e-12 -2.19335e-12 -2.19724e-12 -1.36705e-12 0 0 -1.28622e-12 -2.06929e-12 -2.08534e-12 -1.27786e-12 0 0 -1.19778e-12 -1.89878e-12 -1.95046e-12 -1.19246e-12 0 0 -1.09216e-12 -1.73273e-12 -1.80072e-12 -1.09633e-12 0 0 -9.93077e-13 -1.62098e-12 -1.60884e-12 -1.0202e-12 0 0 -9.06709e-13 -1.48082e-12 -1.48189e-12 -9.45291e-13 0 0 -8.42449e-13 -1.36043e-12 -1.38645e-12 -8.2329e-13 0 0 -7.67049e-13 -1.28485e-12 -1.24419e-12 -7.16649e-13 0 0 -7.08677e-13 -1.19558e-12 -1.11026e-12 -6.95539e-13 0 0 -6.6983e-13 -1.1172e-12 -1.03289e-12 -6.839e-13 0 0 -6.32501e-13 -1.05718e-12 -9.49392e-13 -6.15888e-13 0 0 -5.9615e-13 -9.88628e-13 -8.9937e-13 -5.81818e-13 0 0 -5.4879e-13 -8.87539e-13 -8.8024e-13 -5.50676e-13 0 0 -5.13543e-13 -8.41088e-13 -8.16195e-13 -4.89646e-13 0 0 -4.72989e-13 -7.98696e-13 -7.91451e-13 -4.47497e-13 0 0 -4.36673e-13 -7.49612e-13 -7.57246e-13 -4.44855e-13 0 0 -4.45815e-13 -6.98722e-13 -7.52646e-13 -4.35975e-13 0 0 -4.21277e-13 -6.54823e-13 -7.25065e-13 -4.08815e-13 0 0 -4.01705e-13 -6.35642e-13 -6.72521e-13 -4.24084e-13 0 0 -3.91273e-13 -6.29061e-13 -6.42012e-13 -4.35138e-13 0 0 -3.78627e-13 -6.06592e-13 -5.99728e-13 -3.82838e-13 0 0 -3.56447e-13 -5.77314e-13 -6.03835e-13 -3.82522e-13 0 0 -3.22358e-13 -5.65417e-13 -5.49229e-13 -3.93348e-13 0 0 -3.00341e-13 -5.3166e-13 -5.19328e-13 -3.28247e-13 0 0 -2.86016e-13 -4.64707e-13 -5.56293e-13 -2.90947e-13 0 0 -2.98924e-13 -4.1753e-13 -5.16884e-13 -2.92605e-13 0 0 -2.80534e-13 -3.9215e-13 -4.65682e-13 -2.22649e-13 0 0 -2.46194e-13 -3.52086e-13 -4.05462e-13 -1.77497e-13 0 0 -2.30967e-13 -3.07076e-13 -3.20733e-13 -1.60546e-13 0 0 -2.02997e-13 -2.9016e-13 -2.96082e-13 -1.35196e-13 0 0 -2.11074e-13 -2.50078e-13 -2.75164e-13 -1.47191e-13 0 0 -2.20156e-13 -1.66915e-13 -2.36992e-13 -1.16214e-13 0 0 -1.70984e-13 -1.8342e-13 -1.86171e-13 -4.90086e-14 0 0 -1.12443e-13 -1.99234e-13 -1.5648e-13 -5.67608e-14 0 0 -3.89008e-14 -1.66756e-13 -1.08528e-13 -1.00696e-13 0 0 -7.28634e-14 -4.74928e-14 -8.82881e-14 -9.29187e-14 0 0 -1.1302e-13 4.35877e-14 -1.06105e-13 -3.29755e-14 0 0 -5.70702e-14 5.61813e-15 -1.2746e-14 8.40457e-14 0 0 -1.24821e-14 4.23332e-14 3.0771e-14 1.24603e-13 0 0 4.47093e-14 6.70736e-14 5.13859e-14 1.89476e-13 0 0 6.20322e-14 7.93057e-14 1.1802e-13 1.62832e-13 0 0 5.61906e-14 1.20048e-13 1.32409e-13 8.99524e-14 0 0 5.7824e-14 1.58562e-13 1.30018e-13 1.46497e-13 0 0 8.25085e-14 1.61364e-13 2.0665e-13 1.67825e-13 0 0 1.53963e-13 2.05594e-13 2.34312e-13 1.92088e-13 0 0 1.61793e-13 3.12787e-13 2.41081e-13 1.40344e-13 0 0 1.67428e-13 3.59942e-13 2.68103e-13 1.75473e-13 0 0 2.24971e-13 3.74737e-13 2.91204e-13 1.90443e-13 0 0 2.34358e-13 4.11157e-13 3.79952e-13 2.24891e-13 0 0 2.6002e-13 4.81105e-13 4.71206e-13 2.53924e-13 0 0 3.07644e-13 4.87801e-13 5.60069e-13 2.94504e-13 0 0 3.41371e-13 4.95767e-13 5.47683e-13 3.85045e-13 0 0 3.42055e-13 5.34911e-13 5.50819e-13 3.81386e-13 0 0 3.16819e-13 4.86235e-13 6.01886e-13 2.3195e-13 0 0 3.06472e-13 4.82637e-13 5.90808e-13 1.90099e-13 0 0 2.69585e-13 3.79645e-13 4.67156e-13 2.88717e-13 0 0 1.65299e-13 3.75103e-13 3.62084e-13 2.30399e-13 0 0 1.06749e-13 3.01701e-13 2.54699e-13 1.91036e-13 0 0 1.15755e-13 1.3181e-13 1.20938e-13 1.95906e-13 0 0 5.7128e-14 6.06843e-14 5.32957e-14 9.50632e-14 0 0 9.93113e-15 -1.11584e-15 1.63695e-14 2.59255e-15 0 0 6.40997e-15 -2.48116e-14 -5.89061e-14 -9.29869e-15 0 0 4.51174e-15 -6.50695e-14 -7.0171e-14 9.12028e-17 0 0 -7.52537e-15 -7.87435e-14 -6.26915e-14 -2.3991e-14 0 0 -1.3447e-14 -7.5306e-14 -6.75983e-14 -6.96643e-14 0 0 -1.06799e-14 -7.50229e-14 -6.44108e-14 -7.48509e-14 0 0 -9.94841e-15 -9.14758e-14 -7.85991e-14 -3.11696e-14 0 0 -3.13256e-14 -9.19322e-14 -5.66758e-14 -5.8748e-14 0 0 -4.48069e-14 -7.17389e-14 -5.80325e-14 -7.46321e-14 0 0 -4.89606e-14 -7.8915e-14 -6.11484e-14 -6.63257e-14 0 0 -7.29357e-14 -6.01409e-14 -2.83887e-14 -1.16108e-13 0 0 -6.93226e-14 -4.99053e-14 -4.48838e-14 -1.1148e-13 0 0 -5.65746e-14 -4.62e-14 -7.97641e-14 -8.31523e-14 0 0 -4.80873e-14 -5.7945e-14 -6.52201e-14 -8.57593e-14 0 0 -5.04758e-14 -6.4789e-14 -5.96452e-14 -9.47991e-14 0 0 -5.26444e-14 -5.4058e-14 -8.55098e-14 -7.47405e-14 0 0 -2.98434e-14 -7.44654e-14 -7.98468e-14 -5.03735e-14 0 0 -4.66654e-14 -3.15974e-14 -9.4919e-14 -6.05974e-14 0 0 -5.11623e-14 -1.99374e-14 -9.11949e-14 -6.23484e-14 0 0 -2.65072e-14 -3.59267e-14 -3.06839e-14 -8.02431e-14 0 0 -3.53932e-14 7.02451e-15 -4.74882e-15 -9.22285e-14 0 0 1.31846e-16 -1.17101e-14 -1.02775e-14 -6.60273e-14 0 0 4.66386e-14 -3.68118e-14 -1.07088e-16 -1.82863e-14 0 0 6.07776e-14 -2.7369e-14 6.49549e-14 -9.78341e-14 0 0 7.52789e-14 -1.74155e-14 6.47837e-14 -1.21315e-13 0 0 5.25253e-14 6.20619e-15 -3.45189e-14 1.46806e-15 0 0 2.74115e-14 3.8391e-15 -5.77487e-14 -4.16535e-15 0 0 0 0 0 0 0
				</DataArray>
				<DataArray Name="VitesseY" type="Float32" format="ascii">
 0 0 0 0 0 0 0 4.80595e-16 -1.1192e-15 3.14252e-15 7.88268e-15 0 0 4.06899e-15 3.16189e-15 5.34815e-15 1.32464e-14 0 0 4.96107e-15 8.3176e-15 7.91032e-15 8.26696e-15 0 0 1.24062e-14 9.32425e-15 2.54395e-15 2.4915e-15 0 0 4.67683e-15 7.05515e-15 3.44949e-15 -4.02375e-15 0 0 9.64358e-15 5.563e-15 3.87066e-15 3.15272e-15 0 0 6.00668e-15 5.8295e-16 -5.31855e-15 -7.51881e-15 0 0 5.75051e-15 5.06853e-15 3.96741e-15 -5.85844e-15 0 0 3.89144e-15 6.00082e-15 -2.34541e-15 -7.12969e-15 0 0 4.4393e-15 -1.18419e-15 7.98339e-15 1.2432e-14 0 0 9.66289e-16 1.16065e-15 -9.51075e-15 -5.91765e-15 0 0 1.03784e-14 7.33171e-15 1.06525e-14 -6.41431e-15 0 0 9.53198e-15 1.01097e-14 9.49019e-15 8.4166e-15 0 0 1.69739e-14 1.63821e-14 1.44115e-14 2.53979e-14 0 0 1.4178e-14 1.2692e-16 7.76514e-15 2.32582e-14 0 0 8.68937e-15 1.80863e-14 2.39988e-14 8.51737e-15 0 0 -2.38861e-15 1.53101e-14 1.28673e-14 1.44052e-14 0 0 1.15293e-14 9.13479e-15 7.08273e-15 7.14836e-16 0 0 1.24648e-14 1.74436e-14 1.59717e-14 1.39358e-14 0 0 9.46826e-15 -1.06122e-14 2.58974e-15 1.78439e-14 0 0 5.44375e-15 1.51086e-14 -5.00094e-15 -4.62794e-14 0 0 1.55503e-14 2.32342e-14 7.30703e-15 1.04598e-14 0 0 -9.29697e-15 -6.75862e-15 4.76674e-14 5.1276e-14 0 0 7.86262e-15 4.87221e-15 4.14896e-15 1.92291e-14 0 0 1.96852e-14 2.51484e-14 -1.27553e-14 -1.48552e-14 0 0 2.03597e-14 -9.42143e-15 2.55538e-15 1.74007e-14 0 0 -9.44883e-15 1.36818e-14 -3.1728e-16 -1.05506e-14 0 0 2.59307e-14 1.60188e-14 3.04293e-14 3.01652e-14 0 0 2.06433e-14 4.53133e-14 1.57291e-14 8.73693e-15 0 0 4.97842e-14 2.54327e-14 2.36769e-14 2.65668e-14 0 0 3.5147e-14 4.70657e-14 5.10881e-14 3.4889e-14 0 0 5.1423e-14 8.08238e-14 9.28105e-14 6.61417e-14 0 0 1.13147e-13 9.61772e-14 1.52616e-13 2.59597e-13 0 0 4.43945e-13 4.37482e-13 4.33968e-13 4.5961e-13 0 0 2.56678e-12 2.56326e-12 2.54237e-12 2.54166e-12 0 0 1.49459e-11 1.49883e-11 1.49762e-11 1.48758e-11 0 0 8.33069e-11 8.32401e-11 8.32486e-11 8.32294e-11 0 0 4.41802e-10 4.41711e-10 4.41676e-10 4.4169e-10 0 0 2.23059e-09 2.23064e-09 2.23055e-09 2.23052e-09 0 0 1.07015e-08 1.07015e-08 1.07015e-08 1.07015e-08 0 0 4.86824e-08 4.86824e-08 4.86824e-08 4.86824e-08 0 0 2.09512e-07 2.09512e-07 2.09512e-07 2.09512e-07 0 0 8.50827e-07 8.50826e-07 8.50826e-07 8.50826e-07 0 0 3.25086e-06 3.25086e-06 3.25086e-06 3.25086e-06 0 0 1.16473e-05 1.16473e-05 1.16473e-05 1.16473e-05 0 0 3.89789e-05 3.89789e-05 3.89789e-05 3.89789e-05 0 0 0.000121296 0.000121296 0.000121296 0.000121296 0 0 0.000349131 0.000349131 0.000349131 0.000349131 0 0 0.000923977 0.000923977 0.000923977 0.000923977 0 0 0.00223417 0.00223417 0.00223417 0.00223417 0 0 0.00490688 0.00490688 0.00490688 0.00490688 0 0 0.00975053 0.00975053 0.00975053 0.00975053 0 0 0.0175268 0.0175268 0.0175268 0.0175268 0 0 0.0286384 0.0286384 0.0286384 0.0286384 0 0 0.0429603 0.0429603 0.0429603 0.0429603 0 0 0.0599563 0.0599563 0.0599563 0.0599563 0 0 0.0789634 0.0789634 0.0789634 0.0789634 0 0 0.0994226 0.0994226 0.0994226 0.0994226 0 0 0.120958 0.120958 0.120958 0.120958 0 0 0.143351 0.143351 0.143351 0.143351 0 0 0.166485 0.166485 0.166485 0.166485 0 0 0.190304 0.190304 0.190304 0.190304 0 0 0.214781 0.214781 0.214781 0.214781 0 0 0.239912 0.239912 0.239912 0.239912 0 0 0.265702 0.265702 0.265702 0.265702 0 0 0.292165 0.292165 0.292165 0.292165 0 0 0.319321 0.319321 0.319321 0.319321 0 0 0.347196 0.347196 0.347196 0.347196 0 0 0.375818 0.375818 0.375818 0.375818 0 0 0.405223 0.405223 0.405223 0.405223 0 0 0.435446 0.435446 0.435446 0.435446 0 0 0.46653 0.46653 0.46653 0.46653 0 0 0.498518 0.498518 0.498518 0.498518 0 0 0.531459 0.531459 0.531459 0.531459 0 0 0.565401 0.565401 0.565401 0.565401 0 0 0.600395 0.600395 0.600395 0.600395 0 0 0.63649 0.63649 0.63649 0.63649 0 0 0.673726 0.673726 0.673726 0.673726 0 0 0.712125 0.712125 0.712125 0.712125 0 0 0.751673 0.751673 0.751673 0.751673 0 0 0.792267 0.792267 0.792267 0.792267 0 0 0.833616 0.833616 0.833616 0.833616 0 0 0.874979 0.874979 0.874979 0.874979 0 0 0.914466 0.914466 0.914466 0.914466 0 0 0.947116 0.947116 0.947116 0.947116 0 0 0.960341 0.960341 0.960341 0.960341 0 0 0.953007 0.953007 0.953007 0.953007 0 0 0.945801 0.945801 0.945801 0.945801 0 0 0.938842 0.938842 0.938842 0.938842 0 0 0.933569 0.933569 0.933569 0.933569 0 0 0.93023 0.93023 0.93023 0.93023 0 0 0.928415 0.928415 0.928415 0.928415 0 0 0.927534 0.927534 0.927534 0.927534 0 0 0.927118 0.927118 0.927118 0.927118 0 0 0.926907 0.926907 0.926907 0.926907 0 0 0.926788 0.926788 0.926788 0.926788 0 0 0.926715 0.926715 0.926715 0.926715 0 0 0.926656 0.926656 0.926656 0.926656 0 0 0.926618 0.926618 0.926618 0.926618 0 0 0.926662 0.926662 0.926662 0.926662 0 0 0.926642 0.926642 0.926642 0.926642 0 0 0.926623 0.926623 0.926623 0.926623 0 0 0.926615 0.926615 0.926615 0.926615 0 0 0.92662 0.92662 0.92662 0.92662 0 0 0.92669 0.92669 0.92669 0.92669 0 0 0.9268 0.9268 0.9268 0.9268 0 0 0.926799 0.926799 0.926799 0.926799 0 0 0.926784 0.926784 0.926784 0.926784 0 0 0.926755 0.926755 0.926755 0.926755 0 0 0.926719 0.926719 0.926719 0.926719 0 0 0.926675 0.926675 0.926675 0.926675 0 0 0.926631 0.926631 0.926631 0.926631 0 0 0.926584 0.926584 0.926584 0.926584 0 0 0.926539 0.926539 0.926539 0.926539 0 0 0.926498 0.926498 0.926498 0.926498 0 0 0.926462 0.926462 0.926462 0.926462 0 0 0.926432 0.926432 0.926432 0.926432 0 0 0.926409 0.926409 0.926409 0.926409 0 0 0.926393 0.926393 0.926393 0.926393 0 0 0.926384 0.926384 0.926384 0.926384 0 0 0.926381 0.926381 0.926381 0.926381 0 0 0.926402 0.926402 0.926402 0.926402 0 0 0.926477 0.926477 0.926477 0.926477 0 0 0.926513 0.926513 0.926513 0.926513 0 0 0.926493 0.926493 0.926493 0.926493 0 0 0.926453 0.926453 0.926453 0.926453 0 0 0.926415 0.926415 0.926415 0.926415 0 0 0.926367 0.926367 0.926367 0.926367 0 0 0.926308 0.926308 0.926308 0.926308 0 0 0.926247 0.926247 0.926247 0.926247 0 0 0.926182 0.926182 0.926182 0.926182 0 0 0.926119 0.926119 0.926119 0.926119 0 0 0.926061 0.926061 0.926061 0.926061 0 0 0.926014 0.926014 0.926014 0.926014 0 0 0.925983 0.925983 0.925983 0.925983 0 0 0.925976 0.925976 0.925976 0.925976 0 0 0.926005 0.926005 0.926005 0.926005 0 0 0.926272 0.926272 0.926272 0.926272 0 0 0.926513 0.926513 0.926513 0.926513 0 0 0.926406 0.926406 0.926406 0.926406 0 0 0.926394 0.926394 0.926394 0.926394 0 0 0.926373 0.926373 0.926373 0.926373 0 0 0.926325 0.926325 0.926325 0.926325 0 0 0.926269 0.926269 0.926269 0.926269 0 0 0.92621 0.92621 0.92621 0.92621 0 0 0.926161 0.926161 0.926161 0.926161 0 0 0.926142 0.926142 0.926142 0.926142 0 0 0.926176 0.926176 0.926176 0.926176 0 0 0.926535 0.926535 0.926535 0.926535 0 0 0.926275 0.926275 0.926275 0.926275 0 0 0.926001 0.926001 0.926001 0.926001 0 0 0.925586 0.925586 0.925586 0.925586 0 0 0.925295 0.925295 0.925295 0.925295 0 0 0.925224 0.925224 0.925224 0.925224 0 0 0.926479 0.926479 0.926479 0.926479 0 0 0.926789 0.926789 0.926789 0.926789 0 0 0.926131 0.926131 0.926131 0.926131 0 0 0.923415 0.923415 0.923415 0.923415 0 0 0.923464 0.923464 0.923464 0.923464 0 0 0.919735 0.919735 0.919735 0.919735 0 0 0.920467 0.920467 0.920467 0.920467 0 0 0.905869 0.905869 0.905869 0.905869 0 0 0.902365 0.902365 0.902365 0.902365 0 0 0.854731 0.854731 0.854731 0.854731 0 0 0.843981 0.843981 0.843981 0.843981 0 0 0.761554 0.761554 0.761554 0.761554 0 0 0.711284 0.711284 0.711284 0.711284 0 0 0.601345 0.601345 0.601345 0.601345 0 0 0.496469 0.496469 0.496469 0.496469 0 0 0.370107 0.370107 0.370107 0.370107 0 0 0.250001 0.250001 0.250001 0.250001 0 0 0.146922 0.146922 0.146922 0.146922 0 0 0.0739985 0.0739985 0.0739985 0.0739985 0 0 0.0322684 0.0322684 0.0322684 0.0322684 0 0 0.0127441 0.0127441 0.0127441 0.0127441 0 0 0.00478118 0.00478118 0.00478118 0.00478118 0 0 0.00175475 0.00175475 0.00175475 0.00175475 0 0 0.000638527 0.000638527 0.000638527 0.000638527 0 0 0.00023159 0.00023159 0.00023159 0.00023159 0 0 8.38792e-05 8.38792e-05 8.38792e-05 8.38792e-05 0 0 3.03549e-05 3.03549e-05 3.03549e-05 3.03549e-05 0 0 1.09766e-05 1.09766e-05 1.09766e-05 1.09766e-05 0 0 3.96558e-06 3.96558e-06 3.96558e-06 3.96558e-06 0 0 1.431e-06 1.431e-06 1.431e-06 1.431e-06 0 0 5.15627e-07 5.15627e-07 5.15627e-07 5.15627e-07 0 0 1.85457e-07 1.85456e-07 1.85456e-07 1.85457e-07 0 0 6.65572e-08 6.65573e-08 6.65573e-08 6.65572e-08 0 0 2.38245e-08 2.38245e-08 2.38244e-08 2.38245e-08 0 0 8.50227e-09 8.50229e-09 8.50231e-09 8.50232e-09 0 0 3.02371e-09 3.0238e-09 3.02389e-09 3.02377e-09 0 0 1.07126e-09 1.0712e-09 1.07117e-09 1.07129e-09 0 0 3.7771e-10 3.77805e-10 3.78011e-10 3.78058e-10 0 0 1.32601e-10 1.32641e-10 1.3271e-10 1.32719e-10 0 0 4.64157e-11 4.64416e-11 4.62755e-11 4.63493e-11 0 0 1.6041e-11 1.61008e-11 1.6207e-11 1.63651e-11 0 0 5.58695e-12 5.62156e-12 5.81289e-12 5.59729e-12 0 0 1.92627e-12 1.98928e-12 1.83725e-12 1.95797e-12 0 0 6.7998e-13 6.20026e-13 4.68739e-13 4.41786e-13 0 0 1.14935e-13 6.56879e-14 1.14464e-13 2.50601e-14 0 0 0 0 0 0 0
				</DataArray>
			</PointData>
			<CellData Scalars="Density">
				<DataArray Name="Density" type="Float32" format="ascii">