<?xml version="1.0"?>
<VTKFile type="PolyData">
	<PolyData>
		<Piece NumberOfPoints="1206" NumberOfPolys="1000">
			<Points>
				<DataArray type="Float32" NumberOfComponents="3" format="ascii">
 0 0 0 0.02 0 0 0.04 0 0 0.06 0 0 0.08 0 0 0.1 0 0 0 0.005 0 0.02 0.005 0 0.04 0.005 0 0.06 0.005 0 0.08 0.005 0 0.1 0.005 0 0 0.01 0 0.02 0.01 0 0.04 0.01 0 0.06 0.01 0 0.08 0.01 0 0.1 0.01 0 0 0.015 0 0.02 0.015 0 0.04 0.015 0 0.06 0.015 0 0.08 0.015 0 0.1 0.015 0 0 0.02 0 0.02 0.02 0 0.04 0.02 0 0.06 0.02 0 0.08 0.02 0 0.1 0.02 0 0 0.025 0 0.02 0.025 0 0.04 0.025 0 0.06 0.025 0 0.08 0.025 0 0.1 0.025 0 0 0.03 0 0.02 0.03 0 0.04 0.03 0 0.06 0.03 0 0.08 0.03 0 0.1 0.03 0 0 0.035 0 0.02 0.035 0 0.04 0.035 0 0.06 0.035 0 0.08 0.035 0 0.1 0.035 0 0 0.04 0 0.02 0.04 0 0.04 0.04 0 0.06 0.04 0 0.08 0.04 0 0.1 0.04 0 0 0.045 0 0.02 0.045 0 0.04 0.045 0 0.06 0.045 0 0.08 0.045 0 0.1 0.045 0 0 0.05 0 0.02 0.05 0 0.04 0.05 0 0.06 0.05 0 0.08 0.05 0 0.1 0.05 0 0 0.055 0 0.02 0.055 0 0.04 0.055 0 0.06 0.055 0 0.08 0.055 0 0.1 0.055 0 0 0.06 0 0.02 0.06 0 0.04 0.06 0 0.06 0.06 0 0.08 0.06 0 0.1 0.06 0 0 0.065 0 0.02 0.065 0 0.04 0.065 0 0.06 0.065 0 0.08 0.065 0 0.1 0.065 0 0 0.07 0 0.02 0.07 0 0.04 0.07 0 0.06 0.07 0 0.08 0.07 0 0.1 0.07 0 0 0.075 0 0.02 0.075 0 0.04 0.075 0 0.06 0.075 0 0.08 0.075 0 0.1 0.075 0 0 0.08 0 0.02 0.08 0 0.04 0.08 0 0.06 0.08 0 0.08 0.08 0 0.1 0.08 0 0 0.085 0 0.02 0.085 0 0.04 0.085 0 0.06 0.085 0 0.08 0.085 0 0.1 0.085 0 0 0.09 0 0.02 0.09 0 0.04 0.09 0 0.06 0.09 0 0.08 0.09 0 0.1 0.09 0 0 0.095 0 0.02 0.095 0 0.04 0.095 0 0.06 0.095 0 0.08 0.095 0 0.1 0.095 0 0 0.1 0 0.02 0.1 0 0.04 0.1 0 0.06 0.1 0 0.08 0.1 0 0.1 0.1 0 0 0.105 0 0.02 0.105 0 0.04 0.105 0 0.06 0.105 0 0.08 0.105 0 0.1 0.105 0 0 0.11 0 0.02 0.11 0 0.04 0.11 0 0.06 0.11 0 0.08 0.11 0 0.1 0.11 0 0 0.115 0 0.02 0.115 0 0.04 0.115 0 0.06 0.115 0 0.08 0.115 0 0.1 0.115 0 0 0.12 0 0.02 0.12 0 0.04 0.12 0 0.06 0.12 0 0.08 0.12 0 0.1 0.12 0 0 0.125 0 0.02 0.125 0 0.04 0.125 0 0.06 0.125 0 0.08 0.125 0 0.1 0.125 0 0 0.13 0 0.02 0.13 0 0.04 0.13 0 0.06 0.13 0 0.08 0.13 0 0.1 0.13 0 0 0.135 0 0.02 0.135 0 0.04 0.135 0 0.06 0.135 0 0.08 0.135 0 0.1 0.135 0 0 0.14 0 0.02 0.14 0 0.04 0.14 0 0.06 0.14 0 0.08 0.14 0 0.1 0.14 0 0 0.145 0 0.02 0.145 0 0.04 0.145 0 0.06 0.145 0 0.08 0.145 0 0.1 0.145 0 0 0.15 0 0.02 0.15 0 0.04 0.15 0 0.06 0.15 0 0.08 0.15 0 0.1 0.15 0 0 0.155 0 0.02 0.155 0 0.04 0.155 0 0.06 0.155 0 0.08 0.155 0 0.1 0.155 0 0 0.16 0 0.02 0.16 0 0.04 0.16 0 0.06 0.16 0 0.08 0.16 0 0.1 0.16 0 0 0.165 0 0.02 0.165 0 0.04 0.165 0 0.06 0.165 0 0.08 0.165 0 0.1 0.165 0 0 0.17 0 0.02 0.17 0 0.04 0.17 0 0.06 0.17 0 0.08 0.17 0 0.1 0.17 0 0 0.175 0 0.02 0.175 0 0.04 0.175 0 0.06 0.175 0 0.08 0.175 0 0.1 0.175 0 0 0.18 0 0.02 0.18 0 0.04 0.18 0 0.06 0.18 0 0.08 0.18 0 0.1 0.18 0 0 0.185 0 0.02 0.185 0 0.04 0.185 0 0.06 0.185 0 0.08 0.185 0 0.1 0.185 0 0 0.19 0 0.02 0.19 0 0.04 0.19 0 0.06 0.19 0 0.08 0.19 0 0.1 0.19 0 0 0.195 0 0.02 0.195 0 0.04 0.195 0 0.06 0.195 0 0.08 0.195 0 0.1 0.195 0 0 0.2 0 0.02 0.2 0 0.04 0.2 0 0.06 0.2 0 0.08 0.2 0 0.1 0.2 0 0 0.205 0 0.02 0.205 0 0.04 0.205 0 0.06 0.205 0 0.08 0.205 0 0.1 0.205 0 0 0.21 0 0.02 0.21 0 0.04 0.21 0 0.06 0.21 0 0.08 0.21 0 0.1 0.21 0 0 0.215 0 0.02 0.215 0 0.04 0.215 0 0.06 0.215 0 0.08 0.215 0 0.1 0.215 0 0 0.22 0 0.02 0.22 0 0.04 0.22 0 0.06 0.22 0 0.08 0.22 0 0.1 0.22 0 0 0.225 0 0.02 0.225 0 0.04 0.225 0 0.06 0.225 0 0.08 0.225 0 0.1 0.225 0 0 0.23 0 0.02 0.23 0 0.04 0.23 0 0.06 0.23 0 0.08 0.23 0 0.1 0.23 0 0 0.235 0 0.02 0.235 0 0.04 0.235 0 0.06 0.235 0 0.08 0.235 0 0.1 0.235 0 0 0.24 0 0.02 0.24 0 0.04 0.24 0 0.06 0.24 0 0.08 0.24 0 0.1 0.24 0 0 0.245 0 0.02 0.245 0 0.04 0.245 0 0.06 0.245 0 0.08 0.245 0 0.1 0.245 0 0 0.25 0 0.02 0.25 0 0.04 0.25 0 0.06 0.25 0 0.08 0.25 0 0.1 0.25 0 0 0.255 0 0.02 0.255 0 0.04 0.255 0 0.06 0.255 0 0.08 0.255 0 0.1 0.255 0 0 0.26 0 0.02 0.26 0 0.04 0.26 0 0.06 0.26 0 0.08 0.26 0 0.1 0.26 0 0 0.265 0 0.02 0.265 0 0.04 0.265 0 0.06 0.265 0 0.08 0.265 0 0.1 0.265 0 0 0.27 0 0.02 0.27 0 0.04 0.27 0 0.06 0.27 0 0.08 0.27 0 0.1 0.27 0 0 0.275 0 0.02 0.275 0 0.04 0.275 0 0.06 0.275 0 0.08 0.275 0 0.1 0.275 0 0 0.28 0 0.02 0.28 0 0.04 0.28 0 0.06 0.28 0 0.08 0.28 0 0.1 0.28 0 0 0.285 0 0.02 0.285 0 0.04 0.285 0 0.06 0.285 0 0.08 0.285 0 0.1 0.285 0 0 0.29 0 0.02 0.29 0 0.04 0.29 0 0.06 0.29 0 0.08 0.29 0 0.1 0.29 0 0 0.295 0 0.02 0.295 0 0.04 0.295 0 0.06 0.295 0 0.08 0.295 0 0.1 0.295 0 0 0.3 0 0.02 0.3 0 0.04 0.3 0 0.06 0.3 0 0.08 0.3 0 0.1 0.3 0 0 0.305 0 0.02 0.305 0 0.04 0.305 0 0.06 0.305 0 0.08 0.305 0 0.1 0.305 0 0 0.31 0 0.02 0.31 0 0.04 0.31 0 0.06 0.31 0 0.08 0.31 0 0.1 0.31 0 0 0.315 0 0.02 0.315 0 0.04 0.315 0 0.06 0.315 0 0.08 0.315 0 0.1 0.315 0 0 0.32 0 0.02 0.32 0 0.04 0.32 0 0.06 0.32 0 0.08 0.32 0 0.1 0.32 0 0 0.325 0 0.02 0.325 0 0.04 0.325 0 0.06 0.325 0 0.08 0.325 0 0.1 0.325 0 0 0.33 0 0.02 0.33 0 0.04 0.33 0 0.06 0.33 0 0.08 0.33 0 0.1 0.33 0 0 0.335 0 0.02 0.335 0 0.04 0.335 0 0.06 0.335 0 0.08 0.335 0 0.1 0.335 0 0 0.34 0 0.02 0.34 0 0.04 0.34 0 0.06 0.34 0 0.08 0.34 0 0.1 0.34 0 0 0.345 0 0.02 0.345 0 0.04 0.345 0 0.06 0.345 0 0.08 0.345 0 0.1 0.345 0 0 0.35 0 0.02 0.35 0 0.04 0.35 0 0.06 0.35 0 0.08 0.35 0 0.1 0.35 0 0 0.355 0 0.02 0.355 0 0.04 0.355 0 0.06 0.355 0 0.08 0.355 0 0.1 0.355 0 0 0.36 0 0.02 0.36 0 0.04 0.36 0 0.06 0.36 0 0.08 0.36 0 0.1 0.36 0 0 0.365 0 0.02 0.365 0 0.04 0.365 0 0.06 0.365 0 0.08 0.365 0 0.1 0.365 0 0 0.37 0 0.02 0.37 0 0.04 0.37 0 0.06 0.37 0 0.08 0.37 0 0.1 0.37 0 0 0.375 0 0.02 0.375 0 0.04 0.375 0 0.06 0.375 0 0.08 0.375 0 0.1 0.375 0 0 0.38 0 0.02 0.38 0 0.04 0.38 0 0.06 0.38 0 0.08 0.38 0 0.1 0.38 0 0 0.385 0 0.02 0.385 0 0.04 0.385 0 0.06 0.385 0 0.08 0.385 0 0.1 0.385 0 0 0.39 0 0.02 0.39 0 0.04 0.39 0 0.06 0.39 0 0.08 0.39 0 0.1 0.39 0 0 0.395002 0 0.02 0.395002 0 0.04 0.395002 0 0.06 0.395002 0 0.08 0.395002 0 0.1 0.395002 0 0 0.400007 0 0.02 0.400007 0 0.04 0.400007 0 0.06 0.400007 0 0.08 0.400007 0 0.1 0.400007 0 0 0.405027 0 0.02 0.405027 0 0.04 0.405027 0 0.06 0.405027 0 0.08 0.405027 0 0.1 0.405027 0 0 0.410084 0 0.02 0.410084 0 0.04 0.410084 0 0.06 0.410084 0 0.08 0.410084 0 0.1 0.410084 0 0 0.41522 0 0.02 0.41522 0 0.04 0.41522 0 0.06 0.41522 0 0.08 0.41522 0 0.1 0.41522 0 0 0.420495 0 0.02 0.420495 0 0.04 0.420495 0 0.06 0.420495 0 0.08 0.420495 0 0.1 0.420495 0 0 0.425972 0 0.02 0.425972 0 0.04 0.425972 0 0.06 0.425972 0 0.08 0.425972 0 0.1 0.425972 0 0 0.431709 0 0.02 0.431709 0 0.04 0.431709 0 0.06 0.431709 0 0.08 0.431709 0 0.1 0.431709 0 0 0.43776 0 0.02 0.43776 0 0.04 0.43776 0 0.06 0.43776 0 0.08 0.43776 0 0.1 0.43776 0 0 0.444178 0 0.02 0.444178 0 0.04 0.444178 0 0.06 0.444178 0 0.08 0.444178 0 0.1 0.444178 0 0 0.451025 0 0.02 0.451025 0 0.04 0.451025 0 0.06 0.451025 0 0.08 0.451025 0 0.1 0.451025 0 0 0.458372 0 0.02 0.458372 0 0.04 0.458372 0 0.06 0.458372 0 0.08 0.458372 0 0.1 0.458372 0 0 0.466308 0 0.02 0.466308 0 0.04 0.466308 0 0.06 0.466308 0 0.08 0.466308 0 0.1 0.466308 0 0 0.474945 0 0.02 0.474945 0 0.04 0.474945 0 0.06 0.474945 0 0.08 0.474945 0 0.1 0.474945 0 0 0.484418 0 0.02 0.484418 0 0.04 0.484418 0 0.06 0.484418 0 0.08 0.484418 0 0.1 0.484418 0 0 0.494878 0 0.02 0.494878 0 0.04 0.494878 0 0.06 0.494878 0 0.08 0.494878 0 0.1 0.494878 0 0 0.506423 0 0.02 0.506423 0 0.04 0.506423 0 0.06 0.506423 0 0.08 0.506423 0 0.1 0.506423 0 0 0.518756 0 0.02 0.518756 0 0.04 0.518756 0 0.06 0.518756 0 0.08 0.518756 0 0.1 0.518756 0 0 0.530987 0 0.02 0.530987 0 0.04 0.530987 0 0.06 0.530987 0 0.08 0.530987 0 0.1 0.530987 0 0 0.542971 0 0.02 0.542971 0 0.04 0.542971 0 0.06 0.542971 0 0.08 0.542971 0 0.1 0.542971 0 0 0.554798 0 0.02 0.554798 0 0.04 0.554798 0 0.06 0.554798 0 0.08 0.554798 0 0.1 0.554798 0 0 0.566589 0 0.02 0.566589 0 0.04 0.566589 0 0.06 0.566589 0 0.08 0.566589 0 0.1 0.566589 0 0 0.569205 0 0.02 0.569205 0 0.04 0.569205 0 0.06 0.569205 0 0.08 0.569205 0 0.1 0.569205 0 0 0.571747 0 0.02 0.571747 0 0.04 0.571747 0 0.06 0.571747 0 0.08 0.571747 0 0.1 0.571747 0 0 0.574243 0 0.02 0.574243 0 0.04 0.574243 0 0.06 0.574243 0 0.08 0.574243 0 0.1 0.574243 0 0 0.576708 0 0.02 0.576708 0 0.04 0.576708 0 0.06 0.576708 0 0.08 0.576708 0 0.1 0.576708 0 0 0.579152 0 0.02 0.579152 0 0.04 0.579152 0 0.06 0.579152 0 0.08 0.579152 0 0.1 0.579152 0 0 0.58158 0 0.02 0.58158 0 0.04 0.58158 0 0.06 0.58158 0 0.08 0.58158 0 0.1 0.58158 0 0 0.584 0 0.02 0.584 0 0.04 0.584 0 0.06 0.584 0 0.08 0.584 0 0.1 0.584 0 0 0.586417 0 0.02 0.586417 0 0.04 0.586417 0 0.06 0.586417 0 0.08 0.586417 0 0.1 0.586417 0 0 0.588835 0 0.02 0.588835 0 0.04 0.588835 0 0.06 0.588835 0 0.08 0.588835 0 0.1 0.588835 0 0 0.591239 0 0.02 0.591239 0 0.04 0.591239 0 0.06 0.591239 0 0.08 0.591239 0 0.1 0.591239 0 0 0.593632 0 0.02 0.593632 0 0.04 0.593632 0 0.06 0.593632 0 0.08 0.593632 0 0.1 0.593632 0 0 0.596022 0 0.02 0.596022 0 0.04 0.596022 0 0.06 0.596022 0 0.08 0.596022 0 0.1 0.596022 0 0 0.598409 0 0.02 0.598409 0 0.04 0.598409 0 0.06 0.598409 0 0.08 0.598409 0 0.1 0.598409 0 0 0.600798 0 0.02 0.600798 0 0.04 0.600798 0 0.06 0.600798 0 0.08 0.600798 0 0.1 0.600798 0 0 0.603185 0 0.02 0.603185 0 0.04 0.603185 0 0.06 0.603185 0 0.08 0.603185 0 0.1 0.603185 0 0 0.605568 0 0.02 0.605568 0 0.04 0.605568 0 0.06 0.605568 0 0.08 0.605568 0 0.1 0.605568 0 0 0.607945 0 0.02 0.607945 0 0.04 0.607945 0 0.06 0.607945 0 0.08 0.607945 0 0.1 0.607945 0 0 0.610328 0 0.02 0.610328 0 0.04 0.610328 0 0.06 0.610328 0 0.08 0.610328 0 0.1 0.610328 0 0 0.612742 0 0.02 0.612742 0 0.04 0.612742 0 0.06 0.612742 0 0.08 0.612742 0 0.1 0.612742 0 0 0.615196 0 0.02 0.615196 0 0.04 0.615196 0 0.06 0.615196 0 0.08 0.615196 0 0.1 0.615196 0 0 0.617724 0 0.02 0.617724 0 0.04 0.617724 0 0.06 0.617724 0 0.08 0.617724 0 0.1 0.617724 0 0 0.620334 0 0.02 0.620334 0 0.04 0.620334 0 0.06 0.620334 0 0.08 0.620334 0 0.1 0.620334 0 0 0.623097 0 0.02 0.623097 0 0.04 0.623097 0 0.06 0.623097 0 0.08 0.623097 0 0.1 0.623097 0 0 0.62604 0 0.02 0.62604 0 0.04 0.62604 0 0.06 0.62604 0 0.08 0.62604 0 0.1 0.62604 0 0 0.629249 0 0.02 0.629249 0 0.04 0.629249 0 
[...]
			<PointData Scalars="VitesseX">
				<DataArray Name="VitesseX" type="Float32" format="ascii">
 0 -2.8538e-15 -5.91798e-16 3.79376e-15 1.48743e-15 0 0 -1.99664e-15 -8.9962e-16 3.60958e-15 1.37925e-15 0 0 -8.48326e-16 -9.76079e-16 3.47941e-15 1.04499e-15 0 0 -9.91144e-17 -5.77753e-16 3.30464e-15 6.14097e-16 0 0 -6.98143e-16 4.48789e-17 4.88103e-15 2.71859e-16 0 0 -1.42315e-15 1.04505e-16 7.44111e-15 1.61399e-15 0 0 2.04368e-16 -7.45014e-16 7.33557e-15 3.90347e-15 0 0 1.23196e-15 9.5809e-16 3.81349e-15 7.89885e-15 0 0 8.43689e-16 2.33344e-15 2.29938e-15 8.7054e-15 0 0 1.27011e-15 -3.43612e-16 4.58554e-15 5.97889e-15 0 0 3.65202e-16 1.08903e-15 2.22024e-15 7.30801e-15 0 0 -2.84314e-15 4.57099e-15 5.82e-16 7.79978e-15 0 0 -1.1955e-15 2.1641e-15 1.27716e-15 8.03489e-15 0 0 -4.30321e-16 4.44355e-15 -3.67764e-15 1.12201e-14 0 0 1.19507e-15 9.8558e-16 1.13741e-15 8.34433e-15 0 0 3.93464e-15 -1.78235e-15 3.89959e-15 4.50567e-15 0 0 5.15352e-16 2.98358e-15 3.99833e-15 -8.01588e-16 0 0 -1.25717e-15 3.93771e-15 7.10666e-15 -6.02053e-15 0 0 2.15287e-16 3.02982e-15 4.76084e-15 -5.46659e-15 0 0 4.25159e-15 -1.31364e-15 3.29097e-15 -3.50929e-15 0 0 4.16829e-15 4.61945e-16 1.70704e-16 8.39648e-16 0 0 2.82428e-15 6.51392e-15 -5.61474e-15 2.84138e-15 0 0 4.8732e-15 6.16837e-15 -9.29912e-15 4.12599e-15 0 0 1.50885e-15 9.3876e-15 -1.34528e-14 3.0926e-15 0 0 -2.36944e-15 9.07204e-15 -1.02558e-14 2.78791e-15 0 0 1.96253e-15 -4.7774e-15 2.64383e-15 3.56703e-15 0 0 6.26065e-15 -8.53597e-15 3.17988e-15 3.99794e-16 0 0 -9.7629e-16 8.31762e-16 -4.53156e-15 2.21555e-15 0 0 -4.45077e-15 5.17344e-15 -7.49237e-15 3.09774e-15 0 0 -3.7536e-15 1.36564e-15 -2.25326e-15 -3.47361e-15 0 0 -2.86832e-16 -7.53317e-15 4.97348e-15 1.47519e-15 0 0 3.75803e-15 -5.60244e-15 2.35809e-15 8.5237e-15 0 0 1.95494e-16 -2.28374e-15 4.2508e-15 2.59704e-15 0 0 -8.86649e-15 5.22819e-15 1.04874e-15 5.29803e-15 0 0 -2.58974e-15 2.74783e-15 -2.73435e-17 1.02608e-14 0 0 5.75559e-15 -1.80655e-15 1.0236e-17 9.13709e-15 0 0 9.72034e-15 8.98902e-16 -5.01494e-15 1.70085e-14 0 0 9.33396e-15 5.21229e-15 -3.44902e-15 2.16064e-14 0 0 2.68078e-15 1.26832e-14 2.49351e-15 1.40774e-14 0 0 6.64054e-15 4.93888e-15 1.59467e-14 8.25591e-15 0 0 2.91086e-15 7.96601e-15 2.21856e-14 -1.07138e-15 0 0 3.53368e-15 1.27842e-14 2.20861e-14 -1.18824e-14 0 0 5.24758e-15 4.83016e-15 2.99677e-14 -1.41018e-14 0 0 4.13672e-15 5.77547e-16 3.33721e-14 -8.01517e-15 0 0 5.54249e-15 1.18342e-14 1.63471e-14 -1.71788e-15 0 0 1.25847e-14 1.28799e-14 8.88192e-15 -4.51301e-15 0 0 1.31987e-14 1.91478e-14 -2.70522e-15 -3.51068e-15 0 0 1.00214e-15 2.674e-14 -1.34428e-14 2.31047e-15 0 0 2.34752e-15 1.49745e-14 -4.0615e-15 7.97444e-15 0 0 1.02519e-14 7.63066e-15 -6.04921e-16 1.94542e-14 0 0 2.84561e-15 -7.54376e-16 1.22884e-14 8.02899e-15 0 0 -4.77745e-15 1.39022e-15 3.02607e-14 -2.41595e-14 0 0 -1.77149e-15 9.90495e-15 1.2088e-14 -1.39499e-14 0 0 -1.00935e-14 1.55785e-14 -9.69714e-15 1.60029e-14 0 0 -1.23692e-14 1.3924e-14 3.04049e-15 1.58016e-14 0 0 -6.29231e-15 6.38224e-15 6.42588e-15 1.28804e-14 0 0 -1.70916e-15 -1.38602e-14 1.91505e-14 -1.18851e-15 0 0 -9.20626e-15 -5.49369e-15 9.05848e-16 2.15631e-14 0 0 -4.80168e-15 -6.97185e-16 -2.23078e-14 5.00593e-14 0 0 2.96814e-15 -8.36269e-15 -3.91282e-15 3.15285e-14 0 0 -6.16369e-15 1.48528e-14 -7.93322e-15 2.20345e-14 0 0 5.99653e-15 1.0345e-14 2.55019e-15 8.84647e-15 0 0 5.31098e-15 1.0304e-14 5.8814e-15 5.00459e-15 0 0 8.51609e-16 2.21067e-14 -5.87198e-15 6.3591e-15 0 0 6.27756e-15 8.50114e-15 2.72923e-15 5.87931e-15 0 0 3.04191e-15 1.61259e-14 -1.22711e-15 1.47013e-14 0 0 1.06592e-14 2.57064e-14 4.5895e-16 -2.75291e-15 0 0 1.73264e-14 1.91144e-14 4.6771e-15 -6.01208e-15 0 0 1.47254e-14 3.79979e-14 1.49806e-14 -1.33185e-14 0 0 1.83755e-15 5.00179e-14 2.00922e-14 -1.80312e-14 0 0 1.24998e-14 1.66735e-14 1.44177e-14 1.46611e-14 0 0 -1.63125e-15 -2.40832e-14 3.80366e-14 3.3955e-14 0 0 -1.28019e-14 -2.55975e-14 3.11832e-14 1.41498e-14 0 0 2.01688e-14 -2.98396e-14 1.61496e-14 -2.99386e-14 0 0 1.89491e-14 -3.9592e-14 1.48842e-14 -3.42314e-14 0 0 -4.59885e-15 -3.72436e-15 -1.31479e-14 -3.15276e-14 0 0 6.48536e-15 1.64362e-14 -2.1762e-14 -3.14847e-14 0 0 2.80048e-14 -1.6444e-14 -1.68864e-14 -2.20796e-14 0 0 -8.65418e-15 -5.50174e-15 -3.34977e-14 -1.48877e-14 0 0 -3.43789e-15 3.59289e-15 -2.66028e-14 -1.41092e-14 0 0 1.30059e-15 -7.72602e-15 -8.21479e-15 -1.933e-14 0 0 -1.91797e-14 4.32577e-16 -1.87729e-14 1.3675e-15 0 0 2.58592e-14 -1.25959e-14 -2.72765e-14 1.56891e-14 0 0 9.85848e-15 5.52006e-15 -3.58089e-14 1.49916e-14 0 0 9.35986e-16 8.57116e-15 -3.23401e-14 1.09358e-14 0 0 1.72199e-14 -1.93954e-14 1.07248e-14 -2.62986e-14 0 0 -4.95229e-16 -1.75404e-14 1.13417e-14 -2.72037e-14 0 0 3.61079e-15 3.59719e-15 -6.13076e-15 -1.19525e-14 0 0 1.41354e-14 3.38445e-15 1.06704e-14 -2.21376e-14 0 0 6.37159e-15 -4.42831e-15 -7.98615e-15 -4.92735e-15 0 0 -5.70063e-15 7.94014e-15 -1.17972e-14 1.16636e-14 0 0 3.68995e-15 3.64627e-15 7.73878e-16 1.18349e-15 0 0 1.91429e-14 -8.38919e-15 1.70689e-15 -7.9806e-15 0 0 -2.24049e-15 1.62997e-15 3.21199e-15 -1.33075e-15 0 0 1.66344e-15 4.88327e-15 6.47388e-15 -7.84018e-15 0 0 -2.6053e-15 -3.53145e-14 -4.11249e-14 -3.38568e-14 0 0 -1.41784e-13 -2.40978e-13 -2.32012e-13 -1.56957e-13 0 0 -3.26719e-13 -5.32129e-13 -5.06444e-13 -3.24277e-13 0 0 -3.69149e-13 -5.79503e-13 -5.78039e-13 -3.57427e-13 0 0 -1.5509e-13 -2.43195e-13 -2.52829e-13 -1.63067e-13 0 0 5.38534e-14 7.22779e-14 6.59369e-14 4.33381e-14 0 0 2.98721e-13 4.59478e-13 5.55243e-13 2.59727e-13 0 0 3.22325e-13 5.4274e-13 5.66402e-13 3.53747e-13 0 0 3.64633e-13 6.22385e-13 6.22762e-13 3.88426e-13 0 0 4.41297e-13 6.76661e-13 7.32723e-13 4.00972e-13 0 0 4.9227e-13 7.6052e-13 7.79935e-13 4.60594e-13 0 0 4.90863e-13 7.60643e-13 7.55107e-13 5.22036e-13 0 0 3.57933e-13 5.27991e-13 5.56519e-13 3.61177e-13 0 0 -8.78326e-15 -6.03058e-14 -6.89961e-14 -1.65589e-14 0 0 -4.76725e-13 -7.68271e-13 -8.11656e-13 -4.62653e-13 0 0 -8.91092e-13 -1.41539e-12 -1.44203e-12 -8.48498e-13 0 0 -1.18417e-12 -1.84723e-12 -1.89714e-12 -1.1227e-12 0 0 -1.27841e-12 -2.06559e-12 -2.06936e-12 -1.28414e-12 0 0 -1.27757e-12 -2.14105e-12 -2.0913e-12 -1.35699e-12 0 0 -1.27459e-12 -2.11462e-12 -2.07276e-12 -1.33021e-12 0 0 -1.21121e-12 -2.0759e-12 -2.01536e-12 -1.25093e-12 0 0 -1.17077e-12 -1.98523e-12 -1.96693e-12 -1.22767e-12 0 0 -1.16447e-12 -1.8603e-12 -1.88776e-12 -1.17672e-12 0 0 -1.13422e-12 -1.78166e-12 -1.81359e-12 -1.14081e-12 0 0 -1.09748e-12 -1.73565e-12 -1.78371e-12 -1.10263e-12 0 0 -1.04764e-12 -1.65757e-12 -1.68288e-12 -1.02113e-12 0 0 -1.03551e-12 -1.67232e-12 -1.5895e-12 -9.71551e-13 0 0 -9.56611e-13 -1.53657e-12 -1.58552e-12 -8.78805e-13 0 0 -9.20637e-13 -1.45446e-12 -1.50671e-12 -8.87664e-13 0 0 -8.2164e-13 -1.38444e-12 -1.27759e-12 -8.08739e-13 0 0 -7.36164e-13 -1.2131e-12 -1.13026e-12 -7.39885e-13 0 0 -6.24331e-13 -9.55492e-13 -9.57882e-13 -5.9987e-13 0 0 -4.61091e-13 -6.96416e-13 -7.14825e-13 -4.49571e-13 0 0 -3.00356e-13 -4.67518e-13 -4.23483e-13 -3.71899e-13 0 0 -1.61526e-13 -2.62357e-13 -2.62149e-13 -1.70116e-13 0 0 -8.18715e-14 -1.18253e-13 -1.33976e-13 -6.51342e-14 0 0 -3.41634e-14 -4.27307e-14 -4.03911e-14 -5.03149e-14 0 0 -1.93961e-14 -1.47437e-14 -5.00644e-15 -4.07356e-15 0 0 -9.70067e-15 6.78798e-15 -1.10299e-14 2.79862e-15 0 0 -6.21767e-15 -3.23737e-15 6.78904e-15 1.28601e-14 0 0 -2.88296e-15 -7.40286e-15 1.42652e-14 2.79786e-14 0 0 -6.97296e-16 5.37727e-15 -7.47002e-15 1.90257e-14 0 0 5.1266e-15 -1.12249e-16 -1.24491e-14 1.36805e-14 0 0 1.22163e-14 -1.55493e-14 4.59644e-15 2.49971e-14 0 0 -3.03917e-15 1.60687e-14 -2.57192e-14 5.21819e-14 0 0 6.21097e-15 2.12319e-15 -1.25218e-14 1.94709e-14 0 0 1.80201e-14 -2.34612e-14 3.03076e-14 1.60187e-14 0 0 1.59683e-14 -9.37822e-15 4.54242e-14 2.2605e-14 0 0 2.06326e-14 -1.70794e-15 3.44272e-14 4.36579e-14 0 0 2.27301e-14 1.01288e-14 6.15445e-15 7.40117e-14 0 0 2.39552e-14 -6.50128e-16 3.25007e-14 6.31012e-14 0 0 1.19436e-14 3.24533e-14 1.43535e-14 6.98358e-14 0 0 -2.3597e-15 4.16476e-14 1.69346e-14 5.06388e-14 0 0 1.12972e-14 -1.38331e-14 9.13962e-14 4.55027e-14 0 0 1.49605e-14 -2.68171e-14 9.96007e-14 6.29176e-14 0 0 -9.62886e-15 1.73024e-14 4.6466e-14 7.37809e-14 0 0 -2.09716e-14 2.83334e-14 3.41876e-14 7.81668e-14 0 0 -4.57192e-15 2.09686e-15 7.03917e-14 5.77113e-14 0 0 -7.30773e-15 7.09659e-15 8.34133e-14 5.16997e-14 0 0 -4.17228e-14 6.08094e-14 4.51187e-14 3.45187e-14 0 0 -2.29871e-14 6.37076e-14 -8.11623e-17 5.34253e-14 0 0 1.59643e-14 2.19925e-14 8.72616e-15 8.3986e-14 0 0 1.03161e-14 1.3491e-14 5.63191e-14 3.50767e-14 0 0 -2.14756e-14 4.20425e-14 5.95307e-14 7.56323e-15 0 0 -4.85935e-14 1.03411e-13 1.09678e-14 1.41757e-14 0 0 -4.73537e-14 1.34517e-13 -3.88302e-14 3.8873e-14 0 0 1.89477e-15 6.24749e-14 -3.81238e-15 5.58538e-14 0 0 1.37055e-14 5.06354e-15 7.61353e-14 2.60527e-14 0 0 8.87686e-15 -9.18738e-15 1.08936e-13 -4.10551e-14 0 0 5.50804e-14 -5.32616e-14 9.39245e-14 -1.13853e-14 0 0 5.65004e-14 -4.81938e-14 6.08496e-14 1.1195e-13 0 0 2.3657e-14 -2.83291e-14 1.24941e-13 9.44357e-14 0 0 -2.79415e-14 6.71831e-14 9.89286e-14 7.01895e-14 0 0 -3.02983e-14 1.17832e-13 9.64457e-15 9.33013e-14 0 0 2.47536e-15 3.78728e-14 6.59311e-14 5.31035e-14 0 0 -2.3053e-14 4.05431e-14 8.34533e-14 2.72922e-14 0 0 -8.83435e-15 2.9159e-14 1.27279e-13 -4.76578e-14 0 0 -6.17049e-15 3.114e-14 8.68552e-14 -1.89344e-14 0 0 -3.65633e-14 9.92283e-14 -2.56632e-14 4.84563e-14 0 0 -2.56386e-14 8.99931e-14 2.2694e-14 -2.33339e-14 0 0 -5.44346e-15 7.49527e-14 2.50089e-14 -1.76803e-14 0 0 1.22342e-14 2.8599e-14 2.81329e-14 6.07788e-15 0 0 -5.92031e-15 2.24557e-14 -3.78789e-15 7.26034e-14 0 0 5.88029e-15 7.4889e-15 -4.17284e-14 1.28788e-13 0 0 2.10518e-14 -2.89666e-14 -1.55466e-14 7.13979e-14 0 0 -2.04681e-14 2.56218e-14 -3.25689e-14 3.08854e-14 0 0 -4.9831e-14 5.48229e-14 -5.53234e-14 6.59652e-14 0 0 -2.81984e-14 3.90868e-15 -9.21411e-15 7.61254e-14 0 0 -7.20527e-15 -4.79478e-15 1.5915e-14 5.20366e-14 0 0 -6.53403e-15 2.89338e-14 1.61691e-14 5.58867e-14 0 0 8.37544e-15 1.15203e-14 5.71896e-14 7.69576e-14 0 0 2.20918e-14 -3.72914e-15 3.77852e-14 9.22363e-14 0 0 2.3594e-14 -1.16902e-14 3.38312e-14 8.94201e-14 0 0 2.95777e-14 -1.32935e-14 5.76746e-14 7.9535e-14 0 0 7.59915e-15 2.3983e-14 5.03815e-14 9.45616e-14 0 0 -2.24372e-14 5.97235e-14 3.20708e-14 1.07837e-13 0 0 1.24681e-15 3.53999e-14 2.93043e-14 4.22576e-14 0 0 2.92444e-14 -9.73622e-15 9.56806e-15 2.76824e-14 0 0 4.44172e-14 -3.70195e-14 5.5384e-14 -5.09247e-15 0 0 2.49681e-14 -5.88556e-15 7.16275e-14 1.33336e-14 0 0 9.74633e-15 3.54491e-14 1.12834e-14 6.13431e-14 0 0 2.02516e-14 3.14277e-14 2.14221e-14 7.7305e-15 0 0 3.71139e-14 -2.13656e-14 1.0739e-13 -5.93858e-14 0 0 3.03831e-14 -4.34125e-14 1.39588e-13 1.51574e-14 0 0 7.0637e-15 1.33249e-14 4.23084e-14 1.53287e-13 0 0 3.44631e-15 5.52133e-14 -2.10347e-14 1.71903e-13 0
				</DataArray>
				<DataArray Name="VitesseY" type="Float32" format="ascii">