<?xml version="1.0"?>
<VTKFile type="PolyData">
	<PolyData>
		<Piece NumberOfPoints="1206" NumberOfPolys="1000">
			<Points>
				<DataArray type="Float32" NumberOfComponents="3" format="ascii">
 0 0 0 0.02 0 0 0.04 0 0 0.06 0 0 0.08 0 0 0.1 0 0 0 0.005 0 0.02 0.005 0 0.04 0.005 0 0.06 0.005 0 0.08 0.005 0 0.1 0.005 0 0 0.01 0 0.02 0.01 0 0.04 0.01 0 0.06 0.01 0 0.08 0.01 0 0.1 0.01 0 0 0.015 0 0.02 0.015 0 0.04 0.015 0 0.06 0.015 0 0.08 0.015 0 0.1 0.015 0 0 0.02 0 0.02 0.02 0 0.04 0.02 0 0.06 0.02 0 0.08 0.02 0 0.1 0.02 0 0 0.025 0 0.02 0.025 0 0.04 0.025 0 0.06 0.025 0 0.08 0.025 0 0.1 0.025 0 0 0.03 0 0.02 0.03 0 0.04 0.03 0 0.06 0.03 0 0.08 0.03 0 0.1 0.03 0 0 0.035 0 0.02 0.035 0 0.04 0.035 0 0.06 0.035 0 0.08 0.035 0 0.1 0.035 0 0 0.04 0 0.02 0.04 0 0.04 0.04 0 0.06 0.04 0 0.08 0.04 0 0.1 0.04 0 0 0.045 0 0.02 0.045 0 0.04 0.045 0 0.06 0.045 0 0.08 0.045 0 0.1 0.045 0 0 0.05 0 0.02 0.05 0 0.04 0.05 0 0.06 0.05 0 0.08 0.05 0 0.1 0.05 0 0 0.055 0 0.02 0.055 0 0.04 0.055 0 0.06 0.055 0 0.08 0.055 0 0.1 0.055 0 0 0.06 0 0.02 0.06 0 0.04 0.06 0 0.06 0.06 0 0.08 0.06 0 0.1 0.06 0 0 0.065 0 0.02 0.065 0 0.04 0.065 0 0.06 0.065 0 0.08 0.065 0 0.1 0.065 0 0 0.07 0 0.02 0.07 0 0.04 0.07 0 0.06 0.07 0 0.08 0.07 0 0.1 0.07 0 0 0.075 0 0.02 0.075 0 0.04 0.075 0 0.06 0.075 0 0.08 0.075 0 0.1 0.075 0 0 0.08 0 0.02 0.08 0 0.04 0.08 0 0.06 0.08 0 0.08 0.08 0 0.1 0.08 0 0 0.085 0 0.02 0.085 0 0.04 0.085 0 0.06 0.085 0 0.08 0.085 0 0.1 0.085 0 0 0.09 0 0.02 0.09 0 0.04 0.09 0 0.06 0.09 0 0.08 0.09 0 0.1 0.09 0 0 0.095 0 0.02 0.095 0 0.04 0.095 0 0.06 0.095 0 0.08 0.095 0 0.1 0.095 0 0 0.1 0 0.02 0.1 0 0.04 0.1 0 0.06 0.1 0 0.08 0.1 0 0.1 0.1 0 0 0.105 0 0.02 0.105 0 0.04 0.105 0 0.06 0.105 0 0.08 0.105 0 0.1 0.105 0 0 0.11 0 0.02 0.11 0 0.04 0.11 0 0.06 0.11 0 0.08 0.11 0 0.1 0.11 0 0 0.115 0 0.02 0.115 0 0.04 0.115 0 0.06 0.115 0 0.08 0.115 0 0.1 0.115 0 0 0.12 0 0.02 0.12 0 0.04 0.12 0 0.06 0.12 0 0.08 0.12 0 0.1 0.12 0 0 0.125 0 0.02 0.125 0 0.04 0.125 0 0.06 0.125 0 0.08 0.125 0 0.1 0.125 0 0 0.13 0 0.02 0.13 0 0.04 0.13 0 0.06 0.13 0 0.08 0.13 0 0.1 0.13 0 0 0.135 0 0.02 0.135 0 0.04 0.135 0 0.06 0.135 0 0.08 0.135 0 0.1 0.135 0 0 0.14 0 0.02 0.14 0 0.04 0.14 0 0.06 0.14 0 0.08 0.14 0 0.1 0.14 0 0 0.145 0 0.02 0.145 0 0.04 0.145 0 0.06 0.145 0 0.08 0.145 0 0.1 0.145 0 0 0.15 0 0.02 0.15 0 0.04 0.15 0 0.06 0.15 0 0.08 0.15 0 0.1 0.15 0 0 0.155 0 0.02 0.155 0 0.04 0.155 0 0.06 0.155 0 0.08 0.155 0 0.1 0.155 0 0 0.16 0 0.02 0.16 0 0.04 0.16 0 0.06 0.16 0 0.08 0.16 0 0.1 0.16 0 0 0.165 0 0.02 0.165 0 0.04 0.165 0 0.06 0.165 0 0.08 0.165 0 0.1 0.165 0 0 0.17 0 0.02 0.17 0 0.04 0.17 0 0.06 0.17 0 0.08 0.17 0 0.1 0.17 0 0 0.175 0 0.02 0.175 0 0.04 0.175 0 0.06 0.175 0 0.08 0.175 0 0.1 0.175 0 0 0.18 0 0.02 0.18 0 0.04 0.18 0 0.06 0.18 0 0.08 0.18 0 0.1 0.18 0 0 0.185 0 0.02 0.185 0 0.04 0.185 0 0.06 0.185 0 0.08 0.185 0 0.1 0.185 0 0 0.19 0 0.02 0.19 0 0.04 0.19 0 0.06 0.19 0 0.08 0.19 0 0.1 0.19 0 0 0.195 0 0.02 0.195 0 0.04 0.195 0 0.06 0.195 0 0.08 0.195 0 0.1 0.195 0 0 0.2 0 0.02 0.2 0 0.04 0.2 0 0.06 0.2 0 0.08 0.2 0 0.1 0.2 0 0 0.205 0 0.02 0.205 0 0.04 0.205 0 0.06 0.205 0 0.08 0.205 0 0.1 0.205 0 0 0.21 0 0.02 0.21 0 0.04 0.21 0 0.06 0.21 0 0.08 0.21 0 0.1 0.21 0 0 0.215 0 0.02 0.215 0 0.04 0.215 0 0.06 0.215 0 0.08 0.215 0 0.1 0.215 0 0 0.22 0 0.02 0.22 0 0.04 0.22 0 0.06 0.22 0 0.08 0.22 0 0.1 0.22 0 0 0.225 0 0.02 0.225 0 0.04 0.225 0 0.06 0.225 0 0.08 0.225 0 0.1 0.225 0 0 0.23 0 0.02 0.23 0 0.04 0.23 0 0.06 0.23 0 0.08 0.23 0 0.1 0.23 0 0 0.235 0 0.02 0.235 0 0.04 0.235 0 0.06 0.235 0 0.08 0.235 0 0.1 0.235 0 0 0.24 0 0.02 0.24 0 0.04 0.24 0 0.06 0.24 0 0.08 0.24 0 0.1 0.24 0 0 0.245 0 0.02 0.245 0 0.04 0.245 0 0.06 0.245 0 0.08 0.245 0 0.1 0.245 0 0 0.25 0 0.02 0.25 0 0.04 0.25 0 0.06 0.25 0 0.08 0.25 0 0.1 0.25 0 0 0.255 0 0.02 0.255 0 0.04 0.255 0 0.06 0.255 0 0.08 0.255 0 0.1 0.255 0 0 0.26 0 0.02 0.26 0 0.04 0.26 0 0.06 0.26 0 0.08 0.26 0 0.1 0.26 0 0 0.265 0 0.02 0.265 0 0.04 0.265 0 0.06 0.265 0 0.08 0.265 0 0.1 0.265 0 0 0.27 0 0.02 0.27 0 0.04 0.27 0 0.06 0.27 0 0.08 0.27 0 0.1 0.27 0 0 0.275 0 0.02 0.275 0 0.04 0.275 0 0.06 0.275 0 0.08 0.275 0 0.1 0.275 0 0 0.28 0 0.02 0.28 0 0.04 0.28 0 0.06 0.28 0 0.08 0.28 0 0.1 0.28 0 0 0.285 0 0.02 0.285 0 0.04 0.285 0 0.06 0.285 0 0.08 0.285 0 0.1 0.285 0 0 0.29 0 0.02 0.29 0 0.04 0.29 0 0.06 0.29 0 0.08 0.29 0 0.1 0.29 0 0 0.295 0 0.02 0.295 0 0.04 0.295 0 0.06 0.295 0 0.08 0.295 0 0.1 0.295 0 0 0.3 0 0.02 0.3 0 0.04 0.3 0 0.06 0.3 0 0.08 0.3 0 0.1 0.3 0 0 0.305 0 0.02 0.305 0 0.04 0.305 0 0.06 0.305 0 0.08 0.305 0 0.1 0.305 0 0 0.31 0 0.02 0.31 0 0.04 0.31 0 0.06 0.31 0 0.08 0.31 0 0.1 0.31 0 0 0.315 0 0.02 0.315 0 0.04 0.315 0 0.06 0.315 0 0.08 0.315 0 0.1 0.315 0 0 0.32 0 0.02 0.32 0 0.04 0.32 0 0.06 0.32 0 0.08 0.32 0 0.1 0.32 0 0 0.325 0 0.02 0.325 0 0.04 0.325 0 0.06 0.325 0 0.08 0.325 0 0.1 0.325 0 0 0.33 0 0.02 0.33 0 0.04 0.33 0 0.06 0.33 0 0.08 0.33 0 0.1 0.33 0 0 0.335 0 0.02 0.335 0 0.04 0.335 0 0.06 0.335 0 0.08 0.335 0 0.1 0.335 0 0 0.34 0 0.02 0.34 0 0.04 0.34 0 0.06 0.34 0 0.08 0.34 0 0.1 0.34 0 0 0.345 0 0.02 0.345 0 0.04 0.345 0 0.06 0.345 0 0.08 0.345 0 0.1 0.345 0 0 0.35 0 0.02 0.35 0 0.04 0.35 0 0.06 0.35 0 0.08 0.35 0 0.1 0.35 0 0 0.355 0 0.02 0.355 0 0.04 0.355 0 0.06 0.355 0 0.08 0.355 0 0.1 0.355 0 0 0.36 0 0.02 0.36 0 0.04 0.36 0 0.06 0.36 0 0.08 0.36 0 0.1 0.36 0 0 0.365 0 0.02 0.365 0 0.04 0.365 0 0.06 0.365 0 0.08 0.365 0 0.1 0.365 0 0 0.37 0 0.02 0.37 0 0.04 0.37 0 0.06 0.37 0 0.08 0.37 0 0.1 0.37 0 0 0.375 0 0.02 0.375 0 0.04 0.375 0 0.06 0.375 0 0.08 0.375 0 0.1 0.375 0 0 0.38 0 0.02 0.38 0 0.04 0.38 0 0.06 0.38 0 0.08 0.38 0 0.1 0.38 0 0 0.385 0 0.02 0.385 0 0.04 0.385 0 0.06 0.385 0 0.08 0.385 0 0.1 0.385 0 0 0.39 0 0.02 0.39 0 0.04 0.39 0 0.06 0.39 0 0.08 0.39 0 0.1 0.39 0 0 0.395 0 0.02 0.395 0 0.04 0.395 0 0.06 0.395 0 0.08 0.395 0 0.1 0.395 0 0 0.4 0 0.02 0.4 0 0.04 0.4 0 0.06 0.4 0 0.08 0.4 0 0.1 0.4 0 0 0.405 0 0.02 0.405 0 0.04 0.405 0 0.06 0.405 0 0.08 0.405 0 0.1 0.405 0 0 0.41 0 0.02 0.41 0 0.04 0.41 0 0.06 0.41 0 0.08 0.41 0 0.1 0.41 0 0 0.415 0 0.02 0.415 0 0.04 0.415 0 0.06 0.415 0 0.08 0.415 0 0.1 0.415 0 0 0.42 0 0.02 0.42 0 0.04 0.42 0 0.06 0.42 0 0.08 0.42 0 0.1 0.42 0 0 0.425 0 0.02 0.425 0 0.04 0.425 0 0.06 0.425 0 0.08 0.425 0 0.1 0.425 0 0 0.43 0 0.02 0.43 0 0.04 0.43 0 0.06 0.43 0 0.08 0.43 0 0.1 0.43 0 0 0.435 0 0.02 0.435 0 0.04 0.435 0 0.06 0.435 0 0.08 0.435 0 0.1 0.435 0 0 0.44 0 0.02 0.44 0 0.04 0.44 0 0.06 0.44 0 0.08 0.44 0 0.1 0.44 0 0 0.445 0 0.02 0.445 0 0.04 0.445 0 0.06 0.445 0 0.08 0.445 0 0.1 0.445 0 0 0.45 0 0.02 0.45 0 0.04 0.45 0 0.06 0.45 0 0.08 0.45 0 0.1 0.45 0 0 0.455 0 0.02 0.455 0 0.04 0.455 0 0.06 0.455 0 0.08 0.455 0 0.1 0.455 0 0 0.46 0 0.02 0.46 0 0.04 0.46 0 0.06 0.46 0 0.08 0.46 0 0.1 0.46 0 0 0.465004 0 0.02 0.465004 0 0.04 0.465004 0 0.06 0.465004 0 0.08 0.465004 0 0.1 0.465004 0 0 0.47003 0 0.02 0.47003 0 0.04 0.47003 0 0.06 0.47003 0 0.08 0.47003 0 0.1 0.47003 0 0 0.475169 0 0.02 0.475169 0 0.04 0.475169 0 0.06 0.475169 0 0.08 0.475169 0 0.1 0.475169 0 0 0.480681 0 0.02 0.480681 0 0.04 0.480681 0 0.06 0.480681 0 0.08 0.480681 0 0.1 0.480681 0 0 0.487033 0 0.02 0.487033 0 0.04 0.487033 0 0.06 0.487033 0 0.08 0.487033 0 0.1 0.487033 0 0 0.494925 0 0.02 0.494925 0 0.04 0.494925 0 0.06 0.494925 0 0.08 0.494925 0 0.1 0.494925 0 0 0.505465 0 0.02 0.505465 0 0.04 0.505465 0 0.06 0.505465 0 0.08 0.505465 0 0.1 0.505465 0 0 0.518574 0 0.02 0.518574 0 0.04 0.518574 0 0.06 0.518574 0 0.08 0.518574 0 0.1 0.518574 0 0 0.521235 0 0.02 0.521235 0 0.04 0.521235 0 0.06 0.521235 0 0.08 0.521235 0 0.1 0.521235 0 0 0.52374 0 0.02 0.52374 0 0.04 0.52374 0 0.06 0.52374 0 0.08 0.52374 0 0.1 0.52374 0 0 0.526227 0 0.02 0.526227 0 0.04 0.526227 0 0.06 0.526227 0 0.08 0.526227 0 0.1 0.526227 0 0 0.528786 0 0.02 0.528786 0 0.04 0.528786 0 0.06 0.528786 0 0.08 0.528786 0 0.1 0.528786 0 0 0.531506 0 0.02 0.531506 0 0.04 0.531506 0 0.06 0.531506 0 0.08 0.531506 0 0.1 0.531506 0 0 0.534485 0 0.02 0.534485 0 0.04 0.534485 0 0.06 0.534485 0 0.08 0.534485 0 0.1 0.534485 0 0 0.537809 0 0.02 0.537809 0 0.04 0.537809 0 0.06 0.537809 0 0.08 0.537809 0 0.1 0.537809 0 0 0.541546 0 0.02 0.541546 0 0.04 0.541546 0 0.06 0.541546 0 0.08 0.541546 0 0.1 0.541546 0 0 0.545714 0 0.02 0.545714 0 0.04 0.545714 0 0.06 0.545714 0 0.08 0.545714 0 0.1 0.545714 0 0 0.550262 0 0.02 0.550262 0 0.04 0.550262 0 0.06 0.550262 0 0.08 0.550262 0 0.1 0.550262 0 0 0.555075 0 0.02 0.555075 0 0.04 0.555075 0 0.06 0.555075 0 0.08 0.555075 0 0.1 0.555075 0 0 0.560017 0 0.02 0.560017 0 0.04 0.560017 0 0.06 0.560017 0 0.08 0.560017 0 0.1 0.560017 0 0 0.565003 0 0.02 0.565003 0 0.04 0.565003 0 0.06 0.565003 0 0.08 0.565003 0 0.1 0.565003 0 0 0.570001 0 0.02 0.570001 0 0.04 0.570001 0 0.06 0.570001 0 0.08 0.570001 0 0.1 0.570001 0 0 0.575 0 0.02 0.575 0 0.04 0.575 0 0.06 0.575 0 0.08 0.575 0 0.1 0.575 0 0 0.58 0 0.02 0.58 0 0.04 0.58 0 0.06 0.58 0 0.08 0.58 0 0.1 0.58 0 0 0.585 0 0.02 0.585 0 0.04 0.585 0 0.06 0.585 0 0.08 0.585 0 0.1 0.585 0 0 0.59 0 0.02 0.59 0 0.04 0.59 0 0.06 0.59 0 0.08 0.59 0 0.1 0.59 0 0 0.595 0 0.02 0.595 0 0.04 0.595 0 0.06 0.595 0 0.08 0.595 0 0.1 0.595 0 0 0.6 0 0.02 0.6 0 0.04 0.6 0 0.06 0.6 0 0.08 0.6 0 0.1 0.6 0 0 0.605 0 0.02 0.605 0 0.04 0.605 0 0.06 0.605 0 0.08 0.605 0 0.1 0.605 0 0 0.61 0 0.02 0.61 0 0.04 0.61 0 0.06 0.61 0 0.08 0.61 0 0.1 0.61 0 0 0.615 0 0.02 0.615 0 0.04 0.615 0 0.06 0.615 0 0.08 0.615 0 0.1 0.615 0 0 0.62 0 0.02 0.62 0 0.04 0.62 0 0.06 0.62 0 0.08 0.62 0 0.1 0.62 0 0 0.625 0 0.02 0.625 0 0.04 0.625 0 0.06 0.625 0 0.08 0.625 0 0.1 0.625 0 0 0.63 0 0.02 0.63 0 0.04 0.63 0 0.06 0.63 0 0.08 0.63 0 0.1 0.63 0 0 0.635 0 0.02 0.635 0 0.04 0.635 0 0.06 0.635 0 0.08 0.635 0 0.1 0.635 0 0 0.64 0 0.02 0.64 0 0.04 0.64 0 0.06 0.64 0 0.08 0.64 0 0.1 0.64 0 0 0.645 0 0.02 0.645 0 0.04 0.645 0 0.06 0.645 0 0.08 0.645 0 0.1 0.645 0 0 0.65 0 0.02 0.65 0 0.04 0.65 0 0.06 0.65 0 0.08 0.65 0 0.1 0.65 0 0 0.655 0 0.02 0.655 0 0.04 0.655 0 0.06 0.655 0 0.08 0.655 0 0.1 0.655 0 0 0.66 0 0.02 0.66 0 0.04 0.66 
[...]
			<PointData Scalars="VitesseX">
				<DataArray Name="VitesseX" type="Float32" format="ascii">
 0 1.04396e-16 -6.94686e-16 1.38937e-15 -4.78361e-16 0 0 3.47584e-17 -6.94686e-16 1.26221e-15 -4.6406e-16 0 0 -3.03439e-17 -4.56048e-16 9.15324e-16 -3.55529e-16 0 0 5.84643e-16 -6.34029e-16 4.90244e-16 -1.86089e-16 0 0 5.28088e-16 7.65618e-17 -2.95826e-16 5.83954e-16 0 0 -9.25675e-16 1.23985e-15 -3.4293e-16 1.25296e-15 0 0 -1.65001e-15 1.29299e-15 2.53092e-16 3.01519e-16 0 0 6.96428e-16 -1.61029e-15 2.44833e-15 -1.77356e-15 0 0 1.32308e-15 -1.43883e-15 2.08726e-15 -1.48359e-15 0 0 1.12977e-17 1.32925e-16 -7.33228e-16 1.76903e-15 0 0 -7.28879e-16 7.84518e-16 -2.36044e-15 2.67859e-15 0 0 -8.0596e-16 1.00917e-16 5.43585e-16 -1.75561e-16 0 0 1.3023e-15 -2.90925e-15 4.29564e-15 -2.34987e-15 0 0 -3.02957e-15 2.41513e-15 3.7515e-16 9.96658e-17 0 0 -1.64746e-15 8.53878e-16 1.68612e-15 4.81052e-16 0 0 2.64353e-15 -4.65639e-15 6.18492e-15 -2.27532e-15 0 0 -2.53066e-15 2.3235e-15 1.17382e-15 5.99256e-16 0 0 5.49414e-16 2.95643e-15 -5.85657e-15 6.57908e-15 0 0 9.13057e-16 2.4959e-15 -6.17041e-15 6.41493e-15 0 0 -1.79331e-15 1.86298e-15 -3.75398e-16 4.44819e-15 0 0 3.36839e-15 -5.96073e-15 2.69747e-15 8.3577e-15 0 0 1.77173e-15 -3.38388e-15 -3.5678e-16 1.21672e-14 0 0 -2.1274e-15 3.09609e-15 7.18686e-16 5.13854e-15 0 0 -2.08722e-15 4.40904e-15 3.35716e-16 3.17516e-15 0 0 1.16946e-16 1.32249e-15 6.25554e-17 1.01337e-14 0 0 2.66944e-16 -2.79315e-15 5.84464e-15 6.2531e-15 0 0 -2.64545e-15 4.95048e-15 -1.6579e-15 2.98964e-15 0 0 -2.92997e-15 5.14943e-15 5.1124e-16 -1.13717e-15 0 0 3.77255e-16 -2.1794e-15 5.84288e-15 -4.72407e-15 0 0 4.49421e-15 -3.26928e-15 -2.50597e-15 2.6844e-15 0 0 2.69307e-15 -3.53855e-15 3.00524e-16 2.51562e-15 0 0 3.07631e-15 -4.85574e-15 5.68814e-15 -5.9429e-15 0 0 1.45414e-16 2.80097e-15 2.19137e-17 -3.19825e-15 0 0 -4.70217e-15 1.15918e-14 -4.94993e-15 5.65768e-15 0 0 1.51489e-15 8.69516e-16 3.62893e-16 8.30269e-15 0 0 4.22768e-16 -2.2716e-15 2.70491e-15 5.05999e-15 0 0 -6.17247e-16 3.13447e-15 -5.53975e-15 8.49792e-15 0 0 1.86628e-15 -1.05499e-15 1.15162e-15 2.52803e-15 0 0 7.50723e-16 -2.99619e-15 3.28894e-15 -1.0072e-15 0 0 9.63534e-16 2.98836e-15 -9.00473e-15 6.50353e-15 0 0 6.19729e-16 -2.30703e-15 -2.67933e-16 6.18125e-15 0 0 4.30754e-16 -3.2309e-15 5.92472e-16 6.65042e-15 0 0 -3.52935e-15 6.82626e-15 -2.35778e-15 -4.12204e-16 0 0 -6.76496e-15 4.99188e-15 1.51767e-15 -6.01738e-15 0 0 9.29572e-17 -4.20155e-15 -2.26579e-15 -1.38824e-15 0 0 6.77171e-16 -2.61898e-15 -5.5411e-15 -8.81419e-16 0 0 -2.84037e-15 3.01459e-15 -1.60435e-15 -5.13334e-15 0 0 -2.11606e-15 6.47815e-15 -2.69952e-15 2.32741e-16 0 0 -1.8961e-16 7.99312e-15 -4.83166e-15 3.92276e-15 0 0 3.48288e-15 -1.96291e-15 1.08042e-15 5.31064e-15 0 0 1.55643e-15 -7.27044e-15 7.65165e-15 -6.4821e-16 0 0 -1.78297e-15 6.73046e-16 3.5866e-15 -3.47881e-15 0 0 2.3085e-15 8.94682e-15 6.35164e-16 -2.24451e-15 0 0 9.02953e-15 4.3632e-15 6.34845e-15 -6.78149e-15 0 0 -2.48264e-15 8.46625e-15 -2.38022e-15 -1.97842e-15 0 0 -7.001e-15 9.74275e-15 -2.19373e-15 -8.43622e-15 0 0 4.32846e-15 1.24781e-14 -1.21898e-14 -7.12058e-15 0 0 3.06918e-16 1.83068e-14 -1.91246e-14 4.21578e-15 0 0 -2.30054e-15 8.7842e-15 6.57643e-16 -2.51552e-15 0 0 2.77835e-15 8.12032e-15 2.54262e-15 -1.30512e-14 0 0 1.15137e-15 9.02166e-15 -2.84877e-15 -1.07623e-14 0 0 3.12853e-15 1.09281e-14 2.62825e-16 -1.21156e-14 0 0 6.30907e-15 8.42693e-15 -9.90166e-16 -7.97672e-15 0 0 1.41373e-15 5.08909e-15 6.44631e-15 -7.21378e-15 0 0 -1.11206e-15 7.25471e-15 1.7244e-14 -2.03231e-14 0 0 3.29074e-16 3.14602e-15 7.91768e-15 -9.39563e-15 0 0 1.96601e-15 -2.26254e-15 9.66502e-16 1.14401e-14 0 0 -1.39433e-17 2.41388e-15 -3.39239e-15 8.27405e-15 0 0 1.33975e-15 5.44893e-15 -6.1708e-15 2.81373e-15 0 0 5.52284e-15 2.62346e-15 1.10707e-15 8.76601e-15 0 0 1.27905e-15 5.68243e-15 3.9555e-15 2.05352e-15 0 0 6.08534e-15 8.05741e-15 -4.67435e-15 -6.65593e-15 0 0 1.12613e-14 1.52398e-14 -1.76232e-14 -5.48121e-15 0 0 1.82756e-14 7.86885e-15 -4.22229e-15 -1.5835e-14 0 0 1.78044e-14 -6.14249e-15 1.31291e-14 -8.55138e-15 0 0 1.51212e-14 -6.25681e-15 4.97938e-15 6.92136e-15 0 0 1.23709e-14 3.57466e-15 -2.09003e-15 7.54484e-15 0 0 5.14155e-16 9.32653e-15 6.7512e-15 1.23408e-14 0 0 -9.35187e-15 1.84991e-14 5.85886e-15 1.4145e-14 0 0 -1.63055e-15 7.43916e-15 1.82553e-14 -1.40565e-14 0 0 1.02117e-14 6.68448e-15 1.73686e-14 -1.428e-14 0 0 4.75991e-16 1.66352e-14 1.53513e-14 3.04945e-14 0 0 -9.97673e-15 1.60824e-14 2.57202e-14 2.75022e-14 0 0 -5.40069e-15 1.88728e-14 8.01455e-15 1.61367e-14 0 0 1.83013e-15 5.03015e-15 -1.3917e-15 1.86267e-14 0 0 9.78718e-15 -8.84248e-15 2.24209e-14 1.67205e-14 0 0 5.32352e-15 -8.66836e-15 3.26793e-14 1.24728e-14 0 0 8.8713e-16 1.80478e-15 1.92428e-14 1.72971e-15 0 0 3.13295e-15 2.79921e-15 1.92695e-14 -4.40884e-15 0 0 4.05516e-15 9.09406e-16 -1.21291e-15 1.80662e-15 0 0 -2.76887e-16 8.47129e-16 -7.29456e-16 9.76191e-15 0 0 -5.77354e-15 2.78047e-15 1.20035e-14 6.93884e-15 0 0 5.02809e-15 9.22733e-16 -1.3584e-15 7.18845e-15 0 0 2.17714e-15 1.72222e-15 1.89701e-15 1.04124e-14 0 0 -2.04235e-15 3.59128e-15 8.98354e-15 -1.08031e-15 0 0 2.08235e-15 1.73665e-15 4.65411e-15 -3.80643e-15 0 0 -5.54154e-15 4.44769e-15 8.47035e-15 -7.11514e-16 0 0 -3.39733e-15 1.49597e-15 8.22953e-15 -4.25253e-15 0 0 5.81397e-15 1.74047e-15 -1.10659e-15 1.29422e-14 0 0 -2.28897e-16 2.27929e-15 3.66156e-15 1.1173e-15 0 0 -2.44212e-15 -2.75459e-15 8.41032e-15 -8.00415e-15 0 0 4.55377e-14 1.01836e-13 7.61039e-14 3.98111e-14 0 0 2.07513e-13 3.74085e-13 3.39659e-13 2.22672e-13 0 0 -1.50898e-13 -2.76891e-13 -2.74974e-13 -1.63726e-13 0 0 1.61626e-13 2.36501e-13 2.40174e-13 1.03402e-13 0 0 3.43048e-14 7.10438e-14 4.27679e-14 5.33966e-14 0 0 -1.60733e-13 -2.85256e-13 -3.0438e-13 -9.85962e-14 0 0 1.68609e-13 2.55953e-13 3.24954e-13 1.23206e-13 0 0 -8.6654e-14 -1.08274e-13 -7.14946e-14 -1.3007e-13 0 0 1.88179e-14 3.8602e-14 9.02959e-14 8.05366e-15 0 0 7.76426e-15 -2.29122e-14 7.26634e-14 -3.04158e-14 0 0 1.08093e-14 6.80918e-15 2.11588e-14 8.68636e-16 0 0 -3.14178e-17 1.32536e-14 -1.31719e-14 3.43797e-14 0 0 -9.31818e-15 1.4119e-14 1.07686e-14 -1.09598e-14 0 0 -2.59352e-16 2.23369e-15 2.32196e-14 -1.9823e-14 0 0 1.42367e-14 -4.33848e-15 1.23633e-14 1.07526e-14 0 0 1.17527e-14 -7.05749e-15 1.80376e-14 3.31494e-15 0 0 3.45019e-15 -3.11682e-15 2.5177e-14 -1.00982e-14 0 0 5.70459e-15 1.33337e-14 -2.13747e-15 6.03408e-15 0 0 4.01777e-15 1.40299e-14 -7.81208e-15 1.73349e-14 0 0 -1.33119e-15 3.12431e-15 2.12421e-14 -5.90642e-15 0 0 9.23426e-15 -4.97368e-15 1.5913e-14 -1.4015e-14 0 0 6.26856e-15 8.05282e-15 -1.25937e-15 6.8292e-16 0 0 -3.87238e-15 1.83557e-14 -2.41059e-15 9.65007e-15 0 0 1.21367e-14 -1.27218e-14 2.68046e-14 -1.68579e-15 0 0 1.67606e-14 -5.48547e-15 1.7422e-14 -1.33323e-14 0 0 1.02698e-14 -1.36803e-15 -7.07939e-16 -6.62593e-15 0 0 1.34642e-14 6.33389e-15 -1.90187e-14 9.45856e-15 0 0 4.61835e-15 4.12107e-14 -3.46009e-14 -1.28319e-15 0 0 3.18052e-15 2.50223e-14 -1.29592e-14 6.27164e-15 0 0 7.86139e-15 1.18746e-14 1.81425e-14 1.00791e-14 0 0 4.85501e-15 6.23569e-15 2.32495e-14 -5.4336e-15 0 0 6.21017e-15 2.09723e-15 9.8137e-15 6.31838e-15 0 0 9.99189e-15 8.96719e-15 -2.07595e-15 2.45418e-14 0 0 1.29188e-14 -1.27886e-14 -1.36522e-15 1.68568e-14 0 0 1.22431e-14 -1.35132e-14 2.34483e-14 -2.05849e-14 0 0 2.20406e-15 3.05038e-15 1.25051e-14 -3.04715e-15 0 0 7.44149e-15 -7.67247e-16 -1.26845e-14 1.98683e-14 0 0 1.67146e-14 -1.18319e-15 1.43786e-14 -1.81124e-14 0 0 8.31445e-15 -9.65055e-15 3.26925e-14 -3.12004e-14 0 0 -1.35882e-15 1.80825e-14 1.68054e-15 -2.42933e-15 0 0 5.15973e-15 3.61176e-14 -7.69744e-15 1.77365e-15 0 0 1.32963e-14 1.07726e-14 1.17576e-15 -4.04132e-14 0 0 9.02121e-15 6.9637e-15 1.61004e-15 -6.47031e-14 0 0 1.06879e-14 1.61247e-14 -9.38619e-15 -3.21771e-14 0 0 9.88946e-15 6.21546e-15 -1.09589e-14 3.27183e-15 0 0 1.1558e-14 5.43391e-15 7.42157e-16 9.09779e-15 0 0 1.13089e-14 1.17757e-14 -2.10668e-15 -5.26052e-15 0 0 1.06096e-14 8.21766e-15 1.27494e-14 -4.22874e-14 0 0 1.83091e-14 6.7262e-15 1.50576e-14 -4.35715e-14 0 0 1.61587e-14 1.88514e-14 -2.31718e-14 -1.00301e-14 0 0 1.09352e-14 4.13049e-14 -2.65176e-14 -8.45747e-15 0 0 1.23805e-14 2.95113e-14 -9.85247e-15 -1.43365e-14 0 0 1.61358e-15 3.04748e-14 -9.44869e-15 -1.77942e-14 0 0 5.57956e-16 1.79657e-14 8.6467e-15 -1.54604e-14 0 0 1.37201e-14 1.1976e-14 -4.73183e-16 -3.86864e-15 0 0 1.91568e-14 2.6974e-14 -1.27999e-14 -1.53767e-14 0 0 3.66582e-14 7.87483e-15 1.32256e-14 -3.76355e-14 0 0 4.20652e-14 8.61031e-15 1.11014e-14 -5.58084e-14 0 0 2.39982e-14 1.28061e-14 1.17342e-14 -6.83232e-14 0 0 1.35885e-14 -2.77445e-15 1.78624e-15 -2.82093e-14 0 0 2.0293e-14 -1.45804e-14 -1.43034e-14 2.60592e-14 0 0 1.54066e-14 -4.27653e-15 3.76812e-15 1.15391e-14 0 0 5.47305e-15 2.4952e-14 9.6651e-15 -3.61809e-14 0 0 5.30488e-14 -2.24402e-14 4.15808e-14 -7.75335e-14 0 0 5.5622e-14 -4.56343e-14 5.90725e-14 -8.00333e-14 0 0 1.02932e-14 3.72192e-14 -1.36321e-14 -5.0855e-14 0 0 2.17496e-14 5.66241e-14 -3.03741e-14 -7.04511e-14 0 0 3.10433e-14 3.07059e-14 -1.32191e-14 -5.85388e-14 0 0 1.77487e-14 6.38732e-15 7.44811e-16 -4.46775e-14 0 0 5.9617e-15 2.05478e-14 -1.38293e-14 -2.42105e-14 0 0 -5.23636e-15 4.61645e-14 -2.88676e-14 -4.80498e-15 0 0 1.20709e-14 -6.52737e-15 2.62951e-14 -2.81888e-14 0 0 2.46361e-14 -1.76162e-14 1.63532e-14 -2.00396e-14 0 0 1.04141e-14 -6.55659e-16 1.22704e-14 -1.47284e-14 0 0 8.51307e-16 1.76364e-14 -6.88692e-15 1.50254e-14 0 0 -7.59468e-15 4.0359e-14 -1.85843e-14 5.09531e-15 0 0 4.26239e-15 -3.21891e-15 3.65284e-14 3.96305e-15 0 0 -9.41013e-16 4.65588e-16 1.66802e-14 5.00725e-14 0 0 -1.15253e-14 1.13153e-14 4.13928e-15 5.92411e-15 0 0 -2.17101e-16 2.09999e-15 1.93117e-14 -2.2867e-14 0 0 -3.79388e-15 2.95689e-14 8.30561e-15 -1.47867e-14 0 0 -1.33755e-15 3.92278e-14 1.80866e-14 -3.58138e-14 0 0 -6.8467e-15 4.10814e-14 1.55105e-14 -3.60881e-14 0 0 -1.01e-14 2.28957e-14 -8.5307e-15 -1.6426e-15 0 0 -1.19562e-15 1.44841e-14 -1.58427e-14 1.79686e-14 0 0 -6.25424e-15 3.00078e-14 -6.32977e-15 -1.00333e-14 0 0 3.4647e-16 1.61383e-14 2.64365e-14 -4.30765e-14 0 0 5.37519e-15 -1.82311e-15 6.01978e-14 -4.93655e-14 0 0 -1.16973e-15 -6.87592e-16 3.30168e-14 -1.73685e-14 0 0 2.2772e-15 7.05807e-15 1.25956e-14 -5.84419e-15 0 0 1.19904e-14 -1.27234e-15 2.4731e-14 -2.32243e-14 0 0 1.93956e-14 -1.84148e-14 8.84477e-15 6.91695e-15 0 0 -5.725e-15 5.82397e-15 -1.65889e-14 3.42979e-14 0 0 -4.38424e-15 8.84021e-15 3.80124e-15 -1.85096e-14 0 0 1.77914e-14 -1.14483e-14 3.39768e-14 -5.39161e-14 0 0 -1.42827e-15 1.88001e-14 -1.38194e-14 -2.56519e-15 0 0 -1.18192e-14 1.65139e-14 -3.24673e-14 3.51902e-14 0 0 -2.35575e-15 -3.40851e-15 -9.07188e-15 3.59986e-14 0 0 3.62434e-15 1.29228e-14 -2.15299e-14 3.28746e-14 0 0 0 2.4351e-14 -3.32663e-14 2.85957e-14 0
				</DataArray>
				<DataArray Name="VitesseY" type="Float32" format="ascii">