<?xml version="1.0"?>
<VTKFile type="PolyData">
	<PolyData>
		<Piece NumberOfPoints="1206" NumberOfPolys="1000">
			<Points>
				<DataArray type="Float32" NumberOfComponents="3" format="ascii">
 0 0 0 0.02 0 0 0.04 0 0 0.06 0 0 0.08 0 0 0.1 0 0 0 0.005 0 0.02 0.005 0 0.04 0.005 0 0.06 0.005 0 0.08 0.005 0 0.1 0.005 0 0 0.01 0 0.02 0.01 0 0.04 0.01 0 0.06 0.01 0 0.08 0.01 0 0.1 0.01 0 0 0.015 0 0.02 0.015 0 0.04 0.015 0 0.06 0.015 0 0.08 0.015 0 0.1 0.015 0 0 0.02 0 0.02 0.02 0 0.04 0.02 0 0.06 0.02 0 0.08 0.02 0 0.1 0.02 0 0 0.025 0 0.02 0.025 0 0.04 0.025 0 0.06 0.025 0 0.08 0.025 0 0.1 0.025 0 0 0.03 0 0.02 0.03 0 0.04 0.03 0 0.06 0.03 0 0.08 0.03 0 0.1 0.03 0 0 0.035 0 0.02 0.035 0 0.04 0.035 0 0.06 0.035 0 0.08 0.035 0 0.1 0.035 0 0 0.04 0 0.02 0.04 0 0.04 0.04 0 0.06 0.04 0 0.08 0.04 0 0.1 0.04 0 0 0.045 0 0.02 0.045 0 0.04 0.045 0 0.06 0.045 0 0.08 0.045 0 0.1 0.045 0 0 0.05 0 0.02 0.05 0 0.04 0.05 0 0.06 0.05 0 0.08 0.05 0 0.1 0.05 0 0 0.055 0 0.02 0.055 0 0.04 0.055 0 0.06 0.055 0 0.08 0.055 0 0.1 0.055 0 0 0.06 0 0.02 0.06 0 0.04 0.06 0 0.06 0.06 0 0.08 0.06 0 0.1 0.06 0 0 0.065 0 0.02 0.065 0 0.04 0.065 0 0.06 0.065 0 0.08 0.065 0 0.1 0.065 0 0 0.07 0 0.02 0.07 0 0.04 0.07 0 0.06 0.07 0 0.08 0.07 0 0.1 0.07 0 0 0.075 0 0.02 0.075 0 0.04 0.075 0 0.06 0.075 0 0.08 0.075 0 0.1 0.075 0 0 0.08 0 0.02 0.08 0 0.04 0.08 0 0.06 0.08 0 0.08 0.08 0 0.1 0.08 0 0 0.085 0 0.02 0.085 0 0.04 0.085 0 0.06 0.085 0 0.08 0.085 0 0.1 0.085 0 0 0.09 0 0.02 0.09 0 0.04 0.09 0 0.06 0.09 0 0.08 0.09 0 0.1 0.09 0 0 0.095 0 0.02 0.095 0 0.04 0.095 0 0.06 0.095 0 0.08 0.095 0 0.1 0.095 0 0 0.1 0 0.02 0.1 0 0.04 0.1 0 0.06 0.1 0 0.08 0.1 0 0.1 0.1 0 0 0.105 0 0.02 0.105 0 0.04 0.105 0 0.06 0.105 0 0.08 0.105 0 0.1 0.105 0 0 0.11 0 0.02 0.11 0 0.04 0.11 0 0.06 0.11 0 0.08 0.11 0 0.1 0.11 0 0 0.115 0 0.02 0.115 0 0.04 0.115 0 0.06 0.115 0 0.08 0.115 0 0.1 0.115 0 0 0.12 0 0.02 0.12 0 0.04 0.12 0 0.06 0.12 0 0.08 0.12 0 0.1 0.12 0 0 0.125 0 0.02 0.125 0 0.04 0.125 0 0.06 0.125 0 0.08 0.125 0 0.1 0.125 0 0 0.13 0 0.02 0.13 0 0.04 0.13 0 0.06 0.13 0 0.08 0.13 0 0.1 0.13 0 0 0.135 0 0.02 0.135 0 0.04 0.135 0 0.06 0.135 0 0.08 0.135 0 0.1 0.135 0 0 0.14 0 0.02 0.14 0 0.04 0.14 0 0.06 0.14 0 0.08 0.14 0 0.1 0.14 0 0 0.145 0 0.02 0.145 0 0.04 0.145 0 0.06 0.145 0 0.08 0.145 0 0.1 0.145 0 0 0.15 0 0.02 0.15 0 0.04 0.15 0 0.06 0.15 0 0.08 0.15 0 0.1 0.15 0 0 0.155 0 0.02 0.155 0 0.04 0.155 0 0.06 0.155 0 0.08 0.155 0 0.1 0.155 0 0 0.16 0 0.02 0.16 0 0.04 0.16 0 0.06 0.16 0 0.08 0.16 0 0.1 0.16 0 0 0.165 0 0.02 0.165 0 0.04 0.165 0 0.06 0.165 0 0.08 0.165 0 0.1 0.165 0 0 0.17 0 0.02 0.17 0 0.04 0.17 0 0.06 0.17 0 0.08 0.17 0 0.1 0.17 0 0 0.175 0 0.02 0.175 0 0.04 0.175 0 0.06 0.175 0 0.08 0.175 0 0.1 0.175 0 0 0.18 0 0.02 0.18 0 0.04 0.18 0 0.06 0.18 0 0.08 0.18 0 0.1 0.18 0 0 0.185 0 0.02 0.185 0 0.04 0.185 0 0.06 0.185 0 0.08 0.185 0 0.1 0.185 0 0 0.19 0 0.02 0.19 0 0.04 0.19 0 0.06 0.19 0 0.08 0.19 0 0.1 0.19 0 0 0.195 0 0.02 0.195 0 0.04 0.195 0 0.06 0.195 0 0.08 0.195 0 0.1 0.195 0 0 0.2 0 0.02 0.2 0 0.04 0.2 0 0.06 0.2 0 0.08 0.2 0 0.1 0.2 0 0 0.205 0 0.02 0.205 0 0.04 0.205 0 0.06 0.205 0 0.08 0.205 0 0.1 0.205 0 0 0.21 0 0.02 0.21 0 0.04 0.21 0 0.06 0.21 0 0.08 0.21 0 0.1 0.21 0 0 0.215 0 0.02 0.215 0 0.04 0.215 0 0.06 0.215 0 0.08 0.215 0 0.1 0.215 0 0 0.22 0 0.02 0.22 0 0.04 0.22 0 0.06 0.22 0 0.08 0.22 0 0.1 0.22 0 0 0.225 0 0.02 0.225 0 0.04 0.225 0 0.06 0.225 0 0.08 0.225 0 0.1 0.225 0 0 0.23 0 0.02 0.23 0 0.04 0.23 0 0.06 0.23 0 0.08 0.23 0 0.1 0.23 0 0 0.235 0 0.02 0.235 0 0.04 0.235 0 0.06 0.235 0 0.08 0.235 0 0.1 0.235 0 0 0.24 0 0.02 0.24 0 0.04 0.24 0 0.06 0.24 0 0.08 0.24 0 0.1 0.24 0 0 0.245 0 0.02 0.245 0 0.04 0.245 0 0.06 0.245 0 0.08 0.245 0 0.1 0.245 0 0 0.25 0 0.02 0.25 0 0.04 0.25 0 0.06 0.25 0 0.08 0.25 0 0.1 0.25 0 0 0.255 0 0.02 0.255 0 0.04 0.255 0 0.06 0.255 0 0.08 0.255 0 0.1 0.255 0 0 0.26 0 0.02 0.26 0 0.04 0.26 0 0.06 0.26 0 0.08 0.26 0 0.1 0.26 0 0 0.265 0 0.02 0.265 0 0.04 0.265 0 0.06 0.265 0 0.08 0.265 0 0.1 0.265 0 0 0.27 0 0.02 0.27 0 0.04 0.27 0 0.06 0.27 0 0.08 0.27 0 0.1 0.27 0 0 0.275 0 0.02 0.275 0 0.04 0.275 0 0.06 0.275 0 0.08 0.275 0 0.1 0.275 0 0 0.28 0 0.02 0.28 0 0.04 0.28 0 0.06 0.28 0 0.08 0.28 0 0.1 0.28 0 0 0.285 0 0.02 0.285 0 0.04 0.285 0 0.06 0.285 0 0.08 0.285 0 0.1 0.285 0 0 0.29 0 0.02 0.29 0 0.04 0.29 0 0.06 0.29 0 0.08 0.29 0 0.1 0.29 0 0 0.295 0 0.02 0.295 0 0.04 0.295 0 0.06 0.295 0 0.08 0.295 0 0.1 0.295 0 0 0.3 0 0.02 0.3 0 0.04 0.3 0 0.06 0.3 0 0.08 0.3 0 0.1 0.3 0 0 0.305 0 0.02 0.305 0 0.04 0.305 0 0.06 0.305 0 0.08 0.305 0 0.1 0.305 0 0 0.31 0 0.02 0.31 0 0.04 0.31 0 0.06 0.31 0 0.08 0.31 0 0.1 0.31 0 0 0.315 0 0.02 0.315 0 0.04 0.315 0 0.06 0.315 0 0.08 0.315 0 0.1 0.315 0 0 0.32 0 0.02 0.32 0 0.04 0.32 0 0.06 0.32 0 0.08 0.32 0 0.1 0.32 0 0 0.325 0 0.02 0.325 0 0.04 0.325 0 0.06 0.325 0 0.08 0.325 0 0.1 0.325 0 0 0.33 0 0.02 0.33 0 0.04 0.33 0 0.06 0.33 0 0.08 0.33 0 0.1 0.33 0 0 0.335 0 0.02 0.335 0 0.04 0.335 0 0.06 0.335 0 0.08 0.335 0 0.1 0.335 0 0 0.34 0 0.02 0.34 0 0.04 0.34 0 0.06 0.34 0 0.08 0.34 0 0.1 0.34 0 0 0.345 0 0.02 0.345 0 0.04 0.345 0 0.06 0.345 0 0.08 0.345 0 0.1 0.345 0 0 0.35 0 0.02 0.35 0 0.04 0.35 0 0.06 0.35 0 0.08 0.35 0 0.1 0.35 0 0 0.355001 0 0.02 0.355001 0 0.04 0.355001 0 0.06 0.355001 0 0.08 0.355001 0 0.1 0.355001 0 0 0.360005 0 0.02 0.360005 0 0.04 0.360005 0 0.06 0.360005 0 0.08 0.360005 0 0.1 0.360005 0 0 0.365016 0 0.02 0.365016 0 0.04 0.365016 0 0.06 0.365016 0 0.08 0.365016 0 0.1 0.365016 0 0 0.370047 0 0.02 0.370047 0 0.04 0.370047 0 0.06 0.370047 0 0.08 0.370047 0 0.1 0.370047 0 0 0.375119 0 0.02 0.375119 0 0.04 0.375119 0 0.06 0.375119 0 0.08 0.375119 0 0.1 0.375119 0 0 0.380264 0 0.02 0.380264 0 0.04 0.380264 0 0.06 0.380264 0 0.08 0.380264 0 0.1 0.380264 0 0 0.385519 0 0.02 0.385519 0 0.04 0.385519 0 0.06 0.385519 0 0.08 0.385519 0 0.1 0.385519 0 0 0.39092 0 0.02 0.39092 0 0.04 0.39092 0 0.06 0.39092 0 0.08 0.39092 0 0.1 0.39092 0 0 0.396498 0 0.02 0.396498 0 0.04 0.396498 0 0.06 0.396498 0 0.08 0.396498 0 0.1 0.396498 0 0 0.402278 0 0.02 0.402278 0 0.04 0.402278 0 0.06 0.402278 0 0.08 0.402278 0 0.1 0.402278 0 0 0.408286 0 0.02 0.408286 0 0.04 0.408286 0 0.06 0.408286 0 0.08 0.408286 0 0.1 0.408286 0 0 0.414547 0 0.02 0.414547 0 0.04 0.414547 0 0.06 0.414547 0 0.08 0.414547 0 0.1 0.414547 0 0 0.421088 0 0.02 0.421088 0 0.04 0.421088 0 0.06 0.421088 0 0.08 0.421088 0 0.1 0.421088 0 0 0.427942 0 0.02 0.427942 0 0.04 0.427942 0 0.06 0.427942 0 0.08 0.427942 0 0.1 0.427942 0 0 0.435145 0 0.02 0.435145 0 0.04 0.435145 0 0.06 0.435145 0 0.08 0.435145 0 0.1 0.435145 0 0 0.442737 0 0.02 0.442737 0 0.04 0.442737 0 0.06 0.442737 0 0.08 0.442737 0 0.1 0.442737 0 0 0.450769 0 0.02 0.450769 0 0.04 0.450769 0 0.06 0.450769 0 0.08 0.450769 0 0.1 0.450769 0 0 0.459298 0 0.02 0.459298 0 0.04 0.459298 0 0.06 0.459298 0 0.08 0.459298 0 0.1 0.459298 0 0 0.468393 0 0.02 0.468393 0 0.04 0.468393 0 0.06 0.468393 0 0.08 0.468393 0 0.1 0.468393 0 0 0.478132 0 0.02 0.478132 0 0.04 0.478132 0 0.06 0.478132 0 0.08 0.478132 0 0.1 0.478132 0 0 0.488599 0 0.02 0.488599 0 0.04 0.488599 0 0.06 0.488599 0 0.08 0.488599 0 0.1 0.488599 0 0 0.499858 0 0.02 0.499858 0 0.04 0.499858 0 0.06 0.499858 0 0.08 0.499858 0 0.1 0.499858 0 0 0.51185 0 0.02 0.51185 0 0.04 0.51185 0 0.06 0.51185 0 0.08 0.51185 0 0.1 0.51185 0 0 0.524127 0 0.02 0.524127 0 0.04 0.524127 0 0.06 0.524127 0 0.08 0.524127 0 0.1 0.524127 0 0 0.536236 0 0.02 0.536236 0 0.04 0.536236 0 0.06 0.536236 0 0.08 0.536236 0 0.1 0.536236 0 0 0.54818 0 0.02 0.54818 0 0.04 0.54818 0 0.06 0.54818 0 0.08 0.54818 0 0.1 0.54818 0 0 0.560006 0 0.02 0.560006 0 0.04 0.560006 0 0.06 0.560006 0 0.08 0.560006 0 0.1 0.560006 0 0 0.571776 0 0.02 0.571776 0 0.04 0.571776 0 0.06 0.571776 0 0.08 0.571776 0 0.1 0.571776 0 0 0.583528 0 0.02 0.583528 0 0.04 0.583528 0 0.06 0.583528 0 0.08 0.583528 0 0.1 0.583528 0 0 0.595287 0 0.02 0.595287 0 0.04 0.595287 0 0.06 0.595287 0 0.08 0.595287 0 0.1 0.595287 0 0 0.597898 0 0.02 0.597898 0 0.04 0.597898 0 0.06 0.597898 0 0.08 0.597898 0 0.1 0.597898 0 0 0.600436 0 0.02 0.600436 0 0.04 0.600436 0 0.06 0.600436 0 0.08 0.600436 0 0.1 0.600436 0 0 0.602928 0 0.02 0.602928 0 0.04 0.602928 0 0.06 0.602928 0 0.08 0.602928 0 0.1 0.602928 0 0 0.60539 0 0.02 0.60539 0 0.04 0.60539 0 0.06 0.60539 0 0.08 0.60539 0 0.1 0.60539 0 0 0.607831 0 0.02 0.607831 0 0.04 0.607831 0 0.06 0.607831 0 0.08 0.607831 0 0.1 0.607831 0 0 0.610257 0 0.02 0.610257 0 0.04 0.610257 0 0.06 0.610257 0 0.08 0.610257 0 0.1 0.610257 0 0 0.612673 0 0.02 0.612673 0 0.04 0.612673 0 0.06 0.612673 0 0.08 0.612673 0 0.1 0.612673 0 0 0.615086 0 0.02 0.615086 0 0.04 0.615086 0 0.06 0.615086 0 0.08 0.615086 0 0.1 0.615086 0 0 0.6175 0 0.02 0.6175 0 0.04 0.6175 0 0.06 0.6175 0 0.08 0.6175 0 0.1 0.6175 0 0 0.619898 0 0.02 0.619898 0 0.04 0.619898 0 0.06 0.619898 0 0.08 0.619898 0 0.1 0.619898 0 0 0.622286 0 0.02 0.622286 0 0.04 0.622286 0 0.06 0.622286 0 0.08 0.622286 0 0.1 0.622286 0 0 0.624668 0 0.02 0.624668 0 0.04 0.624668 0 0.06 0.624668 0 0.08 0.624668 0 0.1 0.624668 0 0 0.627047 0 0.02 0.627047 0 0.04 0.627047 0 0.06 0.627047 0 0.08 0.627047 0 0.1 0.627047 0 0 0.629425 0 0.02 0.629425 0 0.04 0.629425 0 0.06 0.629425 0 0.08 0.629425 0 0.1 0.629425 0 0 0.631803 0 0.02 0.631803 0 0.04 0.631803 0 0.06 0.631803 0 0.08 0.631803 0 0.1 0.631803 0 0 0.634177 0 0.02 0.634177 0 0.04 0.634177 0 0.06 0.634177 0 0.08 0.634177 0 0.1 0.634177 0 0 0.63655 0 0.02 0.63655 0 0.04 0.63655 0 0.06 0.63655 0 0.08 0.63655 0 0.1 0.63655 0 0 0.638921 0 0.02 0.638921 0 0.04 0.638921 0 0.06 0.638921 0 0.08 0.638921 0 0.1 0.638921 0 0 0.641293 0 0.02 0.641293 0 0.04 0.641293 0 0.06 0.641293 0 0.08 0.641293 0 0.1 0.641293 0 0 0.643664 0 0.02 0.643664 0 0.04 0.643664 0 0.06 0.643664 0 0.08 0.643664 0 0.1 0.643664 0 0 0.646034 0 0.02 0.646034 0 0.04 0.646034 0 0.06 0.646034 0 0.08 0.646034 0 0.1 0.646034 0 0 0.648403 0 0.02 0.648403 0 0.04 0.648403 0 0.06 0.648403 0 0.08 0.648403 0 0.1 0.648403 0 0 0.650772 0 0.02 0.650772 0 0.04 0.650772 0 0.06 0.650772 0 
[...]
			<PointData Scalars="VitesseX">
				<DataArray Name="VitesseX" type="Float32" format="ascii">
 0 -2.15886e-16 3.61421e-15 5.95025e-15 9.79924e-15 0 0 -8.69064e-17 3.29239e-15 6.05881e-15 9.63918e-15 0 0 1.17718e-18 2.32819e-15 5.41651e-15 9.49616e-15 0 0 5.5677e-16 1.15875e-15 3.98203e-15 9.42722e-15 0 0 -2.86175e-16 2.11324e-15 1.23594e-15 1.07021e-14 0 0 -9.43435e-16 3.12766e-15 1.93382e-17 1.08887e-14 0 0 -4.1389e-16 2.01924e-15 2.90876e-16 1.03344e-14 0 0 -2.13576e-15 3.06399e-15 -5.21932e-16 1.02454e-14 0 0 -2.79783e-15 4.96676e-15 -1.94406e-15 1.02741e-14 0 0 -1.21286e-15 5.1461e-15 -4.13553e-15 1.01283e-14 0 0 2.20808e-15 2.29764e-15 -2.84453e-15 7.76342e-15 0 0 3.30453e-15 1.21389e-15 -2.30253e-15 7.85779e-15 0 0 5.26823e-16 5.94388e-15 -6.16275e-15 8.75059e-15 0 0 2.65603e-15 1.43008e-15 -6.414e-16 4.19561e-15 0 0 2.52162e-15 -4.72951e-15 4.96685e-15 4.24785e-15 0 0 -2.27999e-15 -2.03867e-15 3.91282e-15 6.36118e-15 0 0 1.09904e-16 -3.61416e-15 1.97188e-15 6.85901e-15 0 0 2.25444e-15 -2.87053e-15 -2.4045e-15 9.58908e-15 0 0 2.20071e-16 -2.5998e-15 -8.9126e-16 7.40359e-15 0 0 -3.33438e-15 -2.51634e-15 1.02879e-15 2.63294e-15 0 0 -5.47956e-15 -1.35308e-15 1.95328e-15 -1.33835e-15 0 0 -4.22603e-15 -1.72592e-15 1.91362e-15 -4.03874e-15 0 0 -3.9616e-15 -2.29565e-15 5.17209e-15 -9.9252e-15 0 0 -4.62875e-15 -3.04557e-15 1.20241e-14 -1.44871e-14 0 0 -6.29956e-15 7.18206e-17 1.51152e-14 -1.81568e-14 0 0 -7.96015e-15 4.52105e-15 9.6947e-15 -1.04633e-14 0 0 -9.10109e-16 -1.58993e-15 7.61805e-15 4.49388e-15 0 0 1.11755e-14 -1.0312e-14 8.17371e-15 1.4572e-14 0 0 1.09906e-14 -4.32322e-15 1.01054e-14 9.29506e-15 0 0 6.92371e-15 2.77385e-15 1.28163e-14 -3.85344e-15 0 0 4.49418e-15 1.25777e-14 3.21378e-16 3.50072e-15 0 0 3.629e-15 1.68472e-14 -5.73083e-15 1.24162e-14 0 0 1.04559e-14 1.59807e-15 6.13751e-15 4.33339e-15 0 0 1.25311e-14 -1.86977e-15 5.39528e-15 1.76758e-15 0 0 9.47975e-15 1.39427e-14 -7.86949e-15 5.62174e-15 0 0 1.12999e-14 1.71284e-14 3.18587e-16 -1.02256e-14 0 0 1.50332e-14 7.90162e-15 1.93023e-14 -2.45796e-14 0 0 1.18582e-14 5.2889e-15 2.85968e-14 -2.33374e-14 0 0 9.1228e-15 1.06022e-14 1.50062e-14 -1.4826e-14 0 0 4.35314e-15 1.49658e-14 1.30175e-15 -6.59268e-15 0 0 1.25677e-14 -6.81696e-16 -2.53421e-16 4.36998e-15 0 0 1.53531e-14 -2.37818e-15 -2.01418e-15 5.34867e-15 0 0 9.52796e-15 8.37195e-15 -6.31595e-15 1.05236e-15 0 0 1.32601e-14 5.35111e-15 -1.31284e-14 8.20048e-15 0 0 1.06433e-14 -1.60522e-15 -3.68864e-15 1.3302e-14 0 0 5.00036e-16 2.88732e-16 8.10067e-16 1.15737e-14 0 0 -6.31158e-15 7.41149e-15 -2.80908e-15 6.51269e-15 0 0 7.7261e-15 -4.40935e-15 -3.95654e-16 1.74537e-15 0 0 1.15445e-14 -1.13262e-14 9.77149e-15 -1.28397e-14 0 0 7.24443e-15 -4.34372e-15 1.15645e-14 -1.7697e-14 0 0 -1.53052e-16 1.9135e-14 -6.9374e-15 -1.23623e-14 0 0 -5.04072e-15 3.19187e-14 -1.08047e-14 -8.43004e-15 0 0 1.18584e-14 1.3268e-14 6.28385e-16 -9.28289e-15 0 0 2.64376e-14 -9.5244e-15 1.38001e-14 -1.39259e-14 0 0 1.98156e-14 -1.05044e-14 2.95289e-15 3.4807e-15 0 0 1.74759e-14 -5.19634e-15 -1.91365e-15 1.04536e-14 0 0 8.98967e-15 7.65802e-15 4.73231e-15 8.06392e-15 0 0 -7.16281e-16 2.08458e-14 -1.05848e-15 8.48253e-15 0 0 8.7343e-15 1.21974e-14 7.73135e-15 -8.80269e-15 0 0 8.27713e-15 1.23282e-14 1.45486e-14 -2.39953e-14 0 0 1.66679e-14 1.14258e-14 1.14837e-14 -4.23426e-15 0 0 1.93967e-14 1.72917e-14 6.96305e-15 2.71508e-14 0 0 -1.15679e-14 2.4409e-14 2.57215e-14 1.06452e-15 0 0 -2.11166e-14 1.3465e-14 2.09139e-14 -1.06958e-14 0 0 -1.02883e-14 -6.67507e-15 -1.15375e-14 2.10189e-14 0 0 -2.58066e-14 -3.52578e-14 1.31492e-14 2.02026e-14 0 0 -3.66967e-14 -5.52944e-14 8.08302e-15 2.33267e-14 0 0 -2.05649e-14 -5.02793e-14 -3.25419e-14 2.90534e-14 0 0 3.74079e-15 -3.32403e-14 -3.09544e-14 -4.46152e-15 0 0 -2.78884e-15 -2.69456e-14 -2.39947e-14 -1.60035e-14 0 0 -2.36639e-14 -9.26827e-15 -3.4134e-14 -1.07817e-14 0 0 -2.20484e-14 -1.01248e-14 -2.14194e-14 -1.24355e-14 0 0 -4.01858e-14 6.8944e-15 -3.75734e-14 8.93725e-15 0 0 -3.40926e-14 1.55104e-14 -5.6153e-14 2.78824e-14 0 0 -9.2694e-15 -6.17656e-15 -4.01969e-14 2.49416e-14 0 0 -2.36132e-14 -9.91247e-15 -2.38098e-14 -3.9859e-17 0 0 -4.09813e-14 -1.80635e-14 -2.2339e-15 4.41852e-15 0 0 -2.76631e-14 -2.52232e-14 -1.74546e-14 1.98467e-14 0 0 -4.47374e-15 -5.3004e-14 2.60679e-15 -3.1947e-15 0 0 -3.15618e-14 -2.71121e-14 -6.30393e-17 1.22861e-14 0 0 -4.13387e-14 2.31857e-16 -1.83595e-14 1.61333e-14 0 0 -1.71186e-14 -2.44463e-14 5.38744e-15 -1.55436e-14 0 0 -1.44543e-14 -1.70384e-14 -1.97447e-15 -6.13065e-16 0 0 -8.56744e-15 -2.00536e-14 1.56839e-14 -3.11335e-14 0 0 -8.29528e-15 -2.94938e-14 2.07326e-14 -2.8839e-14 0 0 -4.5654e-14 -8.14561e-15 -1.47178e-14 1.91273e-14 0 0 -3.06476e-14 -6.38374e-15 -3.24623e-14 1.97505e-14 0 0 4.42981e-15 -1.96355e-14 -2.40148e-14 6.53429e-15 0 0 -1.48306e-14 -1.52518e-15 -2.44046e-14 5.66958e-15 0 0 -3.03354e-14 -1.03911e-14 -8.90887e-15 1.5907e-15 0 0 1.01224e-14 -2.53325e-14 8.03623e-15 -1.4763e-14 0 0 9.8307e-15 -1.8641e-14 -8.9865e-15 -3.2058e-14 0 0 -3.94594e-14 -1.03641e-14 -3.14399e-14 -1.52571e-14 0 0 -4.56574e-14 -6.24633e-14 -8.37224e-14 -4.77602e-14 0 0 -9.13825e-14 -1.88555e-13 -1.77379e-13 -1.19479e-13 0 0 -1.4708e-13 -2.24523e-13 -2.22556e-13 -1.12365e-13 0 0 -7.03839e-14 -1.01748e-13 -9.20659e-14 -3.94303e-14 0 0 1.09775e-13 1.59904e-13 1.88755e-13 9.8496e-14 0 0 2.96455e-13 4.68484e-13 4.81999e-13 2.8224e-13 0 0 4.52549e-13 7.23211e-13 7.26618e-13 4.31109e-13 0 0 5.78786e-13 9.35385e-13 9.28893e-13 5.69901e-13 0 0 1.04288e-12 1.70374e-12 1.68459e-12 1.09666e-12 0 0 1.03912e-12 1.73436e-12 1.67687e-12 1.02586e-12 0 0 1.05498e-12 1.78499e-12 1.72177e-12 1.03813e-12 0 0 1.1084e-12 1.81413e-12 1.80508e-12 1.10555e-12 0 0 1.15986e-12 1.86284e-12 1.83014e-12 1.17287e-12 0 0 1.15546e-12 1.84435e-12 1.80495e-12 1.18516e-12 0 0 1.00699e-12 1.6361e-12 1.61127e-12 1.02152e-12 0 0 6.53857e-13 1.0707e-12 1.07234e-12 6.23588e-13 0 0 2.42168e-13 3.59995e-13 3.9556e-13 1.61495e-13 0 0 -1.31645e-13 -2.29465e-13 -2.04499e-13 -1.69684e-13 0 0 -3.72136e-13 -5.74124e-13 -6.05566e-13 -3.64294e-13 0 0 -4.15834e-13 -6.82275e-13 -7.22514e-13 -4.69495e-13 0 0 -3.93446e-13 -6.61467e-13 -6.55304e-13 -4.43004e-13 0 0 -3.6238e-13 -5.28151e-13 -4.9947e-13 -3.86024e-13 0 0 -2.66504e-13 -3.62922e-13 -3.24108e-13 -3.12797e-13 0 0 -1.54769e-13 -2.06926e-13 -1.53603e-13 -2.02804e-13 0 0 -5.85374e-14 -6.87071e-14 -1.90847e-14 -1.39949e-13 0 0 1.96908e-15 8.76391e-14 4.07537e-14 -2.55599e-14 0 0 5.17172e-14 1.99266e-13 1.60089e-13 9.43452e-14 0 0 1.16542e-13 2.46948e-13 3.08452e-13 9.02632e-14 0 0 1.532e-13 3.22252e-13 4.21338e-13 8.43605e-14 0 0 1.76893e-13 3.96654e-13 4.55555e-13 1.92817e-13 0 0 2.40139e-13 3.94343e-13 4.66824e-13 2.18408e-13 0 0 2.73457e-13 3.55278e-13 5.13453e-13 2.04941e-13 0 0 2.63089e-13 3.94737e-13 4.76802e-13 2.01428e-13 0 0 2.48044e-13 4.22734e-13 4.08344e-13 2.85087e-13 0 0 2.12349e-13 4.14988e-13 3.34881e-13 3.80563e-13 0 0 1.98361e-13 3.62854e-13 3.12829e-13 3.09429e-13 0 0 1.76976e-13 2.59739e-13 2.93652e-13 2.68931e-13 0 0 1.38799e-13 2.03036e-13 2.19771e-13 2.26829e-13 0 0 7.61256e-14 1.70359e-13 1.30002e-13 1.56823e-13 0 0 3.92148e-14 5.44889e-14 1.0636e-13 6.61335e-14 0 0 -9.89799e-16 -1.75105e-14 6.56629e-14 1.23791e-13 0 0 -4.61698e-14 -6.67044e-14 -5.66015e-14 9.51108e-14 0 0 -5.93975e-14 -1.55268e-13 -8.0379e-14 -8.135e-14 0 0 -1.0556e-13 -1.7491e-13 -1.13252e-13 -1.10621e-13 0 0 -1.19671e-13 -1.94218e-13 -1.33931e-13 -1.05244e-13 0 0 -8.0269e-14 -1.96666e-13 -1.25953e-13 -1.36704e-13 0 0 -6.9745e-14 -1.21796e-13 -1.27951e-13 -9.18499e-14 0 0 -6.59327e-14 -8.21109e-14 -7.54067e-14 -5.41965e-14 0 0 -4.37772e-14 -5.68265e-14 -3.22632e-14 -7.69655e-14 0 0 -3.5101e-14 -2.78969e-14 -2.78238e-14 -6.25783e-14 0 0 -2.82361e-14 -2.52586e-14 -2.11377e-14 -4.37122e-14 0 0 -3.36921e-14 -1.44937e-14 -9.15112e-15 -1.40715e-14 0 0 -3.53197e-14 -1.54322e-14 -1.74579e-15 -1.04444e-14 0 0 -1.50998e-14 -3.77853e-14 2.74201e-14 -1.06365e-14 0 0 -1.62482e-14 -1.67543e-14 1.21169e-14 -1.44014e-14 0 0 -1.84639e-14 5.73956e-15 -4.37871e-15 -1.58488e-14 0 0 -1.48957e-14 6.56313e-15 6.09275e-15 -1.7409e-14 0 0 -9.59293e-15 6.5632e-15 -3.4763e-15 -1.03975e-14 0 0 7.78877e-15 -4.30193e-15 -3.22213e-15 1.12202e-14 0 0 1.71391e-14 -6.75365e-15 -1.05828e-14 5.77366e-15 0 0 4.73518e-15 -4.33194e-15 4.96732e-15 -9.67102e-15 0 0 2.59707e-15 -1.07132e-14 2.98989e-14 -4.46567e-14 0 0 2.57737e-14 -2.84777e-14 3.77036e-14 -5.47051e-14 0 0 4.35069e-14 -6.6256e-14 5.91494e-14 -3.71365e-14 0 0 1.33739e-14 -3.23055e-14 2.22875e-14 1.50808e-14 0 0 -6.5797e-15 9.20852e-15 -1.85754e-14 6.95916e-14 0 0 3.04831e-14 -3.83215e-14 5.60258e-15 8.85927e-14 0 0 2.89525e-14 -3.19272e-14 -2.64765e-15 1.3932e-13 0 0 3.05859e-14 -8.65274e-15 -3.11114e-14 1.62908e-13 0 0 1.89656e-14 9.15767e-15 -5.94204e-15 1.40514e-13 0 0 2.24027e-14 2.05802e-14 7.69309e-15 8.29621e-14 0 0 3.72428e-14 3.05539e-14 -1.29617e-14 -1.29233e-14 0 0 -1.38075e-14 1.24388e-13 -1.12882e-13 3.66029e-14 0 0 -2.5728e-14 1.4244e-13 -1.44448e-13 6.48425e-14 0 0 3.31564e-14 2.67111e-14 -2.99051e-14 -4.80274e-15 0 0 5.9909e-14 -2.60118e-14 -3.95091e-14 6.29414e-14 0 0 4.04149e-14 -2.12779e-15 -9.79846e-14 1.02323e-13 0 0 3.03473e-14 -1.03362e-14 -2.48508e-14 6.0311e-15 0 0 -1.22596e-15 3.64365e-14 -3.2377e-14 -1.60816e-14 0 0 -3.09252e-15 1.69103e-14 -5.7929e-14 3.79624e-14 0 0 2.88703e-14 -5.15286e-14 -2.83796e-14 3.52961e-14 0 0 2.77129e-14 -2.74929e-14 -1.7385e-14 5.51082e-15 0 0 7.16679e-15 -2.41236e-14 4.23346e-14 -2.96832e-14 0 0 -3.98506e-14 -7.42691e-15 9.77303e-14 -7.66918e-14 0 0 -5.00664e-14 2.59608e-14 1.12776e-13 -9.94816e-14 0 0 -4.10447e-14 6.5136e-14 7.4372e-14 -9.97372e-14 0 0 -1.51659e-14 9.42694e-15 9.06232e-14 -7.37377e-14 0 0 3.06616e-14 -3.81565e-14 9.07619e-14 -1.64319e-14 0 0 4.83425e-14 1.43097e-14 1.68589e-14 3.98254e-14 0 0 2.28195e-14 2.68074e-14 4.75284e-14 2.44767e-14 0 0 -1.17655e-14 1.38945e-14 8.94693e-14 -1.35497e-14 0 0 1.17794e-14 3.04639e-16 6.01449e-14 -1.05016e-14 0 0 5.04391e-15 5.88557e-15 3.47933e-14 5.44273e-15 0 0 -2.42511e-15 7.75938e-15 -5.96748e-15 1.61196e-14 0 0 6.13694e-15 1.81362e-14 1.06133e-14 -5.98795e-14 0 0 -7.00548e-16 6.09011e-14 -2.63321e-16 -6.85449e-14 0 0 2.35934e-14 7.34294e-14 -8.5371e-15 -7.6061e-14 0 0 4.33547e-14 7.07478e-14 5.53164e-14 -1.52461e-13 0 0 2.8021e-14 4.70463e-14 5.8281e-14 -8.0187e-14 0 0 2.74837e-14 3.87887e-14 1.20315e-14 1.5216e-14 0 0 2.4111e-14 6.92455e-14 -1.13095e-14 4.92713e-14 0 0 1.21229e-14 5.9074e-14 1.93079e-14 6.13253e-14 0 0 4.77004e-14 -3.05137e-15 5.10282e-14 6.55273e-14 0 0 5.98617e-14 -5.53841e-15 4.56971e-14 2.47991e-14 0 0 1.13284e-14 8.26767e-14 4.70807e-15 -4.63873e-14 0 0 -1.18336e-14 1.25012e-13 -4.96663e-15 -7.89281e-14 0 0 2.37754e-14 7.12383e-14 1.07815e-13 -1.51427e-13 0 0 5.61281e-14 1.53288e-14 2.04543e-13 -2.14581e-13 0
				</DataArray>
				<DataArray Name="VitesseY" type="Float32" format="ascii">