<?xml version="1.0"?>
<VTKFile type="PolyData">
	<PolyData>
		<Piece NumberOfPoints="1206" NumberOfPolys="1000">
			<Points>
				<DataArray type="Float32" NumberOfComponents="3" format="ascii">
 0 0 0 0.02 0 0 0.04 0 0 0.06 0 0 0.08 0 0 0.1 0 0 0 0.005 0 0.02 0.005 0 0.04 0.005 0 0.06 0.005 0 0.08 0.005 0 0.1 0.005 0 0 0.01 0 0.02 0.01 0 0.04 0.01 0 0.06 0.01 0 0.08 0.01 0 0.1 0.01 0 0 0.015 0 0.02 0.015 0 0.04 0.015 0 0.06 0.015 0 0.08 0.015 0 0.1 0.015 0 0 0.02 0 0.02 0.02 0 0.04 0.02 0 0.06 0.02 0 0.08 0.02 0 0.1 0.02 0 0 0.025 0 0.02 0.025 0 0.04 0.025 0 0.06 0.025 0 0.08 0.025 0 0.1 0.025 0 0 0.03 0 0.02 0.03 0 0.04 0.03 0 0.06 0.03 0 0.08 0.03 0 0.1 0.03 0 0 0.035 0 0.02 0.035 0 0.04 0.035 0 0.06 0.035 0 0.08 0.035 0 0.1 0.035 0 0 0.04 0 0.02 0.04 0 0.04 0.04 0 0.06 0.04 0 0.08 0.04 0 0.1 0.04 0 0 0.045 0 0.02 0.045 0 0.04 0.045 0 0.06 0.045 0 0.08 0.045 0 0.1 0.045 0 0 0.05 0 0.02 0.05 0 0.04 0.05 0 0.06 0.05 0 0.08 0.05 0 0.1 0.05 0 0 0.055 0 0.02 0.055 0 0.04 0.055 0 0.06 0.055 0 0.08 0.055 0 0.1 0.055 0 0 0.06 0 0.02 0.06 0 0.04 0.06 0 0.06 0.06 0 0.08 0.06 0 0.1 0.06 0 0 0.065 0 0.02 0.065 0 0.04 0.065 0 0.06 0.065 0 0.08 0.065 0 0.1 0.065 0 0 0.07 0 0.02 0.07 0 0.04 0.07 0 0.06 0.07 0 0.08 0.07 0 0.1 0.07 0 0 0.075 0 0.02 0.075 0 0.04 0.075 0 0.06 0.075 0 0.08 0.075 0 0.1 0.075 0 0 0.08 0 0.02 0.08 0 0.04 0.08 0 0.06 0.08 0 0.08 0.08 0 0.1 0.08 0 0 0.085 0 0.02 0.085 0 0.04 0.085 0 0.06 0.085 0 0.08 0.085 0 0.1 0.085 0 0 0.09 0 0.02 0.09 0 0.04 0.09 0 0.06 0.09 0 0.08 0.09 0 0.1 0.09 0 0 0.095 0 0.02 0.095 0 0.04 0.095 0 0.06 0.095 0 0.08 0.095 0 0.1 0.095 0 0 0.1 0 0.02 0.1 0 0.04 0.1 0 0.06 0.1 0 0.08 0.1 0 0.1 0.1 0 0 0.105 0 0.02 0.105 0 0.04 0.105 0 0.06 0.105 0 0.08 0.105 0 0.1 0.105 0 0 0.11 0 0.02 0.11 0 0.04 0.11 0 0.06 0.11 0 0.08 0.11 0 0.1 0.11 0 0 0.115 0 0.02 0.115 0 0.04 0.115 0 0.06 0.115 0 0.08 0.115 0 0.1 0.115 0 0 0.12 0 0.02 0.12 0 0.04 0.12 0 0.06 0.12 0 0.08 0.12 0 0.1 0.12 0 0 0.125 0 0.02 0.125 0 0.04 0.125 0 0.06 0.125 0 0.08 0.125 0 0.1 0.125 0 0 0.13 0 0.02 0.13 0 0.04 0.13 0 0.06 0.13 0 0.08 0.13 0 0.1 0.13 0 0 0.135 0 0.02 0.135 0 0.04 0.135 0 0.06 0.135 0 0.08 0.135 0 0.1 0.135 0 0 0.14 0 0.02 0.14 0 0.04 0.14 0 0.06 0.14 0 0.08 0.14 0 0.1 0.14 0 0 0.145 0 0.02 0.145 0 0.04 0.145 0 0.06 0.145 0 0.08 0.145 0 0.1 0.145 0 0 0.15 0 0.02 0.15 0 0.04 0.15 0 0.06 0.15 0 0.08 0.15 0 0.1 0.15 0 0 0.155 0 0.02 0.155 0 0.04 0.155 0 0.06 0.155 0 0.08 0.155 0 0.1 0.155 0 0 0.16 0 0.02 0.16 0 0.04 0.16 0 0.06 0.16 0 0.08 0.16 0 0.1 0.16 0 0 0.165 0 0.02 0.165 0 0.04 0.165 0 0.06 0.165 0 0.08 0.165 0 0.1 0.165 0 0 0.17 0 0.02 0.17 0 0.04 0.17 0 0.06 0.17 0 0.08 0.17 0 0.1 0.17 0 0 0.175 0 0.02 0.175 0 0.04 0.175 0 0.06 0.175 0 0.08 0.175 0 0.1 0.175 0 0 0.18 0 0.02 0.18 0 0.04 0.18 0 0.06 0.18 0 0.08 0.18 0 0.1 0.18 0 0 0.185 0 0.02 0.185 0 0.04 0.185 0 0.06 0.185 0 0.08 0.185 0 0.1 0.185 0 0 0.19 0 0.02 0.19 0 0.04 0.19 0 0.06 0.19 0 0.08 0.19 0 0.1 0.19 0 0 0.195 0 0.02 0.195 0 0.04 0.195 0 0.06 0.195 0 0.08 0.195 0 0.1 0.195 0 0 0.2 0 0.02 0.2 0 0.04 0.2 0 0.06 0.2 0 0.08 0.2 0 0.1 0.2 0 0 0.205 0 0.02 0.205 0 0.04 0.205 0 0.06 0.205 0 0.08 0.205 0 0.1 0.205 0 0 0.21 0 0.02 0.21 0 0.04 0.21 0 0.06 0.21 0 0.08 0.21 0 0.1 0.21 0 0 0.215 0 0.02 0.215 0 0.04 0.215 0 0.06 0.215 0 0.08 0.215 0 0.1 0.215 0 0 0.22 0 0.02 0.22 0 0.04 0.22 0 0.06 0.22 0 0.08 0.22 0 0.1 0.22 0 0 0.225 0 0.02 0.225 0 0.04 0.225 0 0.06 0.225 0 0.08 0.225 0 0.1 0.225 0 0 0.23 0 0.02 0.23 0 0.04 0.23 0 0.06 0.23 0 0.08 0.23 0 0.1 0.23 0 0 0.235 0 0.02 0.235 0 0.04 0.235 0 0.06 0.235 0 0.08 0.235 0 0.1 0.235 0 0 0.24 0 0.02 0.24 0 0.04 0.24 0 0.06 0.24 0 0.08 0.24 0 0.1 0.24 0 0 0.245 0 0.02 0.245 0 0.04 0.245 0 0.06 0.245 0 0.08 0.245 0 0.1 0.245 0 0 0.25 0 0.02 0.25 0 0.04 0.25 0 0.06 0.25 0 0.08 0.25 0 0.1 0.25 0 0 0.255 0 0.02 0.255 0 0.04 0.255 0 0.06 0.255 0 0.08 0.255 0 0.1 0.255 0 0 0.26 0 0.02 0.26 0 0.04 0.26 0 0.06 0.26 0 0.08 0.26 0 0.1 0.26 0 0 0.265 0 0.02 0.265 0 0.04 0.265 0 0.06 0.265 0 0.08 0.265 0 0.1 0.265 0 0 0.27 0 0.02 0.27 0 0.04 0.27 0 0.06 0.27 0 0.08 0.27 0 0.1 0.27 0 0 0.275 0 0.02 0.275 0 0.04 0.275 0 0.06 0.275 0 0.08 0.275 0 0.1 0.275 0 0 0.28 0 0.02 0.28 0 0.04 0.28 0 0.06 0.28 0 0.08 0.28 0 0.1 0.28 0 0 0.285 0 0.02 0.285 0 0.04 0.285 0 0.06 0.285 0 0.08 0.285 0 0.1 0.285 0 0 0.29 0 0.02 0.29 0 0.04 0.29 0 0.06 0.29 0 0.08 0.29 0 0.1 0.29 0 0 0.295 0 0.02 0.295 0 0.04 0.295 0 0.06 0.295 0 0.08 0.295 0 0.1 0.295 0 0 0.300001 0 0.02 0.300001 0 0.04 0.300001 0 0.06 0.300001 0 0.08 0.300001 0 0.1 0.300001 0 0 0.305002 0 0.02 0.305002 0 0.04 0.305002 0 0.06 0.305002 0 0.08 0.305002 0 0.1 0.305002 0 0 0.310006 0 0.02 0.310006 0 0.04 0.310006 0 0.06 0.310006 0 0.08 0.310006 0 0.1 0.310006 0 0 0.315017 0 0.02 0.315017 0 0.04 0.315017 0 0.06 0.315017 0 0.08 0.315017 0 0.1 0.315017 0 0 0.320044 0 0.02 0.320044 0 0.04 0.320044 0 0.06 0.320044 0 0.08 0.320044 0 0.1 0.320044 0 0 0.3251 0 0.02 0.3251 0 0.04 0.3251 0 0.06 0.3251 0 0.08 0.3251 0 0.1 0.3251 0 0 0.330205 0 0.02 0.330205 0 0.04 0.330205 0 0.06 0.330205 0 0.08 0.330205 0 0.1 0.330205 0 0 0.335383 0 0.02 0.335383 0 0.04 0.335383 0 0.06 0.335383 0 0.08 0.335383 0 0.1 0.335383 0 0 0.340656 0 0.02 0.340656 0 0.04 0.340656 0 0.06 0.340656 0 0.08 0.340656 0 0.1 0.340656 0 0 0.346042 0 0.02 0.346042 0 0.04 0.346042 0 0.06 0.346042 0 0.08 0.346042 0 0.1 0.346042 0 0 0.351557 0 0.02 0.351557 0 0.04 0.351557 0 0.06 0.351557 0 0.08 0.351557 0 0.1 0.351557 0 0 0.357214 0 0.02 0.357214 0 0.04 0.357214 0 0.06 0.357214 0 0.08 0.357214 0 0.1 0.357214 0 0 0.363026 0 0.02 0.363026 0 0.04 0.363026 0 0.06 0.363026 0 0.08 0.363026 0 0.1 0.363026 0 0 0.369004 0 0.02 0.369004 0 0.04 0.369004 0 0.06 0.369004 0 0.08 0.369004 0 0.1 0.369004 0 0 0.375161 0 0.02 0.375161 0 0.04 0.375161 0 0.06 0.375161 0 0.08 0.375161 0 0.1 0.375161 0 0 0.38151 0 0.02 0.38151 0 0.04 0.38151 0 0.06 0.38151 0 0.08 0.38151 0 0.1 0.38151 0 0 0.388066 0 0.02 0.388066 0 0.04 0.388066 0 0.06 0.388066 0 0.08 0.388066 0 0.1 0.388066 0 0 0.394846 0 0.02 0.394846 0 0.04 0.394846 0 0.06 0.394846 0 0.08 0.394846 0 0.1 0.394846 0 0 0.401867 0 0.02 0.401867 0 0.04 0.401867 0 0.06 0.401867 0 0.08 0.401867 0 0.1 0.401867 0 0 0.409149 0 0.02 0.409149 0 0.04 0.409149 0 0.06 0.409149 0 0.08 0.409149 0 0.1 0.409149 0 0 0.416715 0 0.02 0.416715 0 0.04 0.416715 0 0.06 0.416715 0 0.08 0.416715 0 0.1 0.416715 0 0 0.42459 0 0.02 0.42459 0 0.04 0.42459 0 0.06 0.42459 0 0.08 0.42459 0 0.1 0.42459 0 0 0.432803 0 0.02 0.432803 0 0.04 0.432803 0 0.06 0.432803 0 0.08 0.432803 0 0.1 0.432803 0 0 0.441387 0 0.02 0.441387 0 0.04 0.441387 0 0.06 0.441387 0 0.08 0.441387 0 0.1 0.441387 0 0 0.450377 0 0.02 0.450377 0 0.04 0.450377 0 0.06 0.450377 0 0.08 0.450377 0 0.1 0.450377 0 0 0.459817 0 0.02 0.459817 0 0.04 0.459817 0 0.06 0.459817 0 0.08 0.459817 0 0.1 0.459817 0 0 0.46975 0 0.02 0.46975 0 0.04 0.46975 0 0.06 0.46975 0 0.08 0.46975 0 0.1 0.46975 0 0 0.480225 0 0.02 0.480225 0 0.04 0.480225 0 0.06 0.480225 0 0.08 0.480225 0 0.1 0.480225 0 0 0.49128 0 0.02 0.49128 0 0.04 0.49128 0 0.06 0.49128 0 0.08 0.49128 0 0.1 0.49128 0 0 0.50292 0 0.02 0.50292 0 0.04 0.50292 0 0.06 0.50292 0 0.08 0.50292 0 0.1 0.50292 0 0 0.51502 0 0.02 0.51502 0 0.04 0.51502 0 0.06 0.51502 0 0.08 0.51502 0 0.1 0.51502 0 0 0.527194 0 0.02 0.527194 0 0.04 0.527194 0 0.06 0.527194 0 0.08 0.527194 0 0.1 0.527194 0 0 0.539248 0 0.02 0.539248 0 0.04 0.539248 0 0.06 0.539248 0 0.08 0.539248 0 0.1 0.539248 0 0 0.551181 0 0.02 0.551181 0 0.04 0.551181 0 0.06 0.551181 0 0.08 0.551181 0 0.1 0.551181 0 0 0.563018 0 0.02 0.563018 0 0.04 0.563018 0 0.06 0.563018 0 0.08 0.563018 0 0.1 0.563018 0 0 0.574797 0 0.02 0.574797 0 0.04 0.574797 0 0.06 0.574797 0 0.08 0.574797 0 0.1 0.574797 0 0 0.586547 0 0.02 0.586547 0 0.04 0.586547 0 0.06 0.586547 0 0.08 0.586547 0 0.1 0.586547 0 0 0.598285 0 0.02 0.598285 0 0.04 0.598285 0 0.06 0.598285 0 0.08 0.598285 0 0.1 0.598285 0 0 0.61002 0 0.02 0.61002 0 0.04 0.61002 0 0.06 0.61002 0 0.08 0.61002 0 0.1 0.61002 0 0 0.621755 0 0.02 0.621755 0 0.04 0.621755 0 0.06 0.621755 0 0.08 0.621755 0 0.1 0.621755 0 0 0.633503 0 0.02 0.633503 0 0.04 0.633503 0 0.06 0.633503 0 0.08 0.633503 0 0.1 0.633503 0 0 0.636113 0 0.02 0.636113 0 0.04 0.636113 0 0.06 0.636113 0 0.08 0.636113 0 0.1 0.636113 0 0 0.63865 0 0.02 0.63865 0 0.04 0.63865 0 0.06 0.63865 0 0.08 0.63865 0 0.1 0.63865 0 0 0.64114 0 0.02 0.64114 0 0.04 0.64114 0 0.06 0.64114 0 0.08 0.64114 0 0.1 0.64114 0 0 0.643601 0 0.02 0.643601 0 0.04 0.643601 0 0.06 0.643601 0 0.08 0.643601 0 0.1 0.643601 0 0 0.64604 0 0.02 0.64604 0 0.04 0.64604 0 0.06 0.64604 0 0.08 0.64604 0 0.1 0.64604 0 0 0.648463 0 0.02 0.648463 0 0.04 0.648463 0 0.06 0.648463 0 0.08 0.648463 0 0.1 0.648463 0 0 0.650876 0 0.02 0.650876 0 0.04 0.650876 0 0.06 0.650876 0 0.08 0.650876 0 0.1 0.650876 0 0 0.653288 0 0.02 0.653288 0 0.04 0.653288 0 0.06 0.653288 0 0.08 0.653288 0 0.1 0.653288 0 0 0.655701 0 0.02 0.655701 0 0.04 0.655701 0 0.06 0.655701 0 0.08 0.655701 0 0.1 0.655701 0 0 0.658098 0 0.02 0.658098 0 0.04 0.658098 0 0.06 0.658098 0 0.08 0.658098 0 0.1 0.658098 0 0 0.660485 0 0.02 0.660485 0 0.04 0.660485 0 0.06 0.660485 0 0.08 0.660485 0 0.1 0.660485 0 0 0.662866 0 0.02 0.662866 0 0.04 0.662866 0 0.06 0.662866 0 0.08 0.662866 0 0.1 0.662866 0 0 0.665244 0 0.02 0.665244 0 0.04 0.665244 0 0.06 0.665244 0 0.08 0.665244 0 0.1 0.665244 0 0 0.667621 0 0.02 0.667621 0 0.04 0.667621 0 0.06 0.667621 0 0.08 0.667621 0 0.1 0.667621 0 0 0.669998 0 0.02 0.669998 0 0.04 0.669998 0 0.06 0.669998 0 0.08 0.669998 0 0.1 0.669998 0 0 0.672371 0 0.02 0.672371 0 0.04 0.672371 0 0.06 0.672371 0 0.08 0.672371 0 0.1 0.672371 0 0 0.674741 0 0.02 0.674741 0 0.04 0.674741 0 0.06 0.674741 0 0.08 0.674741 0 0.1 0.674741 0 0 0.677108 0 0.02 0.677108 0 0.04 0.677108 0 0.06 0.677108 0 0.08 0.677108 0 0.1 0.677108 0 0 0.679476 0 0.02 0.679476 0 0.04 0.679476 0 0.06 0.679476 0 0.08 0.679476 0 0.1 0.679476 0 0 0.681844 0 0.02 0.681844 0 0.04 0.681844 0 0.06 0.681844 0 0.08 0.681844 0 0.1 0.681844 0 0 0.68421 0 0.02 0.68421 0 0.04 0.6
[...]
			<PointData Scalars="VitesseX">
				<DataArray Name="VitesseX" type="Float32" format="ascii">
 0 0 0 0 0 0 0 3.24056e-15 2.24508e-15 2.59648e-15 5.02315e-15 0 0 3.66524e-15 2.25267e-15 1.96872e-15 5.61181e-15 0 0 2.89122e-15 3.97322e-15 -1.19432e-16 7.00879e-15 0 0 1.90475e-15 5.87611e-15 -1.10704e-15 7.09185e-15 0 0 9.48783e-16 6.38191e-15 -1.20606e-15 8.10923e-15 0 0 9.8595e-16 4.99691e-15 3.16484e-16 9.02624e-15 0 0 1.55411e-15 2.87939e-15 2.7857e-15 9.21673e-15 0 0 1.73551e-17 3.38331e-15 3.05774e-15 9.99777e-15 0 0 6.10965e-16 3.461e-15 2.11698e-15 8.36206e-15 0 0 1.61378e-15 3.54524e-15 7.51536e-16 7.17234e-15 0 0 1.45997e-15 3.83377e-15 -3.6245e-15 1.33772e-14 0 0 2.36876e-15 3.47626e-15 -6.73048e-15 1.77852e-14 0 0 2.23074e-16 6.57025e-15 -4.52764e-15 1.36379e-14 0 0 -1.61308e-15 7.83548e-15 -1.04431e-15 1.14769e-14 0 0 5.36777e-16 3.02492e-15 5.53959e-15 9.18725e-15 0 0 -7.85997e-17 5.90675e-15 6.76917e-15 6.06183e-15 0 0 2.89616e-15 9.87244e-15 1.05657e-15 1.05082e-14 0 0 4.4621e-15 1.0136e-14 -3.58093e-16 1.06979e-14 0 0 9.32238e-16 1.15923e-14 -1.08607e-15 6.93984e-15 0 0 6.94907e-15 5.00269e-15 -5.89511e-16 6.65363e-15 0 0 9.38005e-15 3.60297e-15 6.30651e-17 4.26104e-15 0 0 1.47156e-15 8.76857e-15 -1.45488e-15 7.32203e-16 0 0 -3.13385e-15 7.98791e-15 -3.99139e-15 3.63565e-15 0 0 -1.82128e-15 5.3952e-15 -7.56031e-15 7.8402e-15 0 0 -2.42842e-15 1.37897e-15 -3.72898e-15 4.99067e-15 0 0 -3.05583e-15 -3.35929e-15 1.04802e-15 6.91649e-15 0 0 -7.37556e-15 2.96465e-15 -6.62305e-15 1.30656e-14 0 0 -1.02521e-14 2.29627e-15 -4.74289e-15 8.75568e-15 0 0 -9.18874e-15 -2.83625e-15 -6.28394e-15 8.65764e-15 0 0 -5.32889e-15 -7.0395e-15 -4.37051e-15 3.34338e-15 0 0 -2.96858e-15 -1.01471e-14 4.87918e-15 -2.64573e-15 0 0 -6.69381e-15 -1.87584e-15 -3.46761e-15 2.2758e-15 0 0 -5.09467e-15 -1.75634e-15 -3.44824e-15 -2.2803e-15 0 0 -4.85888e-15 -9.81368e-15 -1.04799e-15 2.06054e-15 0 0 -4.66405e-15 -2.08657e-14 3.66314e-15 7.62867e-15 0 0 -8.59896e-15 -2.53392e-14 1.53403e-14 3.42972e-15 0 0 -1.1124e-14 -2.62901e-14 1.31376e-14 8.64913e-15 0 0 -3.66468e-15 -2.75053e-14 2.30336e-15 8.95867e-15 0 0 -9.6751e-15 -6.63341e-15 -2.05295e-14 9.45361e-15 0 0 -1.39817e-14 3.08661e-15 -1.87038e-14 -1.7917e-15 0 0 -1.1658e-14 -6.58137e-16 -1.05432e-14 2.47463e-15 0 0 -3.10993e-15 -1.06435e-14 -8.11419e-15 1.86605e-14 0 0 -1.50059e-15 -5.63758e-15 -1.12094e-14 1.85075e-14 0 0 -6.73357e-15 6.11879e-15 -1.56724e-14 8.77959e-15 0 0 9.6469e-15 -1.64775e-14 7.32185e-15 -1.7886e-15 0 0 3.3941e-15 -1.55071e-14 3.21318e-14 -1.04935e-14 0 0 -1.38958e-14 4.13124e-15 5.79639e-14 -2.93028e-14 0 0 -1.29801e-14 1.33436e-14 4.19793e-14 -4.52911e-15 0 0 -5.84799e-15 2.2851e-15 2.41226e-14 -1.05455e-15 0 0 -5.21443e-16 -1.39358e-14 1.52264e-14 -1.91541e-14 0 0 -2.22406e-14 8.39943e-15 7.48618e-17 -7.68717e-15 0 0 -2.6386e-14 1.64148e-14 1.97474e-14 -1.16278e-14 0 0 2.79954e-15 -2.05372e-14 4.40469e-14 -2.35052e-14 0 0 -1.27477e-14 -2.63314e-14 2.64394e-14 -9.58305e-15 0 0 -3.97912e-14 -3.35163e-14 1.48397e-15 -5.73663e-15 0 0 -4.53977e-14 -3.87959e-14 -1.20564e-14 -1.87456e-14 0 0 -5.43312e-14 -1.70652e-14 -2.34741e-14 -2.23205e-14 0 0 -4.25799e-14 -3.99967e-14 -4.27534e-15 -4.8038e-14 0 0 -1.17187e-14 -5.5623e-14 -5.03628e-15 -6.086e-14 0 0 1.18678e-14 -3.20257e-14 -1.34353e-14 -6.58923e-14 0 0 1.4666e-14 -7.16743e-15 -1.93912e-14 -5.79355e-14 0 0 1.52642e-14 -1.67755e-14 -3.6572e-14 -1.3299e-14 0 0 -6.34089e-15 -2.78675e-14 -3.83928e-15 -1.28002e-14 0 0 -3.98098e-14 -7.88372e-15 2.06435e-14 -4.18272e-14 0 0 -7.66755e-15 -1.63413e-14 1.35536e-14 -3.24756e-14 0 0 2.71583e-14 -2.89117e-14 1.09101e-15 4.55562e-15 0 0 1.02067e-14 -1.37551e-14 -6.28457e-15 5.4498e-15 0 0 4.0177e-15 -9.99096e-15 -4.68268e-15 -1.01487e-14 0 0 8.52842e-15 -2.15743e-15 5.09871e-15 -2.29702e-14 0 0 1.67502e-16 1.81457e-14 -1.8295e-15 -2.24761e-14 0 0 1.20439e-14 -5.71002e-15 -1.28128e-14 -1.15685e-14 0 0 3.35143e-14 -2.43012e-14 -7.76933e-15 -7.00476e-15 0 0 1.93191e-14 -1.29884e-14 -1.03664e-14 2.2974e-15 0 0 1.40361e-15 -1.96464e-14 -1.00727e-14 4.37614e-15 0 0 2.52876e-14 -1.94048e-14 -3.0901e-15 -3.75445e-15 0 0 2.5258e-14 4.09941e-15 7.09006e-15 -2.91369e-14 0 0 7.57654e-15 9.81131e-15 -1.16668e-15 -1.0714e-14 0 0 3.32139e-14 -8.84936e-15 -2.0284e-14 3.1126e-14 0 0 3.36402e-14 -4.04616e-15 -5.65263e-15 -1.61748e-14 0 0 2.75183e-14 -1.29144e-14 1.64627e-14 -3.40549e-14 0 0 1.53189e-14 -7.56811e-15 3.71413e-15 -1.78677e-15 0 0 7.23762e-15 6.73589e-16 -1.62148e-14 -1.73325e-14 0 0 -3.36247e-15 2.09937e-14 -2.79876e-14 -1.4196e-14 0 0 -2.82853e-15 2.15509e-14 -4.61672e-14 1.04377e-14 0 0 8.36635e-15 -2.74557e-14 -1.03386e-14 2.33474e-14 0 0 8.45706e-15 -1.38224e-14 1.64567e-14 -5.92877e-15 0 0 9.39712e-15 1.10345e-14 -6.21086e-15 -3.48343e-14 0 0 -9.56201e-16 -9.42736e-15 -2.04009e-14 -2.39347e-14 0 0 -2.28441e-14 -4.99074e-14 -2.5321e-14 -5.37964e-15 0 0 -4.35672e-14 -4.29549e-14 -4.77501e-14 -2.09659e-14 0 0 -2.86136e-14 -4.92181e-14 -5.75214e-14 -3.63028e-14 0 0 9.85165e-16 -3.76985e-14 4.02116e-15 -3.49838e-15 0 0 6.52251e-14 8.55346e-14 1.15914e-13 4.60846e-14 0 0 1.50381e-13 2.64007e-13 2.44038e-13 1.56606e-13 0 0 2.41765e-13 4.04904e-13 4.05703e-13 2.4174e-13 0 0 3.09384e-13 5.00169e-13 5.19654e-13 2.92788e-13 0 0 3.47828e-13 5.48707e-13 5.32094e-13 3.52614e-13 0 0 3.50027e-13 5.74428e-13 5.49735e-13 3.53777e-13 0 0 3.6366e-13 6.03442e-13 5.99646e-13 3.50297e-13 0 0 4.33349e-13 6.6147e-13 6.86059e-13 4.20235e-13 0 0 7.14808e-13 1.09589e-12 1.1518e-12 7.79357e-13 0 0 6.97595e-13 1.11683e-12 1.13868e-12 7.39648e-13 0 0 7.06018e-13 1.19493e-12 1.14518e-12 7.20231e-13 0 0 7.34855e-13 1.24928e-12 1.18808e-12 7.80324e-13 0 0 7.63966e-13 1.28379e-12 1.26562e-12 8.18102e-13 0 0 7.80961e-13 1.2515e-12 1.3417e-12 7.65995e-13 0 0 6.5515e-13 1.04506e-12 1.13867e-12 6.40959e-13 0 0 3.11472e-13 4.98066e-13 5.08858e-13 3.11221e-13 0 0 -1.17634e-13 -1.99296e-13 -2.22984e-13 -1.29668e-13 0 0 -4.85921e-13 -7.9812e-13 -8.32176e-13 -4.73848e-13 0 0 -7.02686e-13 -1.16285e-12 -1.17005e-12 -7.12135e-13 0 0 -8.0518e-13 -1.28412e-12 -1.26573e-12 -8.06254e-13 0 0 -7.90206e-13 -1.22818e-12 -1.22405e-12 -7.86294e-13 0 0 -7.18893e-13 -1.07939e-12 -1.10141e-12 -6.98201e-13 0 0 -6.3869e-13 -9.20625e-13 -9.54154e-13 -6.05367e-13 0 0 -4.99167e-13 -7.51964e-13 -7.74476e-13 -4.72177e-13 0 0 -3.78776e-13 -6.16591e-13 -5.92107e-13 -3.55625e-13 0 0 -2.74029e-13 -4.53248e-13 -4.02178e-13 -3.19161e-13 0 0 -1.80452e-13 -2.76342e-13 -2.29437e-13 -2.26424e-13 0 0 -9.40621e-14 -1.65114e-13 -9.74357e-14 -1.22113e-13 0 0 -2.50196e-14 -4.97789e-14 3.89706e-15 -5.89148e-14 0 0 2.16412e-14 4.51244e-14 1.19014e-13 -3.93741e-14 0 0 7.85796e-14 1.08481e-13 2.2716e-13 5.3654e-14 0 0 1.20737e-13 2.06403e-13 2.56723e-13 1.7663e-13 0 0 1.5683e-13 2.89714e-13 3.23878e-13 1.61005e-13 0 0 2.28842e-13 3.27034e-13 4.30953e-13 1.95188e-13 0 0 2.94709e-13 4.05109e-13 4.76864e-13 3.05052e-13 0 0 3.07552e-13 5.28722e-13 4.99736e-13 3.80853e-13 0 0 3.62107e-13 5.88203e-13 5.30275e-13 4.40814e-13 0 0 4.35984e-13 6.28877e-13 6.31426e-13 4.04806e-13 0 0 4.54532e-13 7.06108e-13 7.39669e-13 3.95359e-13 0 0 4.85928e-13 7.61097e-13 7.76401e-13 4.79967e-13 0 0 5.25641e-13 8.15971e-13 8.29126e-13 5.06679e-13 0 0 5.58383e-13 8.81167e-13 8.25033e-13 5.33825e-13 0 0 5.88509e-13 9.54031e-13 8.6379e-13 5.95025e-13 0 0 6.06312e-13 1.02353e-12 9.52607e-13 5.71324e-13 0 0 6.35034e-13 1.06891e-12 9.81589e-13 5.38787e-13 0 0 6.48183e-13 1.13323e-12 1.03867e-12 6.62559e-13 0 0 6.59484e-13 1.18032e-12 1.09722e-12 7.65926e-13 0 0 7.11119e-13 1.19211e-12 1.16193e-12 7.29618e-13 0 0 7.40732e-13 1.1908e-12 1.26038e-12 7.25768e-13 0 0 7.89639e-13 1.15668e-12 1.32142e-12 7.67622e-13 0 0 8.02834e-13 1.14722e-12 1.31294e-12 8.0962e-13 0 0 8.00937e-13 1.1248e-12 1.31199e-12 7.96508e-13 0 0 7.40923e-13 1.13439e-12 1.18932e-12 7.9505e-13 0 0 6.42164e-13 1.14786e-12 1.00315e-12 8.96854e-13 0 0 6.50042e-13 1.08319e-12 9.97914e-13 8.91746e-13 0 0 5.84122e-13 9.37425e-13 9.76196e-13 7.30729e-13 0 0 4.9999e-13 7.91008e-13 9.03772e-13 6.60425e-13 0 0 4.19405e-13 6.68273e-13 7.20848e-13 5.57013e-13 0 0 2.71369e-13 5.04247e-13 5.27376e-13 2.78198e-13 0 0 1.81228e-13 3.08233e-13 3.88561e-13 1.68762e-13 0 0 1.07069e-13 1.40521e-13 1.74006e-13 1.16982e-13 0 0 2.15578e-14 8.1688e-14 1.2659e-14 4.44478e-14 0 0 -1.38201e-14 1.78623e-14 -5.28154e-14 3.1033e-14 0 0 -3.17232e-14 -2.0095e-14 -9.87171e-14 3.31275e-14 0 0 -4.37342e-14 -2.82611e-14 -1.0266e-13 1.95237e-14 0 0 -4.64899e-14 -4.3138e-14 -6.84219e-14 -6.0963e-14 0 0 -4.25146e-14 -5.52688e-14 -4.66419e-14 -1.19526e-13 0 0 -4.8578e-14 -7.56161e-14 -2.82612e-14 -1.1074e-13 0 0 -6.71588e-14 -5.50719e-14 -5.57408e-14 -8.29711e-14 0 0 -6.0126e-14 -5.33573e-14 -5.35471e-14 -1.02789e-13 0 0 -4.96725e-14 -9.18323e-14 -1.87888e-14 -1.4372e-13 0 0 -5.84058e-14 -7.63165e-14 -3.88235e-14 -1.18125e-13 0 0 -6.17004e-14 -6.21649e-14 -4.4355e-14 -1.38804e-13 0 0 -4.95654e-14 -7.64682e-14 -1.87317e-14 -1.59765e-13 0 0 -5.41195e-14 -6.68037e-14 -5.22965e-15 -1.27238e-13 0 0 -5.18662e-14 -6.84884e-14 7.01804e-15 -1.4155e-13 0 0 -5.87753e-14 -5.33327e-14 1.53613e-14 -1.20825e-13 0 0 -8.72472e-14 -2.03115e-14 1.62116e-14 -8.35892e-14 0 0 -8.57195e-14 -1.87492e-14 1.57858e-14 -7.92548e-14 0 0 -5.64443e-14 -4.54118e-14 4.18391e-14 -6.97112e-14 0 0 -1.73786e-14 -6.41082e-14 2.26164e-14 -2.33532e-14 0 0 -2.26421e-14 -1.31775e-14 -6.98835e-14 6.39183e-14 0 0 -2.58465e-15 -4.024e-14 2.56316e-15 2.87177e-14 0 0 8.76771e-15 -7.34478e-14 9.55424e-14 -2.45047e-14 0 0 -3.77311e-14 1.03526e-14 2.17065e-14 -5.40164e-15 0 0 -6.00566e-14 7.22113e-14 -2.10998e-14 -2.18415e-14 0 0 2.65731e-15 5.03739e-15 9.76332e-15 -2.14011e-14 0 0 2.06011e-14 -2.64572e-14 4.19821e-15 -7.41623e-15 0 0 -2.82568e-14 3.37512e-14 -4.47712e-14 8.28308e-15 0 0 -2.89287e-14 5.06479e-14 -8.04796e-14 5.37634e-14 0 0 3.92594e-15 1.28546e-14 -4.0054e-14 7.2731e-14 0 0 1.04356e-14 -7.28136e-15 4.17254e-14 -8.69353e-15 0 0 -6.92914e-15 5.1021e-14 1.39237e-16 -2.63348e-14 0 0 2.30938e-14 4.55623e-14 -2.17913e-14 -4.8196e-15 0 0 5.43065e-14 -3.12063e-14 4.73482e-14 -4.79882e-14 0 0 4.33059e-14 -4.89563e-14 2.42419e-14 -5.81084e-14 0 0 5.96041e-16 -1.9426e-14 -3.97294e-15 -1.76157e-14 0 0 -1.89675e-14 7.26842e-16 1.41242e-14 -4.7604e-15 0 0 -7.3214e-15 2.8621e-14 -6.43741e-14 7.00193e-14 0 0 -1.29218e-14 2.46742e-14 -4.36081e-14 8.81967e-14 0 0 -3.95136e-14 6.932e-15 2.74667e-15 9.63536e-14 0 0 1.05827e-14 -5.76548e-14 -1.85561e-14 1.20109e-13 0 0 9.24227e-15 -5.27019e-14 -2.82355e-14 1.02025e-13 0 0 -1.25011e-14 -1.73868e-14 -2.93219e-14 5.49536e-14 0 0 1.15799e-14 -5.12594e-14 -3.47075e-14 2.13107e-14 0 0 2.07389e-14 -1.03991e-13 -3.12499e-14 4.75818e-14 0 0 -9.3111e-15 -8.11305e-14 -5.36369e-14 5.05674e-14 0 0 0 0 0 0 0
				</DataArray>
				<DataArray Name="VitesseY" type="Float32" format="ascii">