<?xml version="1.0"?>
<VTKFile type="PolyData">
	<PolyData>
		<Piece NumberOfPoints="1206" NumberOfPolys="1000">
			<Points>
				<DataArray type="Float32" NumberOfComponents="3" format="ascii">
 0 0 0 0.02 0 0 0.04 0 0 0.06 0 0 0.08 0 0 0.1 0 0 0 0.005 0 0.02 0.005 0 0.04 0.005 0 0.06 0.005 0 0.08 0.005 0 0.1 0.005 0 0 0.01 0 0.02 0.01 0 0.04 0.01 0 0.06 0.01 0 0.08 0.01 0 0.1 0.01 0 0 0.015 0 0.02 0.015 0 0.04 0.015 0 0.06 0.015 0 0.08 0.015 0 0.1 0.015 0 0 0.02 0 0.02 0.02 0 0.04 0.02 0 0.06 0.02 0 0.08 0.02 0 0.1 0.02 0 0 0.025 0 0.02 0.025 0 0.04 0.025 0 0.06 0.025 0 0.08 0.025 0 0.1 0.025 0 0 0.03 0 0.02 0.03 0 0.04 0.03 0 0.06 0.03 0 0.08 0.03 0 0.1 0.03 0 0 0.035 0 0.02 0.035 0 0.04 0.035 0 0.06 0.035 0 0.08 0.035 0 0.1 0.035 0 0 0.04 0 0.02 0.04 0 0.04 0.04 0 0.06 0.04 0 0.08 0.04 0 0.1 0.04 0 0 0.045 0 0.02 0.045 0 0.04 0.045 0 0.06 0.045 0 0.08 0.045 0 0.1 0.045 0 0 0.05 0 0.02 0.05 0 0.04 0.05 0 0.06 0.05 0 0.08 0.05 0 0.1 0.05 0 0 0.055 0 0.02 0.055 0 0.04 0.055 0 0.06 0.055 0 0.08 0.055 0 0.1 0.055 0 0 0.06 0 0.02 0.06 0 0.04 0.06 0 0.06 0.06 0 0.08 0.06 0 0.1 0.06 0 0 0.065 0 0.02 0.065 0 0.04 0.065 0 0.06 0.065 0 0.08 0.065 0 0.1 0.065 0 0 0.07 0 0.02 0.07 0 0.04 0.07 0 0.06 0.07 0 0.08 0.07 0 0.1 0.07 0 0 0.075 0 0.02 0.075 0 0.04 0.075 0 0.06 0.075 0 0.08 0.075 0 0.1 0.075 0 0 0.08 0 0.02 0.08 0 0.04 0.08 0 0.06 0.08 0 0.08 0.08 0 0.1 0.08 0 0 0.085 0 0.02 0.085 0 0.04 0.085 0 0.06 0.085 0 0.08 0.085 0 0.1 0.085 0 0 0.09 0 0.02 0.09 0 0.04 0.09 0 0.06 0.09 0 0.08 0.09 0 0.1 0.09 0 0 0.095 0 0.02 0.095 0 0.04 0.095 0 0.06 0.095 0 0.08 0.095 0 0.1 0.095 0 0 0.1 0 0.02 0.1 0 0.04 0.1 0 0.06 0.1 0 0.08 0.1 0 0.1 0.1 0 0 0.105 0 0.02 0.105 0 0.04 0.105 0 0.06 0.105 0 0.08 0.105 0 0.1 0.105 0 0 0.11 0 0.02 0.11 0 0.04 0.11 0 0.06 0.11 0 0.08 0.11 0 0.1 0.11 0 0 0.115 0 0.02 0.115 0 0.04 0.115 0 0.06 0.115 0 0.08 0.115 0 0.1 0.115 0 0 0.12 0 0.02 0.12 0 0.04 0.12 0 0.06 0.12 0 0.08 0.12 0 0.1 0.12 0 0 0.125 0 0.02 0.125 0 0.04 0.125 0 0.06 0.125 0 0.08 0.125 0 0.1 0.125 0 0 0.13 0 0.02 0.13 0 0.04 0.13 0 0.06 0.13 0 0.08 0.13 0 0.1 0.13 0 0 0.135 0 0.02 0.135 0 0.04 0.135 0 0.06 0.135 0 0.08 0.135 0 0.1 0.135 0 0 0.14 0 0.02 0.14 0 0.04 0.14 0 0.06 0.14 0 0.08 0.14 0 0.1 0.14 0 0 0.145 0 0.02 0.145 0 0.04 0.145 0 0.06 0.145 0 0.08 0.145 0 0.1 0.145 0 0 0.15 0 0.02 0.15 0 0.04 0.15 0 0.06 0.15 0 0.08 0.15 0 0.1 0.15 0 0 0.155 0 0.02 0.155 0 0.04 0.155 0 0.06 0.155 0 0.08 0.155 0 0.1 0.155 0 0 0.16 0 0.02 0.16 0 0.04 0.16 0 0.06 0.16 0 0.08 0.16 0 0.1 0.16 0 0 0.165 0 0.02 0.165 0 0.04 0.165 0 0.06 0.165 0 0.08 0.165 0 0.1 0.165 0 0 0.17 0 0.02 0.17 0 0.04 0.17 0 0.06 0.17 0 0.08 0.17 0 0.1 0.17 0 0 0.175 0 0.02 0.175 0 0.04 0.175 0 0.06 0.175 0 0.08 0.175 0 0.1 0.175 0 0 0.18 0 0.02 0.18 0 0.04 0.18 0 0.06 0.18 0 0.08 0.18 0 0.1 0.18 0 0 0.185 0 0.02 0.185 0 0.04 0.185 0 0.06 0.185 0 0.08 0.185 0 0.1 0.185 0 0 0.19 0 0.02 0.19 0 0.04 0.19 0 0.06 0.19 0 0.08 0.19 0 0.1 0.19 0 0 0.195 0 0.02 0.195 0 0.04 0.195 0 0.06 0.195 0 0.08 0.195 0 0.1 0.195 0 0 0.2 0 0.02 0.2 0 0.04 0.2 0 0.06 0.2 0 0.08 0.2 0 0.1 0.2 0 0 0.205 0 0.02 0.205 0 0.04 0.205 0 0.06 0.205 0 0.08 0.205 0 0.1 0.205 0 0 0.21 0 0.02 0.21 0 0.04 0.21 0 0.06 0.21 0 0.08 0.21 0 0.1 0.21 0 0 0.215 0 0.02 0.215 0 0.04 0.215 0 0.06 0.215 0 0.08 0.215 0 0.1 0.215 0 0 0.22 0 0.02 0.22 0 0.04 0.22 0 0.06 0.22 0 0.08 0.22 0 0.1 0.22 0 0 0.225 0 0.02 0.225 0 0.04 0.225 0 0.06 0.225 0 0.08 0.225 0 0.1 0.225 0 0 0.23 0 0.02 0.23 0 0.04 0.23 0 0.06 0.23 0 0.08 0.23 0 0.1 0.23 0 0 0.235 0 0.02 0.235 0 0.04 0.235 0 0.06 0.235 0 0.08 0.235 0 0.1 0.235 0 0 0.24 0 0.02 0.24 0 0.04 0.24 0 0.06 0.24 0 0.08 0.24 0 0.1 0.24 0 0 0.245 0 0.02 0.245 0 0.04 0.245 0 0.06 0.245 0 0.08 0.245 0 0.1 0.245 0 0 0.25 0 0.02 0.25 0 0.04 0.25 0 0.06 0.25 0 0.08 0.25 0 0.1 0.25 0 0 0.255 0 0.02 0.255 0 0.04 0.255 0 0.06 0.255 0 0.08 0.255 0 0.1 0.255 0 0 0.26 0 0.02 0.26 0 0.04 0.26 0 0.06 0.26 0 0.08 0.26 0 0.1 0.26 0 0 0.265 0 0.02 0.265 0 0.04 0.265 0 0.06 0.265 0 0.08 0.265 0 0.1 0.265 0 0 0.27 0 0.02 0.27 0 0.04 0.27 0 0.06 0.27 0 0.08 0.27 0 0.1 0.27 0 0 0.275 0 0.02 0.275 0 0.04 0.275 0 0.06 0.275 0 0.08 0.275 0 0.1 0.275 0 0 0.28 0 0.02 0.28 0 0.04 0.28 0 0.06 0.28 0 0.08 0.28 0 0.1 0.28 0 0 0.285 0 0.02 0.285 0 0.04 0.285 0 0.06 0.285 0 0.08 0.285 0 0.1 0.285 0 0 0.29 0 0.02 0.29 0 0.04 0.29 0 0.06 0.29 0 0.08 0.29 0 0.1 0.29 0 0 0.295 0 0.02 0.295 0 0.04 0.295 0 0.06 0.295 0 0.08 0.295 0 0.1 0.295 0 0 0.3 0 0.02 0.3 0 0.04 0.3 0 0.06 0.3 0 0.08 0.3 0 0.1 0.3 0 0 0.305 0 0.02 0.305 0 0.04 0.305 0 0.06 0.305 0 0.08 0.305 0 0.1 0.305 0 0 0.31 0 0.02 0.31 0 0.04 0.31 0 0.06 0.31 0 0.08 0.31 0 0.1 0.31 0 0 0.315 0 0.02 0.315 0 0.04 0.315 0 0.06 0.315 0 0.08 0.315 0 0.1 0.315 0 0 0.32 0 0.02 0.32 0 0.04 0.32 0 0.06 0.32 0 0.08 0.32 0 0.1 0.32 0 0 0.325 0 0.02 0.325 0 0.04 0.325 0 0.06 0.325 0 0.08 0.325 0 0.1 0.325 0 0 0.33 0 0.02 0.33 0 0.04 0.33 0 0.06 0.33 0 0.08 0.33 0 0.1 0.33 0 0 0.335 0 0.02 0.335 0 0.04 0.335 0 0.06 0.335 0 0.08 0.335 0 0.1 0.335 0 0 0.340001 0 0.02 0.340001 0 0.04 0.340001 0 0.06 0.340001 0 0.08 0.340001 0 0.1 0.340001 0 0 0.345003 0 0.02 0.345003 0 0.04 0.345003 0 0.06 0.345003 0 0.08 0.345003 0 0.1 0.345003 0 0 0.35001 0 0.02 0.35001 0 0.04 0.35001 0 0.06 0.35001 0 0.08 0.35001 0 0.1 0.35001 0 0 0.355028 0 0.02 0.355028 0 0.04 0.355028 0 0.06 0.355028 0 0.08 0.355028 0 0.1 0.355028 0 0 0.360074 0 0.02 0.360074 0 0.04 0.360074 0 0.06 0.360074 0 0.08 0.360074 0 0.1 0.360074 0 0 0.36517 0 0.02 0.36517 0 0.04 0.36517 0 0.06 0.36517 0 0.08 0.36517 0 0.1 0.36517 0 0 0.370348 0 0.02 0.370348 0 0.04 0.370348 0 0.06 0.370348 0 0.08 0.370348 0 0.1 0.370348 0 0 0.375639 0 0.02 0.375639 0 0.04 0.375639 0 0.06 0.375639 0 0.08 0.375639 0 0.1 0.375639 0 0 0.381074 0 0.02 0.381074 0 0.04 0.381074 0 0.06 0.381074 0 0.08 0.381074 0 0.1 0.381074 0 0 0.386676 0 0.02 0.386676 0 0.04 0.386676 0 0.06 0.386676 0 0.08 0.386676 0 0.1 0.386676 0 0 0.392466 0 0.02 0.392466 0 0.04 0.392466 0 0.06 0.392466 0 0.08 0.392466 0 0.1 0.392466 0 0 0.398464 0 0.02 0.398464 0 0.04 0.398464 0 0.06 0.398464 0 0.08 0.398464 0 0.1 0.398464 0 0 0.404692 0 0.02 0.404692 0 0.04 0.404692 0 0.06 0.404692 0 0.08 0.404692 0 0.1 0.404692 0 0 0.411172 0 0.02 0.411172 0 0.04 0.411172 0 0.06 0.411172 0 0.08 0.411172 0 0.1 0.411172 0 0 0.417928 0 0.02 0.417928 0 0.04 0.417928 0 0.06 0.417928 0 0.08 0.417928 0 0.1 0.417928 0 0 0.424991 0 0.02 0.424991 0 0.04 0.424991 0 0.06 0.424991 0 0.08 0.424991 0 0.1 0.424991 0 0 0.432392 0 0.02 0.432392 0 0.04 0.432392 0 0.06 0.432392 0 0.08 0.432392 0 0.1 0.432392 0 0 0.440169 0 0.02 0.440169 0 0.04 0.440169 0 0.06 0.440169 0 0.08 0.440169 0 0.1 0.440169 0 0 0.448367 0 0.02 0.448367 0 0.04 0.448367 0 0.06 0.448367 0 0.08 0.448367 0 0.1 0.448367 0 0 0.457036 0 0.02 0.457036 0 0.04 0.457036 0 0.06 0.457036 0 0.08 0.457036 0 0.1 0.457036 0 0 0.466237 0 0.02 0.466237 0 0.04 0.466237 0 0.06 0.466237 0 0.08 0.466237 0 0.1 0.466237 0 0 0.476037 0 0.02 0.476037 0 0.04 0.476037 0 0.06 0.476037 0 0.08 0.476037 0 0.1 0.476037 0 0 0.486506 0 0.02 0.486506 0 0.04 0.486506 0 0.06 0.486506 0 0.08 0.486506 0 0.1 0.486506 0 0 0.497701 0 0.02 0.497701 0 0.04 0.497701 0 0.06 0.497701 0 0.08 0.497701 0 0.1 0.497701 0 0 0.50959 0 0.02 0.50959 0 0.04 0.50959 0 0.06 0.50959 0 0.08 0.50959 0 0.1 0.50959 0 0 0.521843 0 0.02 0.521843 0 0.04 0.521843 0 0.06 0.521843 0 0.08 0.521843 0 0.1 0.521843 0 0 0.533977 0 0.02 0.533977 0 0.04 0.533977 0 0.06 0.533977 0 0.08 0.533977 0 0.1 0.533977 0 0 0.545956 0 0.02 0.545956 0 0.04 0.545956 0 0.06 0.545956 0 0.08 0.545956 0 0.1 0.545956 0 0 0.557809 0 0.02 0.557809 0 0.04 0.557809 0 0.06 0.557809 0 0.08 0.557809 0 0.1 0.557809 0 0 0.569591 0 0.02 0.569591 0 0.04 0.569591 0 0.06 0.569591 0 0.08 0.569591 0 0.1 0.569591 0 0 0.581345 0 0.02 0.581345 0 0.04 0.581345 0 0.06 0.581345 0 0.08 0.581345 0 0.1 0.581345 0 0 0.593089 0 0.02 0.593089 0 0.04 0.593089 0 0.06 0.593089 0 0.08 0.593089 0 0.1 0.593089 0 0 0.604843 0 0.02 0.604843 0 0.04 0.604843 0 0.06 0.604843 0 0.08 0.604843 0 0.1 0.604843 0 0 0.607455 0 0.02 0.607455 0 0.04 0.607455 0 0.06 0.607455 0 0.08 0.607455 0 0.1 0.607455 0 0 0.609993 0 0.02 0.609993 0 0.04 0.609993 0 0.06 0.609993 0 0.08 0.609993 0 0.1 0.609993 0 0 0.612486 0 0.02 0.612486 0 0.04 0.612486 0 0.06 0.612486 0 0.08 0.612486 0 0.1 0.612486 0 0 0.614947 0 0.02 0.614947 0 0.04 0.614947 0 0.06 0.614947 0 0.08 0.614947 0 0.1 0.614947 0 0 0.617387 0 0.02 0.617387 0 0.04 0.617387 0 0.06 0.617387 0 0.08 0.617387 0 0.1 0.617387 0 0 0.619812 0 0.02 0.619812 0 0.04 0.619812 0 0.06 0.619812 0 0.08 0.619812 0 0.1 0.619812 0 0 0.622226 0 0.02 0.622226 0 0.04 0.622226 0 0.06 0.622226 0 0.08 0.622226 0 0.1 0.622226 0 0 0.624638 0 0.02 0.624638 0 0.04 0.624638 0 0.06 0.624638 0 0.08 0.624638 0 0.1 0.624638 0 0 0.62705 0 0.02 0.62705 0 0.04 0.62705 0 0.06 0.62705 0 0.08 0.62705 0 0.1 0.62705 0 0 0.629448 0 0.02 0.629448 0 0.04 0.629448 0 0.06 0.629448 0 0.08 0.629448 0 0.1 0.629448 0 0 0.631835 0 0.02 0.631835 0 0.04 0.631835 0 0.06 0.631835 0 0.08 0.631835 0 0.1 0.631835 0 0 0.634217 0 0.02 0.634217 0 0.04 0.634217 0 0.06 0.634217 0 0.08 0.634217 0 0.1 0.634217 0 0 0.636596 0 0.02 0.636596 0 0.04 0.636596 0 0.06 0.636596 0 0.08 0.636596 0 0.1 0.636596 0 0 0.638975 0 0.02 0.638975 0 0.04 0.638975 0 0.06 0.638975 0 0.08 0.638975 0 0.1 0.638975 0 0 0.641354 0 0.02 0.641354 0 0.04 0.641354 0 0.06 0.641354 0 0.08 0.641354 0 0.1 0.641354 0 0 0.643728 0 0.02 0.643728 0 0.04 0.643728 0 0.06 0.643728 0 0.08 0.643728 0 0.1 0.643728 0 0 0.6461 0 0.02 0.6461 0 0.04 0.6461 0 0.06 0.6461 0 0.08 0.6461 0 0.1 0.6461 0 0 0.648469 0 0.02 0.648469 0 0.04 0.648469 0 0.06 0.648469 0 0.08 0.648469 0 0.1 0.648469 0 0 0.650838 0 0.02 0.650838 0 0.04 0.650838 0 0.06 0.650838 0 0.08 0.650838 0 0.1 0.650838 0 0 0.653207 0 0.02 0.653207 0 0.04 0.653207 0 0.06 0.653207 0 0.08 0.653207 0 0.1 0.653207 0 0 0.655573 0 0.02 0.655573 0 0.04 0.655573 0 0.06 0.655573 0 0.08 0.655573 0 0.1 0.655573 0 0 0.657937 0 0.02 0.657937 0 0.04 0.657937 0 0.06 0.657937 0 0.08 0.657937 0 0.1 
[...]
			<PointData Scalars="VitesseX">
				<DataArray Name="VitesseX" type="Float32" format="ascii">
 0 0 0 0 0 0 0 2.75597e-16 3.20998e-15 3.27425e-15 1.31297e-14 0 0 1.22753e-15 2.41522e-15 2.60841e-15 1.31915e-14 0 0 1.95492e-15 1.51891e-15 2.58142e-15 1.27155e-14 0 0 2.9756e-16 2.66409e-15 2.64587e-15 1.19074e-14 0 0 -1.50829e-15 3.33713e-15 2.71908e-15 1.05898e-14 0 0 -2.00039e-15 4.56149e-15 -8.12577e-17 1.06194e-14 0 0 -1.07187e-15 5.90755e-15 -3.89267e-15 1.15048e-14 0 0 5.2817e-16 5.25868e-15 -5.45594e-15 1.16086e-14 0 0 -6.4324e-16 5.24487e-15 -4.5356e-15 1.1635e-14 0 0 -5.0358e-16 3.32145e-15 -1.20857e-15 8.28615e-15 0 0 7.76388e-16 2.99567e-15 -2.00113e-15 6.01471e-15 0 0 6.46792e-16 1.63624e-15 -5.84207e-16 4.19144e-15 0 0 4.07765e-15 -5.22175e-15 6.48818e-15 7.75614e-16 0 0 4.14317e-15 -6.27104e-15 6.22136e-15 4.16311e-15 0 0 -6.22905e-16 -2.99084e-16 -3.38878e-15 1.2653e-14 0 0 -2.85274e-16 -2.11023e-15 -4.61879e-15 1.43299e-14 0 0 -3.91149e-16 -6.15897e-15 1.06499e-15 9.094e-15 0 0 -3.36237e-15 -6.39409e-15 5.23325e-15 3.68891e-15 0 0 -4.76777e-15 -4.37119e-15 3.26262e-15 4.17471e-15 0 0 -8.6137e-16 -4.041e-15 1.66128e-15 4.50125e-15 0 0 8.55983e-16 -5.78369e-15 7.16712e-15 -6.61534e-16 0 0 -1.17954e-15 -4.6424e-15 1.45703e-14 -5.294e-15 0 0 -1.8822e-15 -2.80292e-15 2.39383e-14 -1.42003e-14 0 0 8.46864e-16 -2.89594e-15 2.60837e-14 -1.79034e-14 0 0 3.96269e-15 2.35991e-15 1.63843e-14 -7.90583e-15 0 0 8.24383e-15 5.88692e-15 7.05536e-15 2.21859e-16 0 0 8.72633e-15 1.38082e-15 1.17416e-14 -3.3668e-15 0 0 1.00984e-14 -2.70126e-16 1.75118e-14 -7.84083e-15 0 0 1.06197e-14 -2.96688e-15 1.91251e-14 -2.97138e-15 0 0 -5.26551e-16 6.77602e-15 3.11668e-15 7.86839e-15 0 0 4.79541e-16 8.09191e-15 8.68722e-16 4.55395e-15 0 0 5.03462e-15 3.45897e-15 9.42729e-15 -5.01642e-15 0 0 1.89883e-15 1.05804e-14 2.06826e-15 -5.89976e-15 0 0 5.97961e-15 1.23254e-14 -1.4388e-15 -8.03123e-15 0 0 1.00637e-14 8.28233e-15 -6.66971e-15 -3.19855e-15 0 0 1.41975e-14 -4.50058e-15 -4.23545e-15 1.13376e-14 0 0 1.69145e-14 -7.82847e-15 -2.55081e-15 1.8037e-14 0 0 3.43608e-15 6.39388e-15 -1.24377e-15 8.92007e-15 0 0 1.9829e-15 4.11457e-15 1.48078e-14 -1.06232e-14 0 0 2.69828e-15 5.72539e-16 2.06797e-14 -2.76042e-14 0 0 2.21896e-15 2.53452e-15 1.72555e-14 -3.00417e-14 0 0 2.92853e-15 -2.39962e-15 2.47474e-14 -2.5848e-14 0 0 -1.02924e-14 3.68424e-15 1.71967e-14 -1.28946e-14 0 0 -4.13024e-15 2.06529e-15 -1.66412e-15 1.25257e-15 0 0 5.24361e-15 -1.58933e-15 -8.7551e-15 8.36882e-15 0 0 -8.37009e-15 1.40046e-14 -2.31736e-14 1.98049e-14 0 0 -1.22506e-14 1.49457e-14 -1.34637e-14 3.33626e-15 0 0 8.92363e-15 -6.95676e-15 9.88707e-15 -2.02891e-14 0 0 1.09765e-14 3.18978e-15 -2.07441e-14 7.45756e-16 0 0 -1.32527e-15 1.01558e-14 -3.2787e-14 1.49951e-14 0 0 -4.24491e-16 -3.93223e-15 -1.28694e-14 6.3411e-15 0 0 8.64585e-15 -1.08958e-14 -2.57023e-15 -9.35377e-16 0 0 1.93408e-14 -5.80171e-15 -2.29316e-15 -7.07602e-16 0 0 1.22249e-14 8.42984e-15 -1.95278e-15 7.16846e-15 0 0 5.49721e-15 1.0413e-14 6.46481e-16 1.14999e-14 0 0 1.35139e-14 -6.59008e-15 -4.4168e-15 2.64005e-14 0 0 1.7337e-14 -1.25944e-14 5.29956e-16 3.35429e-14 0 0 1.55819e-14 8.11283e-15 -1.1873e-14 3.60089e-14 0 0 1.78334e-14 1.68728e-14 -7.38355e-15 4.33648e-14 0 0 -1.11617e-14 2.63082e-14 4.34193e-15 2.82419e-14 0 0 -3.50719e-14 2.19937e-14 -4.73367e-15 1.1018e-14 0 0 1.65997e-17 -2.59771e-14 -6.57988e-15 2.2737e-14 0 0 -2.50916e-14 -2.00358e-14 -2.46549e-14 3.40257e-14 0 0 -6.42079e-14 -4.66563e-15 -2.9984e-14 4.08816e-15 0 0 -2.28892e-14 -4.05714e-14 -4.83245e-14 3.24171e-15 0 0 5.092e-15 -3.97359e-14 -6.07186e-14 4.55343e-15 0 0 -1.31696e-14 -1.50372e-14 -4.249e-14 -1.85809e-14 0 0 -2.83385e-14 -2.28791e-14 -1.05483e-14 -1.6912e-14 0 0 -3.14463e-14 -8.86369e-15 -9.261e-15 -1.41235e-14 0 0 -2.9054e-14 -4.73129e-15 -2.0033e-14 -5.03654e-15 0 0 -1.2638e-14 -2.70669e-14 -1.4455e-14 8.92162e-15 0 0 -2.81635e-14 -2.86908e-15 -4.05212e-14 2.40976e-14 0 0 -5.55684e-14 9.82153e-15 -2.53562e-14 -7.18571e-15 0 0 -5.40368e-14 1.39654e-14 1.14648e-14 -3.5254e-14 0 0 -2.73957e-14 8.66811e-15 -9.10272e-15 -7.19552e-16 0 0 -6.68803e-15 -5.18918e-16 -3.62738e-14 1.14541e-14 0 0 -2.01792e-14 -8.38733e-15 -1.07424e-14 8.21509e-16 0 0 -2.94931e-14 -2.59008e-14 6.30634e-15 3.83074e-16 0 0 -5.28113e-14 -3.96057e-15 -3.31416e-15 -1.9398e-14 0 0 -4.49133e-14 5.63372e-16 -2.88999e-14 5.68954e-15 0 0 -1.12058e-14 -1.47596e-14 -2.74812e-14 3.52967e-14 0 0 -1.41155e-14 -2.80572e-15 1.88523e-15 -7.82129e-16 0 0 1.08757e-15 -2.30126e-14 1.28447e-14 -6.96824e-15 0 0 -2.18235e-15 -3.44061e-14 1.38949e-14 -2.50112e-14 0 0 -3.26528e-14 -8.82367e-15 -5.1304e-15 -2.79547e-14 0 0 -2.78084e-14 2.96557e-15 -3.50367e-14 5.96822e-15 0 0 -1.38362e-14 -2.31124e-14 -1.68426e-14 3.99223e-15 0 0 -2.77785e-14 -2.03721e-14 -1.82447e-15 6.09571e-15 0 0 -1.11138e-14 -4.09817e-15 -5.48643e-15 -7.20748e-15 0 0 -9.58406e-15 -2.44284e-14 -1.34875e-14 -3.00801e-15 0 0 -1.92971e-14 -2.44808e-14 -2.18668e-14 -1.46825e-14 0 0 -4.70421e-14 -4.28864e-14 -6.62133e-14 -3.97559e-14 0 0 -8.47089e-14 -1.29234e-13 -1.32455e-13 -7.37648e-14 0 0 -9.8086e-14 -1.65543e-13 -1.44541e-13 -1.06341e-13 0 0 -6.06019e-14 -6.28534e-14 -6.10285e-14 -4.02395e-14 0 0 9.18075e-14 1.42707e-13 1.5582e-13 1.014e-13 0 0 2.63711e-13 4.09171e-13 4.13571e-13 2.60439e-13 0 0 3.9073e-13 6.41393e-13 6.39117e-13 3.9029e-13 0 0 5.0522e-13 8.24067e-13 8.27162e-13 4.95418e-13 0 0 6.27209e-13 1.02283e-12 1.00549e-12 6.34356e-13 0 0 1.10598e-12 1.78825e-12 1.7953e-12 1.14163e-12 0 0 1.10507e-12 1.74795e-12 1.78086e-12 1.14178e-12 0 0 1.11937e-12 1.78592e-12 1.76403e-12 1.12397e-12 0 0 1.11801e-12 1.82122e-12 1.82258e-12 1.08474e-12 0 0 1.14946e-12 1.84668e-12 1.9045e-12 1.14847e-12 0 0 1.15642e-12 1.86134e-12 1.83031e-12 1.19088e-12 0 0 1.03109e-12 1.67488e-12 1.60339e-12 1.03707e-12 0 0 6.93157e-13 1.09443e-12 1.07016e-12 7.3477e-13 0 0 2.40485e-13 4.49147e-13 3.83992e-13 2.95274e-13 0 0 -9.11129e-14 -1.44244e-13 -1.43466e-13 -1.08934e-13 0 0 -2.82799e-13 -5.36537e-13 -4.47294e-13 -3.16083e-13 0 0 -3.80628e-13 -6.23855e-13 -5.78805e-13 -3.81528e-13 0 0 -3.76826e-13 -5.78206e-13 -5.71621e-13 -3.57973e-13 0 0 -3.04989e-13 -4.75274e-13 -4.6536e-13 -2.97458e-13 0 0 -2.1255e-13 -3.43379e-13 -3.41231e-13 -2.01753e-13 0 0 -1.19151e-13 -1.65893e-13 -1.82374e-13 -1.40564e-13 0 0 -3.60326e-14 9.11501e-16 -2.02533e-14 -6.33602e-14 0 0 7.52783e-14 1.13966e-13 1.09095e-13 2.60962e-14 0 0 1.47531e-13 2.62834e-13 2.09495e-13 1.16725e-13 0 0 2.07398e-13 3.9629e-13 3.30113e-13 1.81918e-13 0 0 2.9696e-13 4.93076e-13 4.3036e-13 2.51214e-13 0 0 3.53184e-13 6.00515e-13 4.92136e-13 3.61543e-13 0 0 3.90845e-13 6.76895e-13 6.11526e-13 3.98033e-13 0 0 4.38655e-13 6.5485e-13 7.56681e-13 4.08378e-13 0 0 4.67698e-13 6.91035e-13 8.11095e-13 4.35166e-13 0 0 4.51548e-13 8.10992e-13 7.92598e-13 4.45758e-13 0 0 4.49249e-13 8.72937e-13 8.05581e-13 4.91551e-13 0 0 4.64014e-13 8.81856e-13 8.3577e-13 5.88724e-13 0 0 4.75499e-13 8.80486e-13 8.1498e-13 6.29663e-13 0 0 4.7423e-13 8.76656e-13 7.89484e-13 6.13869e-13 0 0 4.51495e-13 8.68803e-13 7.71183e-13 5.52456e-13 0 0 4.4497e-13 7.78713e-13 7.67749e-13 4.76176e-13 0 0 4.12472e-13 6.79564e-13 7.8269e-13 3.64782e-13 0 0 3.62827e-13 6.1997e-13 7.34454e-13 2.90499e-13 0 0 3.25344e-13 5.07234e-13 6.30044e-13 3.58935e-13 0 0 2.67035e-13 4.51818e-13 5.84554e-13 3.0739e-13 0 0 1.95967e-13 3.78222e-13 5.01556e-13 2.63318e-13 0 0 1.58355e-13 2.94378e-13 3.54343e-13 2.10478e-13 0 0 9.46641e-14 2.20828e-13 2.00072e-13 1.30898e-13 0 0 3.16323e-14 1.26198e-13 7.31189e-14 8.25639e-14 0 0 -3.27708e-15 6.08851e-14 3.24696e-15 7.48365e-15 0 0 -4.54939e-14 -2.47357e-14 -1.68425e-14 -5.33204e-14 0 0 -3.49766e-14 -5.60566e-14 -1.45187e-14 -7.49769e-14 0 0 -1.99976e-14 -4.44514e-14 -4.46008e-14 -4.32359e-14 0 0 -1.89562e-14 -1.33967e-14 -5.70363e-14 -3.44404e-14 0 0 -1.44227e-14 -1.66313e-14 -4.1524e-14 -3.41643e-14 0 0 -5.12561e-15 -2.11033e-14 -2.85034e-14 -2.69914e-14 0 0 1.24354e-16 -1.13898e-14 -2.7366e-14 -3.76893e-14 0 0 2.61257e-15 -1.33071e-14 -3.7916e-14 -2.44664e-14 0 0 1.7803e-16 -1.13258e-14 -3.94646e-14 -3.76812e-14 0 0 -1.89302e-15 -3.5551e-16 -5.02259e-14 -4.35758e-14 0 0 5.74201e-15 -1.75702e-14 -4.04076e-14 -3.20009e-14 0 0 1.2976e-14 -4.53677e-14 -7.44105e-15 -4.7287e-14 0 0 2.44948e-15 -3.99741e-14 3.10864e-15 -6.09287e-14 0 0 2.95055e-15 -5.65093e-14 3.67748e-14 -8.51685e-14 0 0 1.06951e-14 -8.15833e-14 5.85344e-14 -5.45221e-14 0 0 1.68034e-15 -7.24582e-14 3.71704e-14 -3.75597e-16 0 0 -3.51076e-16 -4.42848e-14 -2.42181e-15 3.67609e-14 0 0 -2.15446e-14 3.18205e-15 -5.0106e-14 6.86826e-14 0 0 -1.69757e-14 4.3082e-15 -4.66726e-14 9.05055e-14 0 0 3.12808e-14 -5.71066e-14 -2.05681e-14 8.22601e-14 0 0 1.30691e-14 -4.24557e-14 -1.0301e-14 3.88784e-14 0 0 -3.14026e-14 4.10967e-14 -2.61956e-14 5.57136e-15 0 0 -1.02128e-14 1.75302e-14 1.88018e-14 -9.84586e-15 0 0 1.27277e-14 -1.92193e-14 2.51096e-14 6.25063e-14 0 0 7.62624e-15 1.00739e-15 -3.71188e-14 1.62623e-13 0 0 1.99525e-14 -1.74705e-14 -5.06234e-14 1.70337e-13 0 0 1.23222e-14 1.21596e-14 -1.1131e-13 1.47197e-13 0 0 1.35128e-14 -5.84481e-15 -1.16016e-13 1.36186e-13 0 0 4.78429e-14 -7.68379e-14 -6.1588e-14 8.34222e-14 0 0 4.6099e-14 -5.31119e-14 -8.16628e-14 1.85549e-14 0 0 2.70404e-14 1.29073e-14 -9.86766e-14 1.16726e-14 0 0 3.4259e-14 3.02693e-14 -6.94194e-14 1.91699e-14 0 0 6.14135e-14 -2.72231e-14 -2.36515e-15 -1.60516e-14 0 0 4.47417e-14 -2.15365e-14 1.81803e-14 -1.10947e-14 0 0 -2.23675e-14 3.47336e-14 -6.53914e-15 2.86749e-14 0 0 -4.45278e-14 1.69244e-14 4.8694e-14 -1.73263e-14 0 0 1.06644e-14 -2.25154e-14 5.56089e-14 -1.17322e-14 0 0 3.10555e-14 -1.06051e-14 7.75058e-15 2.17507e-14 0 0 2.40712e-14 1.48127e-14 8.86335e-15 -4.49514e-14 0 0 -3.56873e-15 5.26374e-14 4.24524e-14 -1.23786e-13 0 0 -7.65249e-15 4.09665e-14 8.28955e-14 -1.55722e-13 0 0 2.9358e-14 1.06201e-14 2.55926e-14 -7.71279e-14 0 0 2.13004e-14 -1.16345e-15 -1.70279e-14 3.24681e-16 0 0 2.59255e-14 -5.55317e-14 3.64653e-14 9.00237e-16 0 0 2.58495e-14 -3.50725e-14 2.69348e-14 3.90357e-14 0 0 3.5527e-15 4.47465e-14 -5.02241e-14 1.18652e-13 0 0 7.27105e-15 3.49386e-14 -4.24086e-14 1.28473e-13 0 0 3.25575e-14 -7.2097e-15 3.089e-14 2.35077e-14 0 0 4.69639e-14 -1.30412e-15 5.84839e-14 -7.57941e-14 0 0 7.09446e-14 1.16331e-15 3.44137e-14 -9.0874e-14 0 0 3.4624e-14 4.46096e-14 -3.57741e-14 -2.92827e-14 0 0 8.67372e-15 3.86049e-14 -7.96458e-15 -8.81946e-15 0 0 2.86284e-14 -3.46432e-15 2.84235e-14 -9.68114e-16 0 0 3.89732e-14 -6.31677e-15 1.28256e-14 -9.95849e-15 0 0 4.67318e-14 1.51312e-15 3.09883e-14 -4.93819e-14 0 0 9.16413e-15 5.68976e-14 4.40967e-14 -5.02141e-14 0 0 -1.69208e-14 1.26716e-13 2.43484e-14 -3.61265e-14 0 0 2.44933e-14 1.02528e-13 4.9702e-14 -3.80724e-14 0 0 0 0 0 0 0
				</DataArray>
				<DataArray Name="VitesseY" type="Float32" format="ascii">