<?xml version="1.0"?>
<VTKFile type="PolyData">
	<PolyData>
		<Piece NumberOfPoints="1206" NumberOfPolys="1000">
			<Points>
				<DataArray type="Float32" NumberOfComponents="3" format="ascii">
 0 0 0 0.02 0 0 0.04 0 0 0.06 0 0 0.08 0 0 0.1 0 0 0 0.005 0 0.02 0.005 0 0.04 0.005 0 0.06 0.005 0 0.08 0.005 0 0.1 0.005 0 0 0.01 0 0.02 0.01 0 0.04 0.01 0 0.06 0.01 0 0.08 0.01 0 0.1 0.01 0 0 0.015 0 0.02 0.015 0 0.04 0.015 0 0.06 0.015 0 0.08 0.015 0 0.1 0.015 0 0 0.02 0 0.02 0.02 0 0.04 0.02 0 0.06 0.02 0 0.08 0.02 0 0.1 0.02 0 0 0.025 0 0.02 0.025 0 0.04 0.025 0 0.06 0.025 0 0.08 0.025 0 0.1 0.025 0 0 0.03 0 0.02 0.03 0 0.04 0.03 0 0.06 0.03 0 0.08 0.03 0 0.1 0.03 0 0 0.035 0 0.02 0.035 0 0.04 0.035 0 0.06 0.035 0 0.08 0.035 0 0.1 0.035 0 0 0.04 0 0.02 0.04 0 0.04 0.04 0 0.06 0.04 0 0.08 0.04 0 0.1 0.04 0 0 0.045 0 0.02 0.045 0 0.04 0.045 0 0.06 0.045 0 0.08 0.045 0 0.1 0.045 0 0 0.05 0 0.02 0.05 0 0.04 0.05 0 0.06 0.05 0 0.08 0.05 0 0.1 0.05 0 0 0.055 0 0.02 0.055 0 0.04 0.055 0 0.06 0.055 0 0.08 0.055 0 0.1 0.055 0 0 0.06 0 0.02 0.06 0 0.04 0.06 0 0.06 0.06 0 0.08 0.06 0 0.1 0.06 0 0 0.065 0 0.02 0.065 0 0.04 0.065 0 0.06 0.065 0 0.08 0.065 0 0.1 0.065 0 0 0.07 0 0.02 0.07 0 0.04 0.07 0 0.06 0.07 0 0.08 0.07 0 0.1 0.07 0 0 0.075 0 0.02 0.075 0 0.04 0.075 0 0.06 0.075 0 0.08 0.075 0 0.1 0.075 0 0 0.08 0 0.02 0.08 0 0.04 0.08 0 0.06 0.08 0 0.08 0.08 0 0.1 0.08 0 0 0.085 0 0.02 0.085 0 0.04 0.085 0 0.06 0.085 0 0.08 0.085 0 0.1 0.085 0 0 0.09 0 0.02 0.09 0 0.04 0.09 0 0.06 0.09 0 0.08 0.09 0 0.1 0.09 0 0 0.095 0 0.02 0.095 0 0.04 0.095 0 0.06 0.095 0 0.08 0.095 0 0.1 0.095 0 0 0.1 0 0.02 0.1 0 0.04 0.1 0 0.06 0.1 0 0.08 0.1 0 0.1 0.1 0 0 0.105 0 0.02 0.105 0 0.04 0.105 0 0.06 0.105 0 0.08 0.105 0 0.1 0.105 0 0 0.11 0 0.02 0.11 0 0.04 0.11 0 0.06 0.11 0 0.08 0.11 0 0.1 0.11 0 0 0.115 0 0.02 0.115 0 0.04 0.115 0 0.06 0.115 0 0.08 0.115 0 0.1 0.115 0 0 0.12 0 0.02 0.12 0 0.04 0.12 0 0.06 0.12 0 0.08 0.12 0 0.1 0.12 0 0 0.125 0 0.02 0.125 0 0.04 0.125 0 0.06 0.125 0 0.08 0.125 0 0.1 0.125 0 0 0.13 0 0.02 0.13 0 0.04 0.13 0 0.06 0.13 0 0.08 0.13 0 0.1 0.13 0 0 0.135 0 0.02 0.135 0 0.04 0.135 0 0.06 0.135 0 0.08 0.135 0 0.1 0.135 0 0 0.14 0 0.02 0.14 0 0.04 0.14 0 0.06 0.14 0 0.08 0.14 0 0.1 0.14 0 0 0.145 0 0.02 0.145 0 0.04 0.145 0 0.06 0.145 0 0.08 0.145 0 0.1 0.145 0 0 0.15 0 0.02 0.15 0 0.04 0.15 0 0.06 0.15 0 0.08 0.15 0 0.1 0.15 0 0 0.155 0 0.02 0.155 0 0.04 0.155 0 0.06 0.155 0 0.08 0.155 0 0.1 0.155 0 0 0.16 0 0.02 0.16 0 0.04 0.16 0 0.06 0.16 0 0.08 0.16 0 0.1 0.16 0 0 0.165 0 0.02 0.165 0 0.04 0.165 0 0.06 0.165 0 0.08 0.165 0 0.1 0.165 0 0 0.17 0 0.02 0.17 0 0.04 0.17 0 0.06 0.17 0 0.08 0.17 0 0.1 0.17 0 0 0.175 0 0.02 0.175 0 0.04 0.175 0 0.06 0.175 0 0.08 0.175 0 0.1 0.175 0 0 0.18 0 0.02 0.18 0 0.04 0.18 0 0.06 0.18 0 0.08 0.18 0 0.1 0.18 0 0 0.185 0 0.02 0.185 0 0.04 0.185 0 0.06 0.185 0 0.08 0.185 0 0.1 0.185 0 0 0.19 0 0.02 0.19 0 0.04 0.19 0 0.06 0.19 0 0.08 0.19 0 0.1 0.19 0 0 0.195 0 0.02 0.195 0 0.04 0.195 0 0.06 0.195 0 0.08 0.195 0 0.1 0.195 0 0 0.2 0 0.02 0.2 0 0.04 0.2 0 0.06 0.2 0 0.08 0.2 0 0.1 0.2 0 0 0.205 0 0.02 0.205 0 0.04 0.205 0 0.06 0.205 0 0.08 0.205 0 0.1 0.205 0 0 0.21 0 0.02 0.21 0 0.04 0.21 0 0.06 0.21 0 0.08 0.21 0 0.1 0.21 0 0 0.215 0 0.02 0.215 0 0.04 0.215 0 0.06 0.215 0 0.08 0.215 0 0.1 0.215 0 0 0.22 0 0.02 0.22 0 0.04 0.22 0 0.06 0.22 0 0.08 0.22 0 0.1 0.22 0 0 0.225 0 0.02 0.225 0 0.04 0.225 0 0.06 0.225 0 0.08 0.225 0 0.1 0.225 0 0 0.23 0 0.02 0.23 0 0.04 0.23 0 0.06 0.23 0 0.08 0.23 0 0.1 0.23 0 0 0.235 0 0.02 0.235 0 0.04 0.235 0 0.06 0.235 0 0.08 0.235 0 0.1 0.235 0 0 0.24 0 0.02 0.24 0 0.04 0.24 0 0.06 0.24 0 0.08 0.24 0 0.1 0.24 0 0 0.245 0 0.02 0.245 0 0.04 0.245 0 0.06 0.245 0 0.08 0.245 0 0.1 0.245 0 0 0.25 0 0.02 0.25 0 0.04 0.25 0 0.06 0.25 0 0.08 0.25 0 0.1 0.25 0 0 0.255 0 0.02 0.255 0 0.04 0.255 0 0.06 0.255 0 0.08 0.255 0 0.1 0.255 0 0 0.26 0 0.02 0.26 0 0.04 0.26 0 0.06 0.26 0 0.08 0.26 0 0.1 0.26 0 0 0.265 0 0.02 0.265 0 0.04 0.265 0 0.06 0.265 0 0.08 0.265 0 0.1 0.265 0 0 0.27 0 0.02 0.27 0 0.04 0.27 0 0.06 0.27 0 0.08 0.27 0 0.1 0.27 0 0 0.275 0 0.02 0.275 0 0.04 0.275 0 0.06 0.275 0 0.08 0.275 0 0.1 0.275 0 0 0.28 0 0.02 0.28 0 0.04 0.28 0 0.06 0.28 0 0.08 0.28 0 0.1 0.28 0 0 0.285 0 0.02 0.285 0 0.04 0.285 0 0.06 0.285 0 0.08 0.285 0 0.1 0.285 0 0 0.29 0 0.02 0.29 0 0.04 0.29 0 0.06 0.29 0 0.08 0.29 0 0.1 0.29 0 0 0.295 0 0.02 0.295 0 0.04 0.295 0 0.06 0.295 0 0.08 0.295 0 0.1 0.295 0 0 0.3 0 0.02 0.3 0 0.04 0.3 0 0.06 0.3 0 0.08 0.3 0 0.1 0.3 0 0 0.305 0 0.02 0.305 0 0.04 0.305 0 0.06 0.305 0 0.08 0.305 0 0.1 0.305 0 0 0.31 0 0.02 0.31 0 0.04 0.31 0 0.06 0.31 0 0.08 0.31 0 0.1 0.31 0 0 0.315 0 0.02 0.315 0 0.04 0.315 0 0.06 0.315 0 0.08 0.315 0 0.1 0.315 0 0 0.32 0 0.02 0.32 0 0.04 0.32 0 0.06 0.32 0 0.08 0.32 0 0.1 0.32 0 0 0.325 0 0.02 0.325 0 0.04 0.325 0 0.06 0.325 0 0.08 0.325 0 0.1 0.325 0 0 0.33 0 0.02 0.33 0 0.04 0.33 0 0.06 0.33 0 0.08 0.33 0 0.1 0.33 0 0 0.335 0 0.02 0.335 0 0.04 0.335 0 0.06 0.335 0 0.08 0.335 0 0.1 0.335 0 0 0.34 0 0.02 0.34 0 0.04 0.34 0 0.06 0.34 0 0.08 0.34 0 0.1 0.34 0 0 0.345 0 0.02 0.345 0 0.04 0.345 0 0.06 0.345 0 0.08 0.345 0 0.1 0.345 0 0 0.35 0 0.02 0.35 0 0.04 0.35 0 0.06 0.35 0 0.08 0.35 0 0.1 0.35 0 0 0.355 0 0.02 0.355 0 0.04 0.355 0 0.06 0.355 0 0.08 0.355 0 0.1 0.355 0 0 0.36 0 0.02 0.36 0 0.04 0.36 0 0.06 0.36 0 0.08 0.36 0 0.1 0.36 0 0 0.365 0 0.02 0.365 0 0.04 0.365 0 0.06 0.365 0 0.08 0.365 0 0.1 0.365 0 0 0.37 0 0.02 0.37 0 0.04 0.37 0 0.06 0.37 0 0.08 0.37 0 0.1 0.37 0 0 0.375 0 0.02 0.375 0 0.04 0.375 0 0.06 0.375 0 0.08 0.375 0 0.1 0.375 0 0 0.38 0 0.02 0.38 0 0.04 0.38 0 0.06 0.38 0 0.08 0.38 0 0.1 0.38 0 0 0.385 0 0.02 0.385 0 0.04 0.385 0 0.06 0.385 0 0.08 0.385 0 0.1 0.385 0 0 0.39 0 0.02 0.39 0 0.04 0.39 0 0.06 0.39 0 0.08 0.39 0 0.1 0.39 0 0 0.395 0 0.02 0.395 0 0.04 0.395 0 0.06 0.395 0 0.08 0.395 0 0.1 0.395 0 0 0.4 0 0.02 0.4 0 0.04 0.4 0 0.06 0.4 0 0.08 0.4 0 0.1 0.4 0 0 0.405 0 0.02 0.405 0 0.04 0.405 0 0.06 0.405 0 0.08 0.405 0 0.1 0.405 0 0 0.41 0 0.02 0.41 0 0.04 0.41 0 0.06 0.41 0 0.08 0.41 0 0.1 0.41 0 0 0.415 0 0.02 0.415 0 0.04 0.415 0 0.06 0.415 0 0.08 0.415 0 0.1 0.415 0 0 0.42 0 0.02 0.42 0 0.04 0.42 0 0.06 0.42 0 0.08 0.42 0 0.1 0.42 0 0 0.425 0 0.02 0.425 0 0.04 0.425 0 0.06 0.425 0 0.08 0.425 0 0.1 0.425 0 0 0.43 0 0.02 0.43 0 0.04 0.43 0 0.06 0.43 0 0.08 0.43 0 0.1 0.43 0 0 0.435 0 0.02 0.435 0 0.04 0.435 0 0.06 0.435 0 0.08 0.435 0 0.1 0.435 0 0 0.44 0 0.02 0.44 0 0.04 0.44 0 0.06 0.44 0 0.08 0.44 0 0.1 0.44 0 0 0.445 0 0.02 0.445 0 0.04 0.445 0 0.06 0.445 0 0.08 0.445 0 0.1 0.445 0 0 0.45 0 0.02 0.45 0 0.04 0.45 0 0.06 0.45 0 0.08 0.45 0 0.1 0.45 0 0 0.455 0 0.02 0.455 0 0.04 0.455 0 0.06 0.455 0 0.08 0.455 0 0.1 0.455 0 0 0.46 0 0.02 0.46 0 0.04 0.46 0 0.06 0.46 0 0.08 0.46 0 0.1 0.46 0 0 0.465 0 0.02 0.465 0 0.04 0.465 0 0.06 0.465 0 0.08 0.465 0 0.1 0.465 0 0 0.47 0 0.02 0.47 0 0.04 0.47 0 0.06 0.47 0 0.08 0.47 0 0.1 0.47 0 0 0.475 0 0.02 0.475 0 0.04 0.475 0 0.06 0.475 0 0.08 0.475 0 0.1 0.475 0 0 0.48 0 0.02 0.48 0 0.04 0.48 0 0.06 0.48 0 0.08 0.48 0 0.1 0.48 0 0 0.485 0 0.02 0.485 0 0.04 0.485 0 0.06 0.485 0 0.08 0.485 0 0.1 0.485 0 0 0.49 0 0.02 0.49 0 0.04 0.49 0 0.06 0.49 0 0.08 0.49 0 0.1 0.49 0 0 0.495 0 0.02 0.495 0 0.04 0.495 0 0.06 0.495 0 0.08 0.495 0 0.1 0.495 0 0 0.5 0 0.02 0.5 0 0.04 0.5 0 0.06 0.5 0 0.08 0.5 0 0.1 0.5 0 0 0.505 0 0.02 0.505 0 0.04 0.505 0 0.06 0.505 0 0.08 0.505 0 0.1 0.505 0 0 0.51 0 0.02 0.51 0 0.04 0.51 0 0.06 0.51 0 0.08 0.51 0 0.1 0.51 0 0 0.515 0 0.02 0.515 0 0.04 0.515 0 0.06 0.515 0 0.08 0.515 0 0.1 0.515 0 0 0.52 0 0.02 0.52 0 0.04 0.52 0 0.06 0.52 0 0.08 0.52 0 0.1 0.52 0 0 0.525 0 0.02 0.525 0 0.04 0.525 0 0.06 0.525 0 0.08 0.525 0 0.1 0.525 0 0 0.53 0 0.02 0.53 0 0.04 0.53 0 0.06 0.53 0 0.08 0.53 0 0.1 0.53 0 0 0.535 0 0.02 0.535 0 0.04 0.535 0 0.06 0.535 0 0.08 0.535 0 0.1 0.535 0 0 0.54 0 0.02 0.54 0 0.04 0.54 0 0.06 0.54 0 0.08 0.54 0 0.1 0.54 0 0 0.545 0 0.02 0.545 0 0.04 0.545 0 0.06 0.545 0 0.08 0.545 0 0.1 0.545 0 0 0.55 0 0.02 0.55 0 0.04 0.55 0 0.06 0.55 0 0.08 0.55 0 0.1 0.55 0 0 0.555 0 0.02 0.555 0 0.04 0.555 0 0.06 0.555 0 0.08 0.555 0 0.1 0.555 0 0 0.56 0 0.02 0.56 0 0.04 0.56 0 0.06 0.56 0 0.08 0.56 0 0.1 0.56 0 0 0.565 0 0.02 0.565 0 0.04 0.565 0 0.06 0.565 0 0.08 0.565 0 0.1 0.565 0 0 0.57 0 0.02 0.57 0 0.04 0.57 0 0.06 0.57 0 0.08 0.57 0 0.1 0.57 0 0 0.575 0 0.02 0.575 0 0.04 0.575 0 0.06 0.575 0 0.08 0.575 0 0.1 0.575 0 0 0.58 0 0.02 0.58 0 0.04 0.58 0 0.06 0.58 0 0.08 0.58 0 0.1 0.58 0 0 0.585 0 0.02 0.585 0 0.04 0.585 0 0.06 0.585 0 0.08 0.585 0 0.1 0.585 0 0 0.59 0 0.02 0.59 0 0.04 0.59 0 0.06 0.59 0 0.08 0.59 0 0.1 0.59 0 0 0.595 0 0.02 0.595 0 0.04 0.595 0 0.06 0.595 0 0.08 0.595 0 0.1 0.595 0 0 0.6 0 0.02 0.6 0 0.04 0.6 0 0.06 0.6 0 0.08 0.6 0 0.1 0.6 0 0 0.605 0 0.02 0.605 0 0.04 0.605 0 0.06 0.605 0 0.08 0.605 0 0.1 0.605 0 0 0.61 0 0.02 0.61 0 0.04 0.61 0 0.06 0.61 0 0.08 0.61 0 0.1 0.61 0 0 0.615 0 0.02 0.615 0 0.04 0.615 0 0.06 0.615 0 0.08 0.615 0 0.1 0.615 0 0 0.62 0 0.02 0.62 0 0.04 0.62 0 0.06 0.62 0 0.08 0.62 0 0.1 0.62 0 0 0.625 0 0.02 0.625 0 0.04 0.625 0 0.06 0.625 0 0.08 0.625 0 0.1 0.625 0 0 0.63 0 0.02 0.63 0 0.04 0.63 0 0.06 0.63 0 0.08 0.63 0 0.1 0.63 0 0 0.635 0 0.02 0.635 0 0.04 0.635 0 0.06 0.635 0 0.08 0.635 0 0.1 0.635 0 0 0.64 0 0.02 0.64 0 0.04 0.64 0 0.06 0.64 0 0.08 0.64 0 0.1 0.64 0 0 0.645 0 0.02 0.645 0 0.04 0.645 0 0.06 0.645 0 0.08 0.645 0 0.1 0.645 0 0 0.65 0 0.02 0.65 0 0.04 0.65 0 0.06 0.65 0 0.08 0.65 0 0.1 0.65 0 0 0.655 0 0.02 0.655 0 0.04 0.655 0 0.06 0.655 0 0.08 0.655 0 0.1 0.655 0 0 0.66 0 0.02 0.66 0 0.04 0.66 0 0.06 0.66 0 0.08 0.66 0 0.1 0.66 0 0 0.665 0 0.02 0.665 0 0.04 0.665 0 0.06 0.665 0 0.08 0.665 0 0.1 0.665 0 0 0.67 0 0.02 0.67 0 0.04 0.67 0 0.06 0.67 0 0.08 0.67 0 0.1 0.67 0 0 0.675 0 0.02 0.675 0 0.04 0.675 0 0.06 0.675 0 0.08 0.675 0 0.1 0.675 0 0 0.68 0 0.02 0.68 0 0.04 0.68 0 0.06 0.68 0 0.08 0.68 0 0.1 0.68 0 0 0.685 0 0.02 0.685 0 0.04 0.685 0 0.06 0.685 0 0.08 0.685 0 0.1 0.685 0 0 0.69 0 0.02 0.69 0 0.04 0.69 0 0.06 0.69 0 0.08 0.69 0 0.1 
[...]
			<CellData Scalars="Density">
				<DataArray Name="Density" type="Float32" format="ascii">
 1 1 1 1 1 1 1 1 1 1 1 1 1 1 1 1 1 1 1 1 1 1 1 1 1 1 1 1 1 1 1 1 1 1 1 1 1 1 1 1 1 1 1 1 1 1 1 1 1 1 1 1 1 1 1 1 1 1 1 1 1 1 1 1 1 1 1 1 1 1 1 1 1 1 1 1 1 1 1 1 1 1 1 1 1 1 1 1 1 1 1 1 1 1 1 1 1 1 1 1 1 1 1 1 1 1 1 1 1 1 1 1 1 1 1 1 1 1 1 1 1 1 1 1 1 1 1 1 1 1 1 1 1 1 1 1 1 1 1 1 1 1 1 1 1 1 1 1 1 1 1 1 1 1 1 1 1 1 1 1 1 1 1 1 1 1 1 1 1 1 1 1 1 1 1 1 1 1 1 1 1 1 1 1 1 1 1 1 1 1 0.999999 0.999999 0.999999 0.999999 0.999999 0.999998 0.999998 0.999998 0.999998 0.999998 0.999994 0.999994 0.999994 0.999994 0.999994 0.999984 0.999984 0.999984 0.999984 0.999985 0.999957 0.999956 0.999958 0.999959 0.999961 0.999892 0.99989 0.999897 0.9999 0.999903 0.999754 0.999751 0.999764 0.99976 0.99977 0.999477 0.99947 0.999477 0.999442 0.999477 0.99896 0.998933 0.998909 0.998802 0.998905 0.99808 0.997999 0.997904 0.997663 0.9979 0.996705 0.996529 0.996303 0.995836 0.996294 0.994706 0.994396 0.993969 0.993171 0.993944 0.991953 0.991514 0.990862 0.989639 0.990778 0.988233 0.987733 0.98699 0.985337 0.986786 0.983158 0.982555 0.982244 0.980484 0.981946 0.976455 0.975298 0.97616 0.975087 0.976143 0.968403 0.96625 0.968466 0.968592 0.969015 0.959439 0.956312 0.959568 0.960567 0.960326 0.949693 0.94587 0.949844 0.951165 0.95028 0.939308 0.935024 0.939387 0.940727 0.939317 0.928317 0.923894 0.928354 0.929555 0.927711 0.916748 0.91256 0.916874 0.917717 0.915407 0.904547 0.900856 0.904846 0.90517 0.902508 0.891737 0.888763 0.891856 0.89165 0.889206 0.87823 0.87634 0.877935 0.877081 0.875722 0.863744 0.863177 0.86377 0.862649 0.862203 0.848444 0.849161 0.849494 0.848449 0.84848 0.83346 0.835028 0.835304 0.834127 0.834427 0.819105 0.820902 0.820941 0.819785 0.820255 0.805271 0.806491 0.806109 0.805496 0.805908 0.791522 0.791945 0.791007 0.791209 0.791525 0.77759 0.777612 0.776177 0.777041 0.777316 0.763504 0.76349 0.761787 0.76301 0.76328 0.749523 0.74951 0.747695 0.749019 0.749375 0.735596 0.735644 0.733809 0.735137 0.735575 0.721767 0.721949 0.720139 0.721421 0.721907 0.707991 0.708381 0.706653 0.707826 0.708335 0.694301 0.695006 0.693432 0.694443 0.694936 0.680667 0.681771 0.680334 0.68115 0.68158 0.667344 0.668824 0.667485 0.668103 0.668444 0.654218 0.656023 0.654745 0.655151 0.65538 0.641329 0.64335 0.642099 0.642269 0.642445 0.628798 0.630946 0.629655 0.629553 0.629818 0.616467 0.618682 0.617362 0.616969 0.617423 0.604382 0.606572 0.605341 0.60469 0.605244 0.592664 0.594666 0.593653 0.592821 0.593317 0.581155 0.582791 0.58214 0.581224 0.581485 0.569773 0.570917 0.570675 0.569817 0.56973 0.558673 0.559323 0.559346 0.558772 0.558417 0.547817 0.548126 0.548106 0.547964 0.547544 0.537061 0.53723 0.536965 0.537219 0.536908 0.526471 0.526617 0.526123 0.52662 0.526449 0.516259 0.516455 0.515774 0.516361 0.516357 0.506466 0.506772 0.505922 0.506505 0.506625 0.496921 0.497362 0.496371 0.496927 0.497082 0.487654 0.488227 0.487162 0.487656 0.487777 0.478893 0.479564 0.478507 0.478892 0.478924 0.47071 0.471435 0.470449 0.470748 0.47063 0.463089 0.463855 0.462972 0.463242 0.462939 0.455953 0.456757 0.455979 0.456271 0.455781 0.449209 0.450025 0.449337 0.449679 0.449055 0.443174 0.443984 0.443321 0.44374 0.443051 0.438493 0.43928 0.438588 0.4391 0.438396 0.434638 0.435452 0.434677 0.435353 0.434587 0.430896 0.431796 0.43091 0.431783 0.430889 0.42815 0.429036 0.428152 0.429105 0.428225 0.426656 0.427488 0.426645 0.427616 0.426781 0.425349 0.426073 0.42532 0.426188 0.425407 0.424362 0.424859 0.424368 0.424964 0.424339 0.424164 0.424521 0.424195 0.424561 0.424159 0.423879 0.424126 0.423956 0.424186 0.423819 0.423268 0.423338 0.423421 0.423377 0.423122 0.422957 0.422954 0.423077 0.422923 0.422958 0.423012 0.422997 0.423077 0.422909 0.422967 0.423425 0.423406 0.423419 0.423342 0.423498 0.423592 0.423594 0.423564 0.423531 0.423689 0.423351 0.423361 0.423318 0.423311 0.423459 0.422698 0.422671 0.422651 0.42266 0.422776 0.422559 0.422517 0.422516 0.422509 0.422614 0.422839 0.422767 0.42279 0.422788 0.42287 0.423232 0.423188 0.423213 0.423223 0.423282 0.423203 0.423177 0.423197 0.42321 0.423259 0.422169 0.422187 0.422213 0.422236 0.422244 0.421389 0.421387 0.421416 0.421435 0.421443 0.421367 0.421364 0.421392 0.421409 0.421419 0.422132 0.422065 0.42212 0.422097 0.422134 0.422537 0.422536 0.422544 0.422541 0.422552 0.421874 0.421961 0.421942 0.421932 0.421932 0.41868 0.418797 0.418791 0.4188 0.41875 0.416959 0.416901 0.416932 0.416937 0.41699 0.417434 0.41723 0.417184 0.417355 0.417456 0.425151 0.425349 0.425106 0.425595 0.425618 0.431919 0.43278 0.432417 0.432855 0.432691 0.432024 0.433008 0.43251 0.432999 0.432459 0.391127 0.393207 0.390727 0.391744 0.391193 0.337058 0.337427 0.336272 0.337023 0.33696 0.293723 0.293279 0.29315 0.293257 0.293643 0.269835 0.269314 0.269451 0.26935 0.269754 0.262937 0.262649 0.262754 0.262623 0.262867 0.264167 0.264106 0.264168 0.264081 0.264123 0.264428 0.264402 0.264465 0.2644 0.264411 0.264539 0.264528 0.264593 0.26455 0.264534 0.264877 0.264874 0.264911 0.26491 0.264895 0.265165 0.26516 0.265168 0.265192 0.265181 0.265353 0.265354 0.265331 0.265377 0.265365 0.265493 0.265509 0.265459 0.265521 0.265515 0.265619 0.265634 0.265608 0.265633 0.265639 0.265738 0.26573 0.265775 0.265735 0.265744 0.265829 0.265827 0.265926 0.265851 0.265851 0.265867 0.265932 0.266035 0.265966 0.265963 0.265885 0.266028 0.266086 0.266069 0.266056 0.265934 0.266104 0.266092 0.266124 0.26611 0.266029 0.266146 0.26609 0.266133 0.266134 0.266108 0.266161 0.266071 0.266127 0.266134 0.266135 0.266176 0.266046 0.266113 0.266125 0.266127 0.266177 0.266024 0.266103 0.266113 0.266096 0.266139 0.266001 0.266102 0.266105 0.266078 0.265965 0.265984 0.26611 0.266102 0.266086 0.265865 0.265986 0.26612 0.266102 0.266116 0.265839 0.265965 0.266114 0.266101 0.266165 0.265842 0.265936 0.266114 0.26613 0.266142 0.265782 0.265872 0.266054 0.266124 0.266204 0.265737 0.265916 0.266049 0.266067 0.265759 0.265307 0.26561 0.265639 0.265641 0.26631 0.266288 0.266363 0.26642 0.266293 0.251754 0.252822 0.252233 0.252463 0.252484 0.225767 0.227148 0.226134 0.225803 0.225672 0.158309 0.158812 0.158401 0.158008 0.157744 0.130505 0.130535 0.13051 0.13045 0.130386 0.125831 0.125832 0.125831 0.125826 0.125819 0.125126 0.125126 0.125126 0.125125 0.125125 0.125019 0.125019 0.125019 0.125019 0.125019 0.125003 0.125003 0.125003 0.125003 0.125003 0.125 0.125 0.125 0.125 0.125 0.125 0.125 0.125 0.125 0.125 0.125 0.125 0.125 0.125 0.125 0.125 0.125 0.125 0.125 0.125 0.125 0.125 0.125 0.125 0.125 0.125 0.125 0.125 0.125 0.125 0.125 0.125 0.125 0.125 0.125 0.125 0.125 0.125 0.125 0.125 0.125 0.125 0.125 0.125 0.125 0.125 0.125 0.125 0.125 0.125 0.125 0.125 0.125 0.125 0.125 0.125 0.125 0.125 0.125 0.125 0.125 0.125 0.125 0.125 0.125 0.125 0.125 0.125 0.125 0.125 0.125 0.125 0.125 0.125 0.125 0.125 0.125 0.125 0.125 0.125 0.125 0.125 0.125 0.125 0.125 0.125 0.125 0.125 0.125 0.125 0.125 0.125 0.125 0.125 0.125 0.125 0.125 0.125 0.125 0.125 0.125 0.125 0.125 0.125 0.125 0.125 0.125 0.125 0.125 0.125 0.125 0.125 0.125 0.125 0.125 0.125 0.125 0.125 0.125 0.125 0.125 0.125 0.125 0.125 0.125 0.125 0.125 0.125 0.125 0.125 0.125 0.125 0.125 0.125 0.125 0.125 0.125 0.125 0.125 0.125 0.125 0.125 0.125 0.125 0.125
				</DataArray>
				<DataArray Name="Energy" type="Float32" format="ascii">
 2.5 2.5 2.5 2.5 2.5 2.5 2.5 2.5 2.5 2.5 2.5 2.5 2.5 2.5 2.5 2.5 2.5 2.5 2.5 2.5 2.5 2.5 2.5 2.5 2.5 2.5 2.5 2.5 2.5 2.5 2.5 2.5 2.5 2.5 2.5 2.5 2.5 2.5 2.5 2.5 2.5 2.5 2.5 2.5 2.5 2.5 2.5 2.5 2.5 2.5 2.5 2.5 2.5 2.5 2.5 2.5 2.5 2.5 2.5 2.5 2.5 2.5 2.5 2.5 2.5 2.5 2.5 2.5 2.5 2.5 2.5 2.5 2.5 2.5 2.5 2.5 2.5 2.5 2.5 2.5 2.5 2.5 2.5 2.5 2.5 2.5 2.5 2.5 2.5 2.5 2.5 2.5 2.5 2.5 2.5 2.5 2.5 2.5 2.5 2.5 2.5 2.5 2.5 2.5 2.5 2.5 2.5 2.5 2.5 2.5 2.5 2.5 2.5 2.5 2.5 2.5 2.5 2.5 2.5 2.5 2.5 2.5 2.5 2.5 2.5 2.5 2.5 2.5 2.5 2.5 2.5 2.5 2.5 2.5 2.5 2.5 2.5 2.5 2.5 2.5 2.5 2.5 2.5 2.5 2.5 2.5 2.5 2.5 2.5 2.5 2.5 2.5 2.5 2.5 2.5 2.5 2.5 2.5 2.5 2.5 2.5 2.5 2.5 2.5 2.5 2.5 2.5 2.5 2.5 2.5 2.5 2.5 2.5 2.5 2.5 2.5 2.5 2.5 2.5 2.5 2.5 2.5 2.5 2.5 2.5 2.5 2.5 2.5 2.5 2.5 2.5 2.5 2.5 2.5 2.5 2.5 2.5 2.5 2.5 2.5 2.49999 2.49999 2.49999 2.49999 2.49999 2.49998 2.49998 2.49998 2.49998 2.49998 2.49996 2.49996 2.49996 2.49996 2.49996 2.49989 2.49989 2.4999 2.4999 2.4999 2.49975 2.49975 2.49976 2.49976 2.49977 2.49948 2.49947 2.49948 2.49944 2.49948 2.49896 2.49893 2.49891 2.4988 2.49891 2.49808 2.498 2.4979 2.49766 2.4979 2.4967 2.49653 2.4963 2.49583 2.49629 2.4947 2.49439 2.49397 2.49316 2.49394 2.49194 2.4915 2.49085 2.48962 2.49077 2.48821 2.48771 2.48697 2.4853 2.48676 2.48311 2.4825 2.48219 2.48041 2.4819 2.47635 2.47518 2.47606 2.47496 2.47605 2.46821 2.46601 2.46828 2.46838 2.46884 2.4591 2.4559 2.45925 2.46022 2.46002 2.44916 2.44521 2.44933 2.45063 2.44976 2.43851 2.43404 2.43861 2.43992 2.4385 2.42716 2.42251 2.42723 2.42839 2.4265 2.41514 2.41069 2.41531 2.41609 2.4137 2.40237 2.39839 2.40274 2.40296 2.40017 2.38885 2.38559 2.38905 2.38869 2.3861 2.37447 2.37233 2.37423 2.37314 2.37172 2.35889 2.35818 2.359 2.35758 2.35719 2.34226 2.34296 2.3435 2.34213 2.34229 2.32579 2.32747 2.32794 2.32641 2.32687 2.30985 2.31183 2.31207 2.31051 2.31118 2.29432 2.29572 2.29548 2.29451 2.29513 2.27871 2.27928 2.27837 2.27835 2.27888 2.26275 2.26292 2.26136 2.26214 2.26264 2.24645 2.24663 2.24469 2.24594 2.24645 2.2301 2.23033 2.2282 2.2296 2.23024 2.21366 2.21402 2.21178 2.21323 2.21396 2.19709 2.19768 2.19536 2.19684 2.19758 2.18052 2.18144 2.17911 2.18054 2.18125 2.16365 2.16502 2.1628 2.16409 2.16475 2.147 2.14892 2.1468 2.1479 2.14845 2.13016 2.13263 2.13055 2.13146 2.13183 2.11364 2.11655 2.11451 2.11517 2.11537 2.0973 2.10053 2.09847 2.09888 2.09893 2.08086 2.08428 2.08215 2.08222 2.08234 2.06484 2.06832 2.06617 2.06584 2.06621 2.04907 2.05252 2.05049 2.04983 2.05028 2.03312 2.03632 2.03461 2.03371 2.03404 2.01746 2.0201 2.01893 2.0179 2.01791 2.00228 2.0042 2.00363 2.00269 2.00217 1.98683 1.9881 1.98788 1.98742 1.98642 1.97119 1.97198 1.9717 1.9719 1.9708 1.95605 1.95662 1.95599 1.95675 1.95585 1.94133 1.9419 1.94088 1.94204 1.94132 1.92643 1.92715 1.92581 1.92717 1.92661 1.91147 1.91237 1.91076 1.91215 1.91175 1.8973 1.8984 1.89657 1.89788 1.8976 1.88402 1.88531 1.88335 1.88454 1.88424 1.87097 1.87243 1.87046 1.87156 1.87104 1.85808 1.8597 1.8578 1.85884 1.85797 1.84567 1.84734 1.84561 1.8466 1.84545 1.83437 1.83599 1.83449 1.83542 1.83411 1.825 1.82661 1.82521 1.82621 1.82472 1.81674 1.81838 1.81707 1.81822 1.81651 1.80734 1.80913 1.80767 1.8092 1.80722 1.79934 1.80106 1.79951 1.80116 1.79925 1.79596 1.79755 1.79598 1.79764 1.79591 1.79307 1.79485 1.79306 1.79519 1.79316 1.78885 1.79056 1.78899 1.79105 1.789 1.78722 1.78856 1.78734 1.78899 1.78741 1.78687 1.78809 1.78682 1.78843 1.78687 1.78498 1.78587 1.78521 1.78615 1.78481 1.78448 1.78477 1.78459 1.78494 1.78427 1.78634 1.7866 1.78654 1.78679 1.78648 1.78748 1.78774 1.78774 1.788 1.7875 1.78741 1.78772 1.78755 1.78765 1.78748 1.78595 1.78616 1.78611 1.78604 1.78582 1.78572 1.78574 1.78567 1.78552 1.78579 1.78723 1.78712 1.78715 1.78711 1.78733 1.79033 1.79026 1.79025 1.79032 1.79041 1.79118 1.79117 1.79116 1.79132 1.79126 1.79022 1.79037 1.79035 1.79048 1.79036 1.78865 1.78874 1.78875 1.78881 1.78872 1.78882 1.78887 1.78893 1.78895 1.78886 1.79326 1.79316 1.79325 1.7932 1.79325 1.79663 1.79664 1.79668 1.79661 1.79666 1.79683 1.79684 1.79686 1.79677 1.79679 1.79369 1.79396 1.79387 1.79394 1.79383 1.79208 1.79206 1.79213 1.79212 1.79214 1.79502 1.79464 1.7948 1.79485 1.79485 1.80883 1.80827 1.80843 1.80833 1.8086 1.81655 1.81666 1.81662 1.81652 1.81646 1.81444 1.81547 1.81533 1.81492 1.81436 1.78138 1.78051 1.7815 1.77966 1.77957 1.75542 1.75057 1.75386 1.75029 1.75264 1.75199 1.74469 1.74996 1.74488 1.74966 1.92423 1.91848 1.92661 1.92529 1.92421 2.24249 2.24271 2.24716 2.24534 2.24309 2.57961 2.58328 2.58452 2.58363 2.58038 2.80529 2.81024 2.80946 2.81023 2.80613 2.87884 2.88191 2.88123 2.88242 2.87955 2.86889 2.8696 2.869 2.86987 2.86925 2.86386 2.86402 2.86342 2.8641 2.86403 2.86274 2.86275 2.86218 2.86261 2.8628 2.85929 2.85925 2.85897 2.85904 2.85921 2.85628 2.85634 2.85629 2.85614 2.85628 2.85433 2.85434 2.85462 2.85423 2.8544 2.85289 2.85274 2.85331 2.85276 2.85288 2.85153 2.8514 2.85171 2.85155 2.85156 2.8502 2.85033 2.84989 2.85042 2.85041 2.84913 2.84921 2.8482 2.84912 2.8492 2.8486 2.84798 2.84695 2.84779 2.84791 2.84826 2.84682 2.84633 2.84661 2.84682 2.84758 2.84589 2.84617 2.84591 2.84613 2.84648 2.84536 2.84613 2.84572 2.84578 2.84552 2.84508 2.84623 2.84569 2.84568 2.84521 2.84493 2.84645 2.8458 2.84574 2.84522 2.84504 2.84672 2.84591 2.84589 2.84552 2.84556 2.84711 2.846 2.84613 2.84586 2.84742 2.84738 2.84604 2.84638 2.84631 2.84874 2.8476 2.84613 2.84664 2.84655 2.84885 2.84771 2.84641 2.84695 2.84668 2.84836 2.84777 2.84698 2.84728 2.847 2.84711 2.8475 2.84749 2.84728 2.84834 2.84645 2.84764 2.84872 2.84752 2.8472 2.84439 2.84629 2.84922 2.84714 2.8518 2.84837 2.84939 2.85173 2.85103 2.78718 2.78596 2.78404 2.78537 2.7857 2.64258 2.64856 2.64405 2.64211 2.64151 2.23687 2.24053 2.23756 2.23473 2.23295 2.03584 2.03604 2.03586 2.03545 2.03503 2.00534 2.00535 2.00534 2.00531 2.00526 2.00081 2.00081 2.00081 2.0008 2.0008 2.00012 2.00012 2.00012 2.00012 2.00012 2.00002 2.00002 2.00002 2.00002 2.00002 2 2 2 2 2 2 2 2 2 2 2 2 2 2 2 2 2 2 2 2 2 2 2 2 2 2 2 2 2 2 2 2 2 2 2 2 2 2 2 2 2 2 2 2 2 2 2 2 2 2 2 2 2 2 2 2 2 2 2 2 2 2 2 2 2 2 2 2 2 2 2 2 2 2 2 2 2 2 2 2 2 2 2 2 2 2 2 2 2 2 2 2 2 2 2 2 2 2 2 2 2 2 2 2 2 2 2 2 2 2 2 2 2 2 2 2 2 2 2 2 2 2 2 2 2 2 2 2 2 2 2 2 2 2 2 2 2 2 2 2 2 2 2 2 2
				</DataArray>
				<DataArray Name="F1" type="Float32" format="ascii">
 1 1 1 1 1 1 1 1 1 1 1 1 1 1 1 1 1 1 1 1 1 1 1 1 1 1 1 1 1 1 1 1 1 1 1 1 1 1 1 1 1 1 1 1 1 1 1 1 1 1 1 1 1 1 1 1 1 1 1 1 1 1 1 1 1 1 1 1 1 1 1 1 1 1 1 1 1 1 1 1 1 1 1 1 1 1 1 1 1 1 1 1 1 1 1 1 1 1 1 1 1 1 1 1 1 1 1 1 1 1 1 1 1 1 1 1 1 1 1 1 1 1 1 1 1 1 1 1 1 1 1 1 1 1 1 1 1 1 1 1 1 1 1 1 1 1 1 1 1 1 1 1 1 1 1 1 1 1 1 1 1 1 1 1 1 1 1 1 1 1 1 1 1 1 1 1 1 1 1 1 1 1 1 1 1 1 1 1 1 1 1 1 1 1 1 1 1 1 1 1 1 1 1 1 1 1 1 1 1 1 1 1 1 1 1 1 1 1 1 1 1 1 1 1 1 1 1 1 1 1 1 1 1 1 1 1 1 1 1 1 1 1 1 1 1 1 1 1 1 1 1 1 1 1 1 1 1 1 1 1 1 1 1 1 1 1 1 1 1 1 1 1 1 1 1 1 1 1 1 1 1 1 1 1 1 1 1 1 1 1 1 1 1 1 1 1 1 1 1 1 1 1 1 1 1 1 1 1 1 1 1 1 1 1 1 1 1 1 1 1 1 1 1 1 1 1 1 1 1 1 1 1 1 1 1 1 1 1 1 1 1 1 1 1 1 1 1 1 1 1 1 1 1 1 1 1 1 1 1 1 1 1 1 1 1 1 1 1 1 1 1 1 1 1 1 1 1 1 1 1 1 1 1 1 1 1 1 1 1 1 1 1 1 1 1 1 1 1 1 1 1 1 1 1 1 1 1 1 1 1 1 1 1 1 1 1 1 1 1 1 1 1 1 1 1 1 1 1 1 1 1 1 1 1 1 1 1 1 1 1 1 1 1 1 1 1 1 1 1 1 1 1 1 1 1 1 1 1 1 1 1 1 1 1 1 1 1 1 1 1 1 1 1 1 1 1 1 1 1 1 1 1 1 1 1 1 1 1 1 1 1 1 1 1 1 1 1 1 1 1 1 1 1 1 1 1 1 1 1 1 1 1 1 1 1 1 1 1 1 1 1 1 1 1 1 1 1 1 1 1 1 1 1 1 1 1 1 1 1 1 1 1 1 1 1 1 1 1 1 1 1 1 1 1 1 1 1 1 1 1 1 1 1 1 1 1 1 1 1 1 1 1 1 1 1 1 1 1 1 1 1 1 1 1 1 1 1 1 1 1 1 1 1 1 1 1 1 1 1 1 1 1 1 1 1 1 1 1 1 1 1 1 1 1 1 1 1 1 1 1 1 1 1 1 1 1 1 1 1 1 1 1 1 1 1 1 1 1 1 1 1 1 1 1 1 1 1 1 1 1 1 1 1 1 1 1 1 1 1 1 0.967977 0.964704 0.96711 0.963347 0.967706 0.729179 0.723383 0.727183 0.720143 0.727905 0.412038 0.408127 0.410299 0.405006 0.410227 0.163957 0.16251 0.163062 0.160591 0.162459 0.0356507 0.0354561 0.0354005 0.0347344 0.0349355 0.00104654 0.00105943 0.00103246 0.000995376 0.000969666 0 0 0 0 0 0 0 0 0 0 0 0 0 0 0 0 0 0 0 0 0 0 0 0 0 0 0 0 0 0 0 0 0 0 0 0 0 0 0 0 0 0 0 0 0 0 0 0 0 0 0 0 0 0 0 0 0 0 0 0 0 0 0 0 0 0 0 0 0 0 0 0 0 0 0 0 0 0 0 0 0 0 0 0 0 0 0 0 0 0 0 0 0 0 0 0 0 0 0 0 0 0 0 0 0 0 0 0 0 0 0 0 0 0 0 0 0 0 0 0 0 0 0 0 0 0 0 0 0 0 0 0 0 0 0 0 0 0 0 0 0 0 0 0 0 0 0 0 0 0 0 0 0 0 0 0 0 0 0 0 0 0 0 0 0 0 0 0 0 0 0 0 0 0 0 0 0 0 0 0 0 0 0 0 0 0 0 0 0 0 0 0 0 0 0 0 0 0 0 0 0 0 0 0 0 0 0 0 0 0 0 0 0 0 0 0 0 0 0 0 0 0 0 0 0 0 0 0 0 0 0 0 0 0 0 0 0 0 0 0 0 0 0 0 0 0 0 0 0 0 0 0 0 0 0 0 0 0 0 0 0 0 0 0 0 0 0 0 0 0 0 0 0 0 0 0 0 0 0 0 0 0 0 0 0 0 0 0 0 0 0 0 0 0 0 0 0 0 0 0 0 0 0 0 0 0 0 0 0 0
				</DataArray>
				<DataArray Name="F2" type="Float32" format="ascii">
 0 0 0 0 0 0 0 0 0 0 0 0 0 0 0 0 0 0 0 0 0 0 0 0 0 0 0 0 0 0 0 0 0 0 0 0 0 0 0 0 0 0 0 0 0 0 0 0 0 0 0 0 0 0 0 0 0 0 0 0 0 0 0 0 0 0 0 0 0 0 0 0 0 0 0 0 0 0 0 0 0 0 0 0 0 0 0 0 0 0 0 0 0 0 0 0 0 0 0 0 0 0 0 0 0 0 0 0 0 0 0 0 0 0 0 0 0 0 0 0 0 0 0 0 0 0 0 0 0 0 0 0 0 0 0 0 0 0 0 0 0 0 0 0 0 0 0 0 0 0 0 0 0 0 0 0 0 0 0 0 0 0 0 0 0 0 0 0 0 0 0 0 0 0 0 0 0 0 0 0 0 0 0 0 0 0 0 0 0 0 0 0 0 0 0 0 0 0 0 0 0 0 0 0 0 0 0 0 0 0 0 0 0 0 0 0 0 0 0 0 0 0 0 0 0 0 0 0 0 0 0 0 0 0 0 0 0 0 0 0 0 0 0 0 0 0 0 0 0 0 0 0 0 0 0 0 0 0 0 0 0 0 0 0 0 0 0 0 0 0 0 0 0 0 0 0 0 0 0 0 0 0 0 0 0 0 0 0 0 0 0 0 0 0 0 0 0 0 0 0 0 0 0 0 0 0 0 0 0 0 0 0 0 0 0 0 0 0 0 0 0 0 0 0 0 0 0 0 0 0 0 0 0 0 0 0 0 0 0 0 0 0 0 0 0 0 0 0 0 0 0 0 0 0 0 0 0 0 0 0 0 0 0 0 0 0 0 0 0 0 0 0 0 0 0 0 0 0 0 0 0 0 0 0 0 0 0 0 0 0 0 0 0 0 0 0 0 0 0 0 0 0 0 0 0 0 0 0 0 0 0 0 0 0 0 0 0 0 0 0 0 0 0 0 0 0 0 0 0 0 0 0 0 0 0 0 0 0 0 0 0 0 0 0 0 0 0 0 0 0 0 0 0 0 0 0 0 0 0 0 0 0 0 0 0 0 0 0 0 0 0 0 0 0 0 0 0 0 0 0 0 0 0 0 0 0 0 0 0 0 0 0 0 0 0 0 0 0 0 0 0 0 0 0 0 0 0 0 0 0 0 0 0 0 0 0 0 0 0 0 0 0 0 0 0 0 0 0 0 0 0 0 0 0 0 0 0 0 0 0 0 0 0 0 0 0 0 0 0 0 0 0 0 0 0 0 0 0 0 0 0 0 0 0 0 0 0 0 0 0 0 0 0 0 0 0 0 0 0 0 0 0 0 0 0 0 0 0 0 0 0 0 0 0 0 0 0 0 0 0 0 0 0 0 0 0 0 0 0 0 0 0 0 0 0 0 0 0 0 0 0 0 0 0 0 0 0 0 0 0 0 0 0 0 0 0 0 0 0 0 0 0 0 0 0 0 0 0 0 0 0 0 0 0 0 0 0 0 0 0 0.032023 0.0352964 0.0328898 0.0366525 0.0322936 0.270821 0.276617 0.272817 0.279857 0.272095 0.587962 0.591873 0.589701 0.594994 0.589773 0.836043 0.83749 0.836938 0.839409 0.837541 0.964349 0.964544 0.9646 0.965266 0.965065 0.998953 0.998941 0.998968 0.999005 0.99903 1 1 1 1 1 1 1 1 1 1 1 1 1 1 1 1 1 1 1 1 1 1 1 1 1 1 1 1 1 1 1 1 1 1 1 1 1 1 1 1 1 1 1 1 1 1 1 1 1 1 1 1 1 1 1 1 1 1 1 1 1 1 1 1 1 1 1 1 1 1 1 1 1 1 1 1 1 1 1 1 1 1 1 1 1 1 1 1 1 1 1 1 1 1 1 1 1 1 1 1 1 1 1 1 1 1 1 1 1 1 1 1 1 1 1 1 1 1 1 1 1 1 1 1 1 1 1 1 1 1 1 1 1 1 1 1 1 1 1 1 1 1 1 1 1 1 1 1 1 1 1 1 1 1 1 1 1 1 1 1 1 1 1 1 1 1 1 1 1 1 1 1 1 1 1 1 1 1 1 1 1 1 1 1 1 1 1 1 1 1 1 1 1 1 1 1 1 1 1 1 1 1 1 1 1 1 1 1 1 1 1 1 1 1 1 1 1 1 1 1 1 1 1 1 1 1 1 1 1 1 1 1 1 1 1 1 1 1 1 1 1 1 1 1 1 1 1 1 1 1 1 1 1 1 1 1 1 1 1 1 1 1 1 1 1 1 1 1 1 1 1 1 1 1 1 1 1 1 1 1 1 1 1 1 1 1 1 1 1 1 1 1 1 1 1 1 1 1 1 1 1 1 1 1 1 1 1 1 1 1
				</DataArray>
				<DataArray Name="F3" type="Float32" format="ascii">