<?xml version="1.0"?>
<VTKFile type="PolyData">
	<PolyData>
		<Piece NumberOfPoints="1206" NumberOfPolys="1000">
			<Points>
				<DataArray type="Float32" NumberOfComponents="3" format="ascii">
 0 0 0 0.005 0 0 0.01 0 0 0.015 0 0 0.02 0 0 0.025 0 0 0.03 0 0 0.035 0 0 0.04 0 0 0.045 0 0 0.05 0 0 0.055 0 0 0.06 0 0 0.065 0 0 0.07 0 0 0.075 0 0 0.08 0 0 0.085 0 0 0.09 0 0 0.095 0 0 0.1 0 0 0.105 0 0 0.11 0 0 0.115 0 0 0.12 0 0 0.125 0 0 0.13 0 0 0.135 0 0 0.14 0 0 0.145 0 0 0.15 0 0 0.155 0 0 0.16 0 0 0.165 0 0 0.17 0 0 0.175 0 0 0.18 0 0 0.185 0 0 0.19 0 0 0.195 0 0 0.2 0 0 0.205 0 0 0.21 0 0 0.215 0 0 0.22 0 0 0.225 0 0 0.23 0 0 0.235 0 0 0.24 0 0 0.245 0 0 0.25 0 0 0.255 0 0 0.26 0 0 0.265 0 0 0.27 0 0 0.275 0 0 0.28 0 0 0.285 0 0 0.29 0 0 0.295 0 0 0.3 0 0 0.305 0 0 0.31 0 0 0.315 0 0 0.32 0 0 0.325 0 0 0.33 0 0 0.335 0 0 0.34 0 0 0.345 0 0 0.35 0 0 0.355 0 0 0.36 0 0 0.365 0 0 0.37 0 0 0.375 0 0 0.38 0 0 0.385 0 0 0.39 0 0 0.395 0 0 0.4 0 0 0.405 0 0 0.41 0 0 0.415 0 0 0.42 0 0 0.425 0 0 0.43 0 0 0.435 0 0 0.44 0 0 0.445 0 0 0.45 0 0 0.455 0 0 0.46 0 0 0.465 0 0 0.47 0 0 0.475 0 0 0.48 0 0 0.485 0 0 0.49 0 0 0.495 0 0 0.5 0 0 0.505 0 0 0.51 0 0 0.515 0 0 0.52 0 0 0.525 0 0 0.53 0 0 0.535 0 0 0.54 0 0 0.545 0 0 0.55 0 0 0.555 0 0 0.56 0 0 0.565 0 0 0.57 0 0 0.575 0 0 0.58 0 0 0.585 0 0 0.59 0 0 0.595 0 0 0.6 0 0 0.605 0 0 0.61 0 0 0.615 0 0 0.62 0 0 0.625 0 0 0.63 0 0 0.635 0 0 0.64 0 0 0.645 0 0 0.65 0 0 0.655 0 0 0.66 0 0 0.665 0 0 0.67 0 0 0.675 0 0 0.68 0 0 0.685 0 0 0.69 0 0 0.695 0 0 0.7 0 0 0.705 0 0 0.71 0 0 0.715 0 0 0.72 0 0 0.725 0 0 0.73 0 0 0.735 0 0 0.74 0 0 0.745 0 0 0.75 0 0 0.755 0 0 0.76 0 0 0.765 0 0 0.77 0 0 0.775 0 0 0.78 0 0 0.785 0 0 0.79 0 0 0.795 0 0 0.8 0 0 0.805 0 0 0.81 0 0 0.815 0 0 0.82 0 0 0.825 0 0 0.83 0 0 0.835 0 0 0.84 0 0 0.845 0 0 0.85 0 0 0.855 0 0 0.86 0 0 0.865 0 0 0.87 0 0 0.875 0 0 0.88 0 0 0.885 0 0 0.89 0 0 0.895 0 0 0.9 0 0 0.905 0 0 0.91 0 0 0.915 0 0 0.92 0 0 0.925 0 0 0.93 0 0 0.935 0 0 0.94 0 0 0.945 0 0 0.95 0 0 0.955 0 0 0.96 0 0 0.965 0 0 0.97 0 0 0.975 0 0 0.98 0 0 0.985 0 0 0.99 0 0 0.995 0 0 1 0 0 0 0.02 0 0.005 0.02 0 0.01 0.02 0 0.015 0.02 0 0.02 0.02 0 0.025 0.02 0 0.03 0.02 0 0.035 0.02 0 0.04 0.02 0 0.045 0.02 0 0.05 0.02 0 0.055 0.02 0 0.06 0.02 0 0.065 0.02 0 0.07 0.02 0 0.075 0.02 0 0.08 0.02 0 0.085 0.02 0 0.09 0.02 0 0.095 0.02 0 0.1 0.02 0 0.105 0.02 0 0.11 0.02 0 0.115 0.02 0 0.12 0.02 0 0.125 0.02 0 0.13 0.02 0 0.135 0.02 0 0.14 0.02 0 0.145 0.02 0 0.15 0.02 0 0.155 0.02 0 0.16 0.02 0 0.165 0.02 0 0.17 0.02 0 0.175 0.02 0 0.18 0.02 0 0.185 0.02 0 0.19 0.02 0 0.195 0.02 0 0.2 0.02 0 0.205 0.02 0 0.21 0.02 0 0.215 0.02 0 0.22 0.02 0 0.225 0.02 0 0.23 0.02 0 0.235 0.02 0 0.24 0.02 0 0.245 0.02 0 0.25 0.02 0 0.255 0.02 0 0.26 0.02 0 0.265 0.02 0 0.27 0.02 0 0.275 0.02 0 0.28 0.02 0 0.285 0.02 0 0.29 0.02 0 0.295 0.02 0 0.3 0.02 0 0.305 0.02 0 0.31 0.02 0 0.315 0.02 0 0.32 0.02 0 0.325 0.02 0 0.33 0.02 0 0.335 0.02 0 0.34 0.02 0 0.345 0.02 0 0.35 0.02 0 0.355 0.02 0 0.36 0.02 0 0.365 0.02 0 0.37 0.02 0 0.375 0.02 0 0.38 0.02 0 0.385 0.02 0 0.39 0.02 0 0.395 0.02 0 0.4 0.02 0 0.405 0.02 0 0.41 0.02 0 0.415 0.02 0 0.42 0.02 0 0.425 0.02 0 0.43 0.02 0 0.435 0.02 0 0.44 0.02 0 0.445 0.02 0 0.45 0.02 0 0.455 0.02 0 0.46 0.02 0 0.465 0.02 0 0.47 0.02 0 0.475 0.02 0 0.48 0.02 0 0.485 0.02 0 0.49 0.02 0 0.495 0.02 0 0.5 0.02 0 0.505 0.02 0 0.51 0.02 0 0.515 0.02 0 0.52 0.02 0 0.525 0.02 0 0.53 0.02 0 0.535 0.02 0 0.54 0.02 0 0.545 0.02 0 0.55 0.02 0 0.555 0.02 0 0.56 0.02 0 0.565 0.02 0 0.57 0.02 0 0.575 0.02 0 0.58 0.02 0 0.585 0.02 0 0.59 0.02 0 0.595 0.02 0 0.6 0.02 0 0.605 0.02 0 0.61 0.02 0 0.615 0.02 0 0.62 0.02 0 0.625 0.02 0 0.63 0.02 0 0.635 0.02 0 0.64 0.02 0 0.645 0.02 0 0.65 0.02 0 0.655 0.02 0 0.66 0.02 0 0.665 0.02 0 0.67 0.02 0 0.675 0.02 0 0.68 0.02 0 0.685 0.02 0 0.69 0.02 0 0.695 0.02 0 0.7 0.02 0 0.705 0.02 0 0.71 0.02 0 0.715 0.02 0 0.72 0.02 0 0.725 0.02 0 0.73 0.02 0 0.735 0.02 0 0.74 0.02 0 0.745 0.02 0 0.75 0.02 0 0.755 0.02 0 0.76 0.02 0 0.765 0.02 0 0.77 0.02 0 0.775 0.02 0 0.78 0.02 0 0.785 0.02 0 0.79 0.02 0 0.795 0.02 0 0.8 0.02 0 0.805 0.02 0 0.81 0.02 0 0.815 0.02 0 0.82 0.02 0 0.825 0.02 0 0.83 0.02 0 0.835 0.02 0 0.84 0.02 0 0.845 0.02 0 0.85 0.02 0 0.855 0.02 0 0.86 0.02 0 0.865 0.02 0 0.87 0.02 0 0.875 0.02 0 0.88 0.02 0 0.885 0.02 0 0.89 0.02 0 0.895 0.02 0 0.9 0.02 0 0.905 0.02 0 0.91 0.02 0 0.915 0.02 0 0.92 0.02 0 0.925 0.02 0 0.93 0.02 0 0.935 0.02 0 0.94 0.02 0 0.945 0.02 0 0.95 0.02 0 0.955 0.02 0 0.96 0.02 0 0.965 0.02 0 0.97 0.02 0 0.975 0.02 0 0.98 0.02 0 0.985 0.02 0 0.99 0.02 0 0.995 0.02 0 1 0.02 0 0 0.04 0 0.005 0.04 0 0.01 0.04 0 0.015 0.04 0 0.02 0.04 0 0.025 0.04 0 0.03 0.04 0 0.035 0.04 0 0.04 0.04 0 0.045 0.04 0 0.05 0.04 0 0.055 0.04 0 0.06 0.04 0 0.065 0.04 0 0.07 0.04 0 0.075 0.04 0 0.08 0.04 0 0.085 0.04 0 0.09 0.04 0 0.095 0.04 0 0.1 0.04 0 0.105 0.04 0 0.11 0.04 0 0.115 0.04 0 0.12 0.04 0 0.125 0.04 0 0.13 0.04 0 0.135 0.04 0 0.14 0.04 0 0.145 0.04 0 0.15 0.04 0 0.155 0.04 0 0.16 0.04 0 0.165 0.04 0 0.17 0.04 0 0.175 0.04 0 0.18 0.04 0 0.185 0.04 0 0.19 0.04 0 0.195 0.04 0 0.2 0.04 0 0.205 0.04 0 0.21 0.04 0 0.215 0.04 0 0.22 0.04 0 0.225 0.04 0 0.23 0.04 0 0.235 0.04 0 0.24 0.04 0 0.245 0.04 0 0.25 0.04 0 0.255 0.04 0 0.26 0.04 0 0.265 0.04 0 0.27 0.04 0 0.275 0.04 0 0.28 0.04 0 0.285 0.04 0 0.29 0.04 0 0.295 0.04 0 0.3 0.04 0 0.305 0.04 0 0.31 0.04 0 0.315 0.04 0 0.32 0.04 0 0.325 0.04 0 0.33 0.04 0 0.335 0.04 0 0.34 0.04 0 0.345 0.04 0 0.35 0.04 0 0.355 0.04 0 0.36 0.04 0 0.365 0.04 0 0.37 0.04 0 0.375 0.04 0 0.38 0.04 0 0.385 0.04 0 0.39 0.04 0 0.395 0.04 0 0.4 0.04 0 0.405 0.04 0 0.41 0.04 0 0.415 0.04 0 0.42 0.04 0 0.425 0.04 0 0.43 0.04 0 0.435 0.04 0 0.44 0.04 0 0.445 0.04 0 0.45 0.04 0 0.455 0.04 0 0.46 0.04 0 0.465 0.04 0 0.47 0.04 0 0.475 0.04 0 0.48 0.04 0 0.485 0.04 0 0.49 0.04 0 0.495 0.04 0 0.5 0.04 0 0.505 0.04 0 0.51 0.04 0 0.515 0.04 0 0.52 0.04 0 0.525 0.04 0 0.53 0.04 0 0.535 0.04 0 0.54 0.04 0 0.545 0.04 0 0.55 0.04 0 0.555 0.04 0 0.56 0.04 0 0.565 0.04 0 0.57 0.04 0 0.575 0.04 0 0.58 0.04 0 0.585 0.04 0 0.59 0.04 0 0.595 0.04 0 0.6 0.04 0 0.605 0.04 0 0.61 0.04 0 0.615 0.04 0 0.62 0.04 0 0.625 0.04 0 0.63 0.04 0 0.635 0.04 0 0.64 0.04 0 0.645 0.04 0 0.65 0.04 0 0.655 0.04 0 0.66 0.04 0 0.665 0.04 0 0.67 0.04 0 0.675 0.04 0 0.68 0.04 0 0.685 0.04 0 0.69 0.04 0 0.695 0.04 0 0.7 0.04 0 0.705 0.04 0 0.71 0.04 0 0.715 0.04 0 0.72 0.04 0 0.725 0.04 0 0.73 0.04 0 0.735 0.04 0 0.74 0.04 0 0.745 0.04 0 0.75 0.04 0 0.755 0.04 0 0.76 0.04 0 0.765 0.04 0 0.77 0.04 0 0.775 0.04 0 0.78 0.04 0 0.785 0.04 0 0.79 0.04 0 0.795 0.04 0 0.8 0.04 0 0.805 0.04 0 0.81 0.04 0 0.815 0.04 0 0.82 0.04 0 0.825 0.04 0 0.83 0.04 0 0.835 0.04 0 0.84 0.04 0 0.845 0.04 0 0.85 0.04 0 0.855 0.04 0 0.86 0.04 0 0.865 0.04 0 0.87 0.04 0 0.875 0.04 0 0.88 0.04 0 0.885 0.04 0 0.89 0.04 0 0.895 0.04 0 0.9 0.04 0 0.905 0.04 0 0.91 0.04 0 0.915 0.04 0 0.92 0.04 0 0.925 0.04 0 0.93 0.04 0 0.935 0.04 0 0.94 0.04 0 0.945 0.04 0 0.95 0.04 0 0.955 0.04 0 0.96 0.04 0 0.965 0.04 0 0.97 0.04 0 0.975 0.04 0 0.98 0.04 0 0.985 0.04 0 0.99 0.04 0 0.995 0.04 0 1 0.04 0 0 0.06 0 0.005 0.06 0 0.01 0.06 0 0.015 0.06 0 0.02 0.06 0 0.025 0.06 0 0.03 0.06 0 0.035 0.06 0 0.04 0.06 0 0.045 0.06 0 0.05 0.06 0 0.055 0.06 0 0.06 0.06 0 0.065 0.06 0 0.07 0.06 0 0.075 0.06 0 0.08 0.06 0 0.085 0.06 0 0.09 0.06 0 0.095 0.06 0 0.1 0.06 0 0.105 0.06 0 0.11 0.06 0 0.115 0.06 0 0.12 0.06 0 0.125 0.06 0 0.13 0.06 0 0.135 0.06 0 0.14 0.06 0 0.145 0.06 0 0.15 0.06 0 0.155 0.06 0 0.16 0.06 0 0.165 0.06 0 0.17 0.06 0 0.175 0.06 0 0.18 0.06 0 0.185 0.06 0 0.19 0.06 0 0.195 0.06 0 0.2 0.06 0 0.205 0.06 0 0.21 0.06 0 0.215 0.06 0 0.22 0.06 0 0.225 0.06 0 0.23 0.06 0 0.235 0.06 0 0.24 0.06 0 0.245 0.06 0 0.25 0.06 0 0.255 0.06 0 0.26 0.06 0 0.265 0.06 0 0.27 0.06 0 0.275 0.06 0 0.28 0.06 0 0.285 0.06 0 0.29 0.06 0 0.295 0.06 0 0.3 0.06 0 0.305 0.06 0 0.31 0.06 0 0.315 0.06 0 0.32 0.06 0 0.325 0.06 0 0.33 0.06 0 0.335 0.06 0 0.34 0.06 0 0.345 0.06 0 0.35 0.06 0 0.355 0.06 0 0.36 0.06 0 0.365 0.06 0 0.37 0.06 0 0.375 0.06 0 0.38 0.06 0 0.385 0.06 0 0.39 0.06 0 0.395 0.06 0 0.4 0.06 0 0.405 0.06 0 0.41 0.06 0 0.415 0.06 0 0.42 0.06 0 0.425 0.06 0 0.43 0.06 0 0.435 0.06 0 0.44 0.06 0 0.445 0.06 0 0.45 0.06 0 0.455 0.06 0 0.46 0.06 0 0.465 0.06 0 0.47 0.06 0 0.475 0.06 0 0.48 0.06 0 0.485 0.06 0 0.49 0.06 0 0.495 0.06 0 0.5 0.06 0 0.505 0.06 0 0.51 0.06 0 0.515 0.06 0 0.52 0.06 0 0.525 0.06 0 0.53 0.06 0 0.535 0.06 0 0.54 0.06 0 0.545 0.06 0 0.55 0.06 0 0.555 0.06 0 0.56 0.06 0 0.565 0.06 0 0.57 0.06 0 0.575 0.06 0 0.58 0.06 0 0.585 0.06 0 0.59 0.06 0 0.595 0.06 0 0.6 0.06 0 0.605 0.06 0 0.61 0.06 0 0.615 0.06 0 0.62 0.06 0 0.625 0.06 0 0.63 0.06 0 0.635 0.06 0 0.64 0.06 0 0.645 0.06 0 0.65 0.06 0 0.655 0.06 0 0.66 0.06 0 0.665 0.06 0 0.67 0.06 0 0.675 0.06 0 0.68 0.06 0 0.685 0.06 0 0.69 0.06 0 0.695 0.06 0 0.7 0.06 0 0.705 0.06 0 0.71 0.06 0 0.715 0.06 0 0.72 0.06 0 0.725 0.06 0 0.73 0.06 0 0.735 0.06 0 0.74 0.06 0 0.745 0.06 0 0.75 0.06 0 0.755 0.06 0 0.76 0.06 0 0.765 0.06 0 0.77 0.06 0 0.775 0.06 0 0.78 0.06 0 0.785 0.06 0 0.79 0.06 0 0.795 0.06 0 0.8 0.06 0 0.805 0.06 0 0.81 0.06 0 0.815 0.06 0 0.82 0.06 0 0.825 0.06 0 0.83 0.06 0 0.835 0.06 0 0.84 0.06 0 0.845 0.06 0 0.85 0.06 0 0.855 0.06 0 0.86 0.06 0 0.865 0.06 0 0.87 0.06 0 0.875 0.06 0 0.88 0.06 0 0.885 0.06 0 0.89 0.06 0 0.895 0.06 0 0.9 0.06 0 0.905 0.06 0 0.91 0.06 0 0.915 0.06 0 0.92 0.06 0 0.925 0.06 0 0.93 0.06 0 0.935 0.06 0 0.94 0.06 0 0.945 0.06 0 0.95 0.06 0 0.955 0.06 0 0.96 0.06 0 0.965 0.06 0 0.97 0.06 0 0.975 0.06 0 0.98 0.06 0 0.985 0.06 0 0.99 0.06 0 0.995 0.06 0 1 0.06 0 0 0.08 0 0.005 0.08 0 0.01 0.08 0 0.015 0.08 0 0.02 0.08 0 0.025 0.08 0 0.03 0.08 0 0.035 0.08 0 0.04 0.08 0 0.045 0.08 0 0.05 0.08 0 0.055 0.08 0 0.06 0.08 0 0.065 0.08 0 0.07 0.08 0 0.075 0.08 0 0.08 0.08 0 0.085 0.08 0 0.09 0.08 0 0.095 0.08 0 0.1 0.08 0 0.105 0.08 0 0.11 0.08 0 0.115 0.08 0 0.12 0.08 0 0.125 0.08 0 0.13 0.08 0 0.135 0.08 0 0.14 0.08 0 0.145 0.08 0 0.15 0.08 0 0.155 0.08 0 0.16 0.08 0 0.165 0.08 0
[...]
			<PointData Scalars="VitesseX">
				<DataArray Name="VitesseX" type="Float32" format="ascii">
 0 -9.42759e-15 -2.70147e-14 4.65649e-15 1.54946e-14 -4.20793e-14 -5.1582e-14 -2.03621e-15 -2.43896e-14 4.71627e-14 -4.40508e-14 -6.96702e-14 -1.23939e-13 -7.2907e-15 -1.44542e-13 4.17995e-14 5.11647e-14 -2.53881e-13 8.75117e-14 -9.14283e-14 -1.50749e-14 -5.40735e-14 -7.35404e-14 -1.54906e-13 -2.63837e-13 -5.63026e-14 4.80912e-14 -3.14243e-14 -2.25491e-13 1.218e-13 -1.31692e-13 1.03566e-15 -1.44493e-13 -1.39781e-13 -1.15866e-13 -3.03793e-13 -5.46435e-14 -1.72432e-13 -1.2782e-13 -1.80014e-13 -5.36007e-13 -8.32476e-14 -5.44412e-14 -1.90625e-13 1.22289e-13 5.58352e-14 2.27132e-14 -2.11868e-14 4.84468e-13 6.27477e-14 1.27103e-13 -3.39261e-13 -1.15285e-13 -4.80531e-13 -1.60474e-13 8.80025e-13 1.05547e-11 7.76385e-11 5.44879e-10 3.57126e-09 2.18658e-08 1.24698e-07 6.59792e-07 3.22449e-06 1.44796e-05 5.93745e-05 0.000220677 0.000736796 0.002187 0.00570794 0.0129794 0.0256349 0.0442966 0.0682037 0.0958779 0.125967 0.157552 0.190089 0.223269 0.256887 0.290834 0.325061 0.359559 0.394355 0.429515 0.464709 0.498228 0.531944 0.564308 0.596764 0.628534 0.659846 0.690894 0.720902 0.750863 0.779967 0.807363 0.83499 0.859345 0.881199 0.901356 0.914009 0.923667 0.930102 0.931338 0.93216 0.932517 0.932424 0.932096 0.931598 0.931052 0.930555 0.930116 0.929719 0.929368 0.929072 0.92882 0.928556 0.928193 0.927587 0.926625 0.927363 0.932009 0.929315 0.927271 0.927288 0.927498 0.927656 0.927787 0.92777 0.927644 0.927579 0.927563 0.927366 0.926641 0.925108 0.922079 0.91599 0.904002 0.881423 0.841467 0.776366 0.680669 0.556117 0.415751 0.279592 0.166403 0.0864298 0.0394124 0.0162946 0.00636147 0.0024136 0.00090278 0.000334822 0.000123365 4.51717e-05 1.64335e-05 5.93717e-06 2.129e-06 7.5732e-07 2.67089e-07 9.33436e-08 3.23114e-08 1.10732e-08 3.75517e-09 1.26004e-09 4.17505e-10 1.36479e-10 4.43496e-11 1.29905e-11 4.51502e-12 3.35622e-13 2.98142e-13 -6.12508e-13 4.80832e-15 2.96156e-14 2.59194e-13 1.39163e-13 2.10629e-13 -3.09581e-13 6.23622e-13 -2.36308e-13 -3.75193e-13 -2.29487e-13 -1.08343e-13 3.02315e-13 -6.00119e-14 -4.39912e-13 -2.76071e-13 -3.02919e-14 6.73416e-13 2.31577e-13 1.64978e-13 5.22193e-13 3.7156e-13 5.96587e-13 7.1083e-13 -2.42141e-13 -3.34734e-13 2.28355e-13 0 0 -6.13557e-15 2.43173e-15 -1.64132e-14 -1.13486e-14 3.14178e-14 3.13435e-14 -3.66484e-14 1.78659e-16 -7.95983e-14 -1.26094e-14 -3.91781e-14 -3.60383e-15 -1.31475e-13 8.91643e-15 -8.2223e-14 -1.42076e-13 1.12567e-13 -1.52227e-13 9.71202e-16 -1.39954e-13 2.3548e-14 -1.54028e-13 -7.61171e-14 2.10533e-14 -1.37089e-13 -1.80447e-13 -8.04742e-14 -6.24276e-14 -6.4562e-14 6.02539e-14 -5.80238e-14 -3.07025e-14 -1.74077e-13 -1.83821e-13 -6.97657e-14 -2.31353e-13 -1.82891e-13 -1.35693e-13 -1.29945e-13 -1.21101e-13 -3.72547e-13 -3.36947e-14 3.63846e-14 7.08195e-14 -1.45405e-13 6.70532e-14 -5.08823e-14 -6.16274e-15 1.30973e-13 7.01459e-14 -7.96998e-14 -3.42187e-13 4.15166e-14 -2.41174e-13 8.06311e-13 1.0527e-11 7.79216e-11 5.44979e-10 3.57096e-09 2.18658e-08 1.24699e-07 6.59791e-07 3.22449e-06 1.44796e-05 5.93745e-05 0.000220677 0.000736796 0.002187 0.00570794 0.0129794 0.0256349 0.0442966 0.0682037 0.0958779 0.125967 0.157552 0.190089 0.223269 0.256887 0.290834 0.325061 0.359559 0.394355 0.429515 0.464709 0.498228 0.531944 0.564308 0.596764 0.628534 0.659846 0.690894 0.720902 0.750863 0.779967 0.807363 0.83499 0.859345 0.881199 0.901356 0.914009 0.923667 0.930102 0.931338 0.93216 0.932517 0.932424 0.932096 0.931598 0.931052 0.930555 0.930116 0.929719 0.929368 0.929072 0.92882 0.928556 0.928193 0.927587 0.926625 0.927363 0.932009 0.929315 0.927271 0.927288 0.927498 0.927656 0.927787 0.92777 0.927644 0.927579 0.927563 0.927366 0.926641 0.925108 0.922079 0.91599 0.904002 0.881423 0.841467 0.776366 0.680669 0.556117 0.415751 0.279592 0.166403 0.0864298 0.0394124 0.0162946 0.00636147 0.0024136 0.00090278 0.000334822 0.000123365 4.51717e-05 1.64335e-05 5.93717e-06 2.129e-06 7.5732e-07 2.6709e-07 9.33438e-08 3.23112e-08 1.10733e-08 3.75562e-09 1.2595e-09 4.17745e-10 1.36876e-10 4.36075e-11 1.42624e-11 3.42857e-12 1.27986e-12 -4.52635e-13 -6.95135e-14 -2.44391e-13 5.52904e-14 2.82073e-14 6.72422e-13 -1.62583e-13 8.52076e-14 -2.47057e-13 -2.89471e-13 -2.17983e-13 -2.71627e-13 -2.49665e-13 2.11186e-14 -2.41151e-13 -3.07625e-13 2.293e-13 -1.29268e-13 -1.8893e-13 4.10801e-13 7.3015e-13 -1.83648e-13 2.54703e-13 6.02769e-13 2.12931e-13 3.73482e-13 -1.57414e-13 -2.57899e-13 0 0 1.75848e-14 2.05869e-14 5.17576e-14 2.92362e-14 7.67577e-15 6.62801e-14 1.00067e-14 -1.77345e-14 2.06105e-14 -7.75154e-14 -2.25024e-14 -5.88541e-14 3.06049e-14 -1.57361e-13 -9.36009e-14 -4.04255e-14 -1.39619e-13 3.18858e-14 -2.89538e-14 -1.99087e-14 -2.79102e-14 -2.14206e-14 -3.79537e-14 -2.16601e-13 -8.96008e-14 -3.07825e-14 -1.81923e-13 -8.59612e-14 2.86618e-14 -1.65252e-14 -5.55978e-14 -1.13841e-13 -7.11529e-14 1.50965e-14 -3.00766e-13 -1.51139e-13 -1.22958e-13 -2.64454e-13 -8.12548e-14 -9.38311e-14 6.03348e-14 -9.17945e-14 -1.05964e-14 -8.46697e-14 -7.22392e-14 -5.48762e-14 2.36127e-14 -1.84205e-13 -2.11896e-13 -3.63602e-14 6.98658e-14 8.88901e-14 -2.82667e-13 -2.53339e-13 1.18182e-12 1.05605e-11 7.78283e-11 5.45104e-10 3.57131e-09 2.18662e-08 1.24698e-07 6.59791e-07 3.22449e-06 1.44796e-05 5.93745e-05 0.000220677 0.000736796 0.002187 0.00570794 0.0129794 0.0256349 0.0442966 0.0682037 0.0958779 0.125967 0.157552 0.190089 0.223269 0.256887 0.290834 0.325061 0.359559 0.394355 0.429515 0.464709 0.498228 0.531944 0.564308 0.596764 0.628534 0.659846 0.690894 0.720902 0.750863 0.779967 0.807363 0.83499 0.859345 0.881199 0.901356 0.914009 0.923667 0.930102 0.931338 0.93216 0.932517 0.932424 0.932096 0.931598 0.931052 0.930555 0.930116 0.929719 0.929368 0.929072 0.92882 0.928556 0.928193 0.927587 0.926625 0.927363 0.932009 0.929315 0.927271 0.927288 0.927498 0.927656 0.927787 0.92777 0.927644 0.927579 0.927563 0.927366 0.926641 0.925108 0.922079 0.91599 0.904002 0.881423 0.841467 0.776366 0.680669 0.556117 0.415751 0.279592 0.166403 0.0864298 0.0394124 0.0162946 0.00636147 0.0024136 0.00090278 0.000334822 0.000123365 4.51717e-05 1.64335e-05 5.93717e-06 2.129e-06 7.57321e-07 2.67089e-07 9.33437e-08 3.23116e-08 1.10733e-08 3.75548e-09 1.25997e-09 4.1784e-10 1.36749e-10 4.41459e-11 1.35603e-11 4.10978e-12 1.23418e-12 7.14975e-14 -5.0776e-13 -1.82688e-13 -2.28214e-13 2.92108e-13 1.37722e-13 2.20615e-13 -2.59588e-13 -3.98392e-14 -6.03136e-13 -2.42944e-13 -3.47564e-13 -7.62587e-14 -5.5758e-13 -2.29518e-13 -8.82282e-14 -8.33212e-14 -8.38307e-14 -2.08047e-13 2.16417e-13 5.342e-14 4.1581e-13 3.86148e-14 3.54163e-13 -1.59969e-13 1.58305e-13 7.33393e-13 -3.49534e-13 0 0 3.97277e-14 5.62642e-14 6.12463e-14 5.44935e-14 2.34069e-14 2.8166e-14 1.66669e-14 1.8894e-14 4.12607e-14 -3.04799e-14 -1.22363e-13 -2.83027e-14 -3.0454e-14 -1.39044e-13 2.01854e-14 -4.29853e-14 -9.25192e-14 -8.03535e-14 -7.99838e-14 4.20167e-14 -5.12744e-14 -2.45174e-14 -1.68409e-13 -9.1452e-14 -8.20509e-14 2.97889e-14 9.80069e-15 -1.56794e-13 -4.16348e-14 -1.93818e-13 4.80912e-14 -1.50706e-13 -8.76644e-15 -1.63552e-13 -1.96797e-13 -1.51291e-13 -1.8502e-13 -2.15071e-13 -1.84205e-13 -5.84698e-14 1.57888e-13 -1.67907e-13 -3.37066e-13 1.39343e-13 8.74794e-14 6.07664e-14 -2.83526e-14 4.0268e-14 -9.23233e-15 -2.89794e-13 -3.42004e-13 1.08076e-13 -3.74103e-13 3.56839e-14 1.21208e-12 1.07008e-11 7.81025e-11 5.45273e-10 3.57149e-09 2.18663e-08 1.24698e-07 6.59791e-07 3.22449e-06 1.44796e-05 5.93745e-05 0.000220677 0.000736796 0.002187 0.00570794 0.0129794 0.0256349 0.0442966 0.0682037 0.0958779 0.125967 0.157552 0.190089 0.223269 0.256887 0.290834 0.325061 0.359559 0.394355 0.429515 0.464709 0.498228 0.531944 0.564308 0.596764 0.628534 0.659846 0.690894 0.720902 0.750863 0.779967 0.807363 0.83499 0.859345 0.881199 0.901356 0.914009 0.923667 0.930102 0.931338 0.93216 0.932517 0.932424 0.932096 0.931598 0.931052 0.930555 0.930116 0.929719 0.929368 0.929072 0.92882 0.928556 0.928193 0.927587 0.926625 0.927363 0.932009 0.929315 0.927271 0.927288 0.927498 0.927656 0.927787 0.92777 0.927644 0.927579 0.927563 0.927366 0.926641 0.925108 0.922079 0.91599 0.904002 0.881423 0.841467 0.776366 0.680669 0.556117 0.415751 0.279592 0.166403 0.0864298 0.0394124 0.0162946 0.00636147 0.0024136 0.00090278 0.000334822 0.000123365 4.51717e-05 1.64335e-05 5.93717e-06 2.129e-06 7.5732e-07 2.6709e-07 9.33436e-08 3.23117e-08 1.1073e-08 3.75549e-09 1.25992e-09 4.17835e-10 1.36681e-10 4.43288e-11 1.37531e-11 4.3411e-12 8.59362e-13 3.33001e-13 -7.99204e-14 -1.34491e-14 -4.36227e-13 3.20038e-13 -2.21683e-13 -1.48979e-13 -8.13166e-14 6.33802e-14 -2.33491e-13 -6.03786e-13 -3.29453e-13 2.32314e-13 -1.54114e-13 -4.07383e-13 -2.65598e-13 -5.16349e-13 1.94088e-13 -8.27379e-13 5.45772e-13 1.2029e-13 5.84238e-13 7.99274e-13 -1.53156e-13 1.6063e-13 1.98994e-13 -1.5789e-13 8.58023e-13 0 0 2.85252e-14 5.84145e-14 2.32857e-14 1.60865e-14 6.53936e-14 7.17032e-15 -6.14142e-15 4.92418e-14 -4.04874e-14 1.60276e-14 -6.57857e-14 2.13566e-14 -2.0475e-13 2.14663e-14 -3.08994e-14 -1.102e-14 1.86966e-13 -2.54064e-13 -4.60806e-14 -1.5037e-13 3.80761e-14 -1.54453e-13 -8.55198e-14 1.49299e-13 -7.63688e-14 -1.158e-13 -4.98802e-15 -5.08179e-14 -2.83602e-13 -2.76999e-14 -1.14129e-13 -8.63784e-15 -2.03424e-13 -2.44465e-13 -8.69654e-14 -9.77243e-14 -6.12331e-14 -1.19098e-13 -2.14595e-13 -1.4082e-13 -2.07679e-13 1.89475e-13 -5.9824e-14 1.58718e-13 -7.1073e-14 5.72991e-14 -2.39777e-13 -9.6168e-14 1.14656e-13 -2.69837e-13 -3.56524e-13 -2.47859e-13 1.59554e-13 6.43361e-14 1.19524e-12 1.0824e-11 7.79844e-11 5.45211e-10 3.57132e-09 2.18662e-08 1.24699e-07 6.59791e-07 3.22449e-06 1.44796e-05 5.93745e-05 0.000220677 0.000736796 0.002187 0.00570794 0.0129794 0.0256349 0.0442966 0.0682037 0.0958779 0.125967 0.157552 0.190089 0.223269 0.256887 0.290834 0.325061 0.359559 0.394355 0.429515 0.464709 0.498228 0.531944 0.564308 0.596764 0.628534 0.659846 0.690894 0.720902 0.750863 0.779967 0.807363 0.83499 0.859345 0.881199 0.901356 0.914009 0.923667 0.930102 0.931338 0.93216 0.932517 0.932424 0.932096 0.931598 0.931052 0.930555 0.930116 0.929719 0.929368 0.929072 0.92882 0.928556 0.928193 0.927587 0.926625 0.927363 0.932009 0.929315 0.927271 0.927288 0.927498 0.927656 0.927787 0.92777 0.927644 0.927579 0.927563 0.927366 0.926641 0.925108 0.922079 0.91599 0.904002 0.881423 0.841467 0.776366 0.680669 0.556117 0.415751 0.279592 0.166403 0.0864298 0.0394124 0.0162946 0.00636147 0.0024136 0.00090278 0.000334822 0.000123365 4.51717e-05 1.64335e-05 5.93717e-06 2.129e-06 7.5732e-07 2.6709e-07 9.33437e-08 3.2311e-08 1.10733e-08 3.75557e-09 1.25966e-09 4.17827e-10 1.36939e-10 4.40998e-11 1.43898e-11 3.79973e-12 9.54961e-13 3.76948e-13 3.02182e-13 1.93655e-13 -1.74418e-13 -2.77698e-13 3.20743e-13 -8.47946e-13 5.68871e-13 -7.52573e-13 -1.21371e-13 -2.71684e-13 -2.7243e-13 -2.56087e-13 3.62543e-13 -2.21274e-13 -2.92715e-13 -2.01422e-13 -2.13386e-13 -7.07126e-13 5.78056e-14 8.19317e-13 -1.15007e-13 7.32937e-13 3.49138e-14 2.12176e-13 3.12319e-13 -3.6964e-13 7.24788e-13 0 0 1.56081e-14 1.35961e-14 6.50769e-14 1.98503e-14 -5.58987e-15 -2.37001e-14 4.56574e-14 4.79719e-16 8.40841e-14 -8.08477e-14 7.6836e-14 -1.35121e-13 -3.17227e-14 -1.56076e-13 -8.31257e-14 3.18397e-13 -1.99284e-13 1.08318e-13 -8.3472e-14 -1.59759e-13 2.17111e-14 -6.81974e-14 8.71979e-14 -2.57644e-13 5.00371e-14 5.62426e-14 -2.63899e-13 -6.06066e-14 -1.75688e-13 4.69867e-14 -3.18552e-13 -2.66328e-14 -3.23248e-13 1.20143e-13 -5.46129e-13 2.12918e-13 1.95009e-13 -1.93396e-13 -1.43414e-13 -6.46169e-13 5.13802e-14 5.44123e-13 2.69897e-13 -1.49941e-13 -1.14938e-13 -2.2808e-13 -2.95047e-13 -1.44488e-13 -3.75215e-13 -4.59956e-14 -6.91703e-14 3.49988e-14 -6.15838e-14 -1.275e-13 1.59738e-12 1.0868e-11 7.72158e-11 5.45005e-10 3.57161e-09 2.18664e-08 1.24699e-07 6.59791e-07 3.22449e-06 1.44796e-05 5.93745e-05 0.000220677 0.000736796 0.002187 0.00570794 0.0129794 0.0256349 0.0442966 0.0682037 0.0958779 0.125967 0.157552 0.190089 0.223269 0.256887 0.290834 0.325061 0.359559 0.394355 0.429515 0.464709 0.498228 0.531944 0.564308 0.596764 0.628534 0.659846 0.690894 0.720902 0.750863 0.779967 0.807363 0.83499 0.859345 0.881199 0.901356 0.914009 0.923667 0.930102 0.931338 0.93216 0.932517 0.932424 0.932096 0.931598 0.931052 0.930555 0.930116 0.929719 0.929368 0.929072 0.92882 0.928556 0.928193 0.927587 0.926625 0.927363 0.932009 0.929315 0.927271 0.927288 0.927498 0.927656 0.927787 0.92777 0.927644 0.927579 0.927563 0.927366 0.926641 0.925108 0.922079 0.91599 0.904002 0.881423 0.841467 0.776366 0.680669 0.556117 0.415751 0.279592 0.166403 0.0864298 0.0394124 0.0162946 0.00636147 0.0024136 0.00090278 0.000334822 0.000123365 4.51717e-05 1.64335e-05 5.93717e-06 2.129e-06 7.57321e-07 2.67089e-07 9.33437e-08 3.23106e-08 1.10737e-08 3.75504e-09 1.26047e-09 4.17678e-10 1.36744e-10 4.49684e-11 1.286e-11 4.7947e-12 4.3547e-13 1.4343e-12 -7.24797e-13 5.42421e-13 -1.37745e-14 -4.08476e-13 1.54616e-13 -4.20909e-13 3.01203e-13 -5.93848e-13 -6.39397e-13 2.3909e-13 -2.67316e-13 -7.38333e-13 1.78231e-13 3.35473e-13 -5.53508e-14 -2.7146e-13 -7.54363e-13 8.75686e-13 -1.13312e-12 2.09571e-13 3.2262e-13 -1.9329e-13 4.75516e-13 6.81219e-14 -4.45847e-13 1.02338e-12 -2.21386e-13 0
				</DataArray>
				<DataArray Name="VitesseY" type="Float32" format="ascii">