<?xml version="1.0"?>
<VTKFile type="PolyData">
	<PolyData>
		<Piece NumberOfPoints="1206" NumberOfPolys="1000">
			<Points>
				<DataArray type="Float32" NumberOfComponents="3" format="ascii">
 0 0 0 0.005 0 0 0.01 0 0 0.015 0 0 0.02 0 0 0.025 0 0 0.03 0 0 0.035 0 0 0.04 0 0 0.045 0 0 0.05 0 0 0.055 0 0 0.06 0 0 0.065 0 0 0.07 0 0 0.075 0 0 0.08 0 0 0.085 0 0 0.09 0 0 0.095 0 0 0.1 0 0 0.105 0 0 0.11 0 0 0.115 0 0 0.12 0 0 0.125 0 0 0.13 0 0 0.135 0 0 0.14 0 0 0.145 0 0 0.15 0 0 0.155 0 0 0.16 0 0 0.165 0 0 0.17 0 0 0.175 0 0 0.18 0 0 0.185 0 0 0.19 0 0 0.195 0 0 0.2 0 0 0.205 0 0 0.21 0 0 0.215 0 0 0.22 0 0 0.225 0 0 0.23 0 0 0.235 0 0 0.24 0 0 0.245 0 0 0.25 0 0 0.255 0 0 0.26 0 0 0.265 0 0 0.27 0 0 0.275 0 0 0.28 0 0 0.285 0 0 0.29 0 0 0.295 0 0 0.3 0 0 0.305 0 0 0.31 0 0 0.315 0 0 0.32 0 0 0.325 0 0 0.33 0 0 0.335 0 0 0.34 0 0 0.345 0 0 0.35 0 0 0.355 0 0 0.36 0 0 0.365 0 0 0.37 0 0 0.375 0 0 0.38 0 0 0.385 0 0 0.39 0 0 0.395 0 0 0.4 0 0 0.405 0 0 0.41 0 0 0.415 0 0 0.42 0 0 0.425 0 0 0.43 0 0 0.435 0 0 0.44 0 0 0.445 0 0 0.45 0 0 0.455 0 0 0.46 0 0 0.465 0 0 0.47 0 0 0.475 0 0 0.48 0 0 0.485 0 0 0.49 0 0 0.495 0 0 0.5 0 0 0.505 0 0 0.51 0 0 0.515 0 0 0.52 0 0 0.525 0 0 0.53 0 0 0.535 0 0 0.54 0 0 0.545 0 0 0.55 0 0 0.555 0 0 0.56 0 0 0.565 0 0 0.57 0 0 0.575 0 0 0.58 0 0 0.585 0 0 0.59 0 0 0.595 0 0 0.6 0 0 0.605 0 0 0.61 0 0 0.615 0 0 0.62 0 0 0.625 0 0 0.63 0 0 0.635 0 0 0.64 0 0 0.645 0 0 0.65 0 0 0.655 0 0 0.66 0 0 0.665 0 0 0.67 0 0 0.675 0 0 0.68 0 0 0.685 0 0 0.69 0 0 0.695 0 0 0.7 0 0 0.705 0 0 0.71 0 0 0.715 0 0 0.72 0 0 0.725 0 0 0.73 0 0 0.735 0 0 0.74 0 0 0.745 0 0 0.75 0 0 0.755 0 0 0.76 0 0 0.765 0 0 0.77 0 0 0.775 0 0 0.78 0 0 0.785 0 0 0.79 0 0 0.795 0 0 0.8 0 0 0.805 0 0 0.81 0 0 0.815 0 0 0.82 0 0 0.825 0 0 0.83 0 0 0.835 0 0 0.84 0 0 0.845 0 0 0.85 0 0 0.855 0 0 0.86 0 0 0.865 0 0 0.87 0 0 0.875 0 0 0.88 0 0 0.885 0 0 0.89 0 0 0.895 0 0 0.9 0 0 0.905 0 0 0.91 0 0 0.915 0 0 0.92 0 0 0.925 0 0 0.93 0 0 0.935 0 0 0.94 0 0 0.945 0 0 0.95 0 0 0.955 0 0 0.96 0 0 0.965 0 0 0.97 0 0 0.975 0 0 0.98 0 0 0.985 0 0 0.99 0 0 0.995 0 0 1 0 0 0 0.02 0 0.005 0.02 0 0.01 0.02 0 0.015 0.02 0 0.02 0.02 0 0.025 0.02 0 0.03 0.02 0 0.035 0.02 0 0.04 0.02 0 0.045 0.02 0 0.05 0.02 0 0.055 0.02 0 0.06 0.02 0 0.065 0.02 0 0.07 0.02 0 0.075 0.02 0 0.08 0.02 0 0.085 0.02 0 0.09 0.02 0 0.095 0.02 0 0.1 0.02 0 0.105 0.02 0 0.11 0.02 0 0.115 0.02 0 0.12 0.02 0 0.125 0.02 0 0.13 0.02 0 0.135 0.02 0 0.14 0.02 0 0.145 0.02 0 0.15 0.02 0 0.155 0.02 0 0.16 0.02 0 0.165 0.02 0 0.17 0.02 0 0.175 0.02 0 0.18 0.02 0 0.185 0.02 0 0.19 0.02 0 0.195 0.02 0 0.2 0.02 0 0.205 0.02 0 0.21 0.02 0 0.215 0.02 0 0.22 0.02 0 0.225 0.02 0 0.23 0.02 0 0.235 0.02 0 0.24 0.02 0 0.245 0.02 0 0.25 0.02 0 0.255 0.02 0 0.26 0.02 0 0.265 0.02 0 0.27 0.02 0 0.275 0.02 0 0.28 0.02 0 0.285 0.02 0 0.29 0.02 0 0.295 0.02 0 0.3 0.02 0 0.305 0.02 0 0.31 0.02 0 0.315 0.02 0 0.32 0.02 0 0.325 0.02 0 0.33 0.02 0 0.335 0.02 0 0.34 0.02 0 0.345 0.02 0 0.35 0.02 0 0.355 0.02 0 0.36 0.02 0 0.365 0.02 0 0.37 0.02 0 0.375 0.02 0 0.38 0.02 0 0.385 0.02 0 0.39 0.02 0 0.395 0.02 0 0.4 0.02 0 0.405 0.02 0 0.41 0.02 0 0.415 0.02 0 0.42 0.02 0 0.425 0.02 0 0.43 0.02 0 0.435 0.02 0 0.44 0.02 0 0.445 0.02 0 0.45 0.02 0 0.455 0.02 0 0.46 0.02 0 0.465 0.02 0 0.47 0.02 0 0.475 0.02 0 0.48 0.02 0 0.485 0.02 0 0.49 0.02 0 0.495 0.02 0 0.5 0.02 0 0.505 0.02 0 0.51 0.02 0 0.515 0.02 0 0.52 0.02 0 0.525 0.02 0 0.53 0.02 0 0.535 0.02 0 0.54 0.02 0 0.545 0.02 0 0.55 0.02 0 0.555 0.02 0 0.56 0.02 0 0.565 0.02 0 0.57 0.02 0 0.575 0.02 0 0.58 0.02 0 0.585 0.02 0 0.59 0.02 0 0.595 0.02 0 0.6 0.02 0 0.605 0.02 0 0.61 0.02 0 0.615 0.02 0 0.62 0.02 0 0.625 0.02 0 0.63 0.02 0 0.635 0.02 0 0.64 0.02 0 0.645 0.02 0 0.65 0.02 0 0.655 0.02 0 0.66 0.02 0 0.665 0.02 0 0.67 0.02 0 0.675 0.02 0 0.68 0.02 0 0.685 0.02 0 0.69 0.02 0 0.695 0.02 0 0.7 0.02 0 0.705 0.02 0 0.71 0.02 0 0.715 0.02 0 0.72 0.02 0 0.725 0.02 0 0.73 0.02 0 0.735 0.02 0 0.74 0.02 0 0.745 0.02 0 0.75 0.02 0 0.755 0.02 0 0.76 0.02 0 0.765 0.02 0 0.77 0.02 0 0.775 0.02 0 0.78 0.02 0 0.785 0.02 0 0.79 0.02 0 0.795 0.02 0 0.8 0.02 0 0.805 0.02 0 0.81 0.02 0 0.815 0.02 0 0.82 0.02 0 0.825 0.02 0 0.83 0.02 0 0.835 0.02 0 0.84 0.02 0 0.845 0.02 0 0.85 0.02 0 0.855 0.02 0 0.86 0.02 0 0.865 0.02 0 0.87 0.02 0 0.875 0.02 0 0.88 0.02 0 0.885 0.02 0 0.89 0.02 0 0.895 0.02 0 0.9 0.02 0 0.905 0.02 0 0.91 0.02 0 0.915 0.02 0 0.92 0.02 0 0.925 0.02 0 0.93 0.02 0 0.935 0.02 0 0.94 0.02 0 0.945 0.02 0 0.95 0.02 0 0.955 0.02 0 0.96 0.02 0 0.965 0.02 0 0.97 0.02 0 0.975 0.02 0 0.98 0.02 0 0.985 0.02 0 0.99 0.02 0 0.995 0.02 0 1 0.02 0 0 0.04 0 0.005 0.04 0 0.01 0.04 0 0.015 0.04 0 0.02 0.04 0 0.025 0.04 0 0.03 0.04 0 0.035 0.04 0 0.04 0.04 0 0.045 0.04 0 0.05 0.04 0 0.055 0.04 0 0.06 0.04 0 0.065 0.04 0 0.07 0.04 0 0.075 0.04 0 0.08 0.04 0 0.085 0.04 0 0.09 0.04 0 0.095 0.04 0 0.1 0.04 0 0.105 0.04 0 0.11 0.04 0 0.115 0.04 0 0.12 0.04 0 0.125 0.04 0 0.13 0.04 0 0.135 0.04 0 0.14 0.04 0 0.145 0.04 0 0.15 0.04 0 0.155 0.04 0 0.16 0.04 0 0.165 0.04 0 0.17 0.04 0 0.175 0.04 0 0.18 0.04 0 0.185 0.04 0 0.19 0.04 0 0.195 0.04 0 0.2 0.04 0 0.205 0.04 0 0.21 0.04 0 0.215 0.04 0 0.22 0.04 0 0.225 0.04 0 0.23 0.04 0 0.235 0.04 0 0.24 0.04 0 0.245 0.04 0 0.25 0.04 0 0.255 0.04 0 0.26 0.04 0 0.265 0.04 0 0.27 0.04 0 0.275 0.04 0 0.28 0.04 0 0.285 0.04 0 0.29 0.04 0 0.295 0.04 0 0.3 0.04 0 0.305 0.04 0 0.31 0.04 0 0.315 0.04 0 0.32 0.04 0 0.325 0.04 0 0.33 0.04 0 0.335 0.04 0 0.34 0.04 0 0.345 0.04 0 0.35 0.04 0 0.355 0.04 0 0.36 0.04 0 0.365 0.04 0 0.37 0.04 0 0.375 0.04 0 0.38 0.04 0 0.385 0.04 0 0.39 0.04 0 0.395 0.04 0 0.4 0.04 0 0.405 0.04 0 0.41 0.04 0 0.415 0.04 0 0.42 0.04 0 0.425 0.04 0 0.43 0.04 0 0.435 0.04 0 0.44 0.04 0 0.445 0.04 0 0.45 0.04 0 0.455 0.04 0 0.46 0.04 0 0.465 0.04 0 0.47 0.04 0 0.475 0.04 0 0.48 0.04 0 0.485 0.04 0 0.49 0.04 0 0.495 0.04 0 0.5 0.04 0 0.505 0.04 0 0.51 0.04 0 0.515 0.04 0 0.52 0.04 0 0.525 0.04 0 0.53 0.04 0 0.535 0.04 0 0.54 0.04 0 0.545 0.04 0 0.55 0.04 0 0.555 0.04 0 0.56 0.04 0 0.565 0.04 0 0.57 0.04 0 0.575 0.04 0 0.58 0.04 0 0.585 0.04 0 0.59 0.04 0 0.595 0.04 0 0.6 0.04 0 0.605 0.04 0 0.61 0.04 0 0.615 0.04 0 0.62 0.04 0 0.625 0.04 0 0.63 0.04 0 0.635 0.04 0 0.64 0.04 0 0.645 0.04 0 0.65 0.04 0 0.655 0.04 0 0.66 0.04 0 0.665 0.04 0 0.67 0.04 0 0.675 0.04 0 0.68 0.04 0 0.685 0.04 0 0.69 0.04 0 0.695 0.04 0 0.7 0.04 0 0.705 0.04 0 0.71 0.04 0 0.715 0.04 0 0.72 0.04 0 0.725 0.04 0 0.73 0.04 0 0.735 0.04 0 0.74 0.04 0 0.745 0.04 0 0.75 0.04 0 0.755 0.04 0 0.76 0.04 0 0.765 0.04 0 0.77 0.04 0 0.775 0.04 0 0.78 0.04 0 0.785 0.04 0 0.79 0.04 0 0.795 0.04 0 0.8 0.04 0 0.805 0.04 0 0.81 0.04 0 0.815 0.04 0 0.82 0.04 0 0.825 0.04 0 0.83 0.04 0 0.835 0.04 0 0.84 0.04 0 0.845 0.04 0 0.85 0.04 0 0.855 0.04 0 0.86 0.04 0 0.865 0.04 0 0.87 0.04 0 0.875 0.04 0 0.88 0.04 0 0.885 0.04 0 0.89 0.04 0 0.895 0.04 0 0.9 0.04 0 0.905 0.04 0 0.91 0.04 0 0.915 0.04 0 0.92 0.04 0 0.925 0.04 0 0.93 0.04 0 0.935 0.04 0 0.94 0.04 0 0.945 0.04 0 0.95 0.04 0 0.955 0.04 0 0.96 0.04 0 0.965 0.04 0 0.97 0.04 0 0.975 0.04 0 0.98 0.04 0 0.985 0.04 0 0.99 0.04 0 0.995 0.04 0 1 0.04 0 0 0.06 0 0.005 0.06 0 0.01 0.06 0 0.015 0.06 0 0.02 0.06 0 0.025 0.06 0 0.03 0.06 0 0.035 0.06 0 0.04 0.06 0 0.045 0.06 0 0.05 0.06 0 0.055 0.06 0 0.06 0.06 0 0.065 0.06 0 0.07 0.06 0 0.075 0.06 0 0.08 0.06 0 0.085 0.06 0 0.09 0.06 0 0.095 0.06 0 0.1 0.06 0 0.105 0.06 0 0.11 0.06 0 0.115 0.06 0 0.12 0.06 0 0.125 0.06 0 0.13 0.06 0 0.135 0.06 0 0.14 0.06 0 0.145 0.06 0 0.15 0.06 0 0.155 0.06 0 0.16 0.06 0 0.165 0.06 0 0.17 0.06 0 0.175 0.06 0 0.18 0.06 0 0.185 0.06 0 0.19 0.06 0 0.195 0.06 0 0.2 0.06 0 0.205 0.06 0 0.21 0.06 0 0.215 0.06 0 0.22 0.06 0 0.225 0.06 0 0.23 0.06 0 0.235 0.06 0 0.24 0.06 0 0.245 0.06 0 0.25 0.06 0 0.255 0.06 0 0.26 0.06 0 0.265 0.06 0 0.27 0.06 0 0.275 0.06 0 0.28 0.06 0 0.285 0.06 0 0.29 0.06 0 0.295 0.06 0 0.3 0.06 0 0.305 0.06 0 0.31 0.06 0 0.315 0.06 0 0.32 0.06 0 0.325 0.06 0 0.33 0.06 0 0.335 0.06 0 0.34 0.06 0 0.345 0.06 0 0.35 0.06 0 0.355 0.06 0 0.36 0.06 0 0.365 0.06 0 0.37 0.06 0 0.375 0.06 0 0.38 0.06 0 0.385 0.06 0 0.39 0.06 0 0.395 0.06 0 0.4 0.06 0 0.405 0.06 0 0.41 0.06 0 0.415 0.06 0 0.42 0.06 0 0.425 0.06 0 0.43 0.06 0 0.435 0.06 0 0.44 0.06 0 0.445 0.06 0 0.45 0.06 0 0.455 0.06 0 0.46 0.06 0 0.465 0.06 0 0.47 0.06 0 0.475 0.06 0 0.48 0.06 0 0.485 0.06 0 0.49 0.06 0 0.495 0.06 0 0.5 0.06 0 0.505 0.06 0 0.51 0.06 0 0.515 0.06 0 0.52 0.06 0 0.525 0.06 0 0.53 0.06 0 0.535 0.06 0 0.54 0.06 0 0.545 0.06 0 0.55 0.06 0 0.555 0.06 0 0.56 0.06 0 0.565 0.06 0 0.57 0.06 0 0.575 0.06 0 0.58 0.06 0 0.585 0.06 0 0.59 0.06 0 0.595 0.06 0 0.6 0.06 0 0.605 0.06 0 0.61 0.06 0 0.615 0.06 0 0.62 0.06 0 0.625 0.06 0 0.63 0.06 0 0.635 0.06 0 0.64 0.06 0 0.645 0.06 0 0.65 0.06 0 0.655 0.06 0 0.66 0.06 0 0.665 0.06 0 0.67 0.06 0 0.675 0.06 0 0.68 0.06 0 0.685 0.06 0 0.69 0.06 0 0.695 0.06 0 0.7 0.06 0 0.705 0.06 0 0.71 0.06 0 0.715 0.06 0 0.72 0.06 0 0.725 0.06 0 0.73 0.06 0 0.735 0.06 0 0.74 0.06 0 0.745 0.06 0 0.75 0.06 0 0.755 0.06 0 0.76 0.06 0 0.765 0.06 0 0.77 0.06 0 0.775 0.06 0 0.78 0.06 0 0.785 0.06 0 0.79 0.06 0 0.795 0.06 0 0.8 0.06 0 0.805 0.06 0 0.81 0.06 0 0.815 0.06 0 0.82 0.06 0 0.825 0.06 0 0.83 0.06 0 0.835 0.06 0 0.84 0.06 0 0.845 0.06 0 0.85 0.06 0 0.855 0.06 0 0.86 0.06 0 0.865 0.06 0 0.87 0.06 0 0.875 0.06 0 0.88 0.06 0 0.885 0.06 0 0.89 0.06 0 0.895 0.06 0 0.9 0.06 0 0.905 0.06 0 0.91 0.06 0 0.915 0.06 0 0.92 0.06 0 0.925 0.06 0 0.93 0.06 0 0.935 0.06 0 0.94 0.06 0 0.945 0.06 0 0.95 0.06 0 0.955 0.06 0 0.96 0.06 0 0.965 0.06 0 0.97 0.06 0 0.975 0.06 0 0.98 0.06 0 0.985 0.06 0 0.99 0.06 0 0.995 0.06 0 1 0.06 0 0 0.08 0 0.005 0.08 0 0.01 0.08 0 0.015 0.08 0 0.02 0.08 0 0.025 0.08 0 0.03 0.08 0 0.035 0.08 0 0.04 0.08 0 0.045 0.08 0 0.05 0.08 0 0.055 0.08 0 0.06 0.08 0 0.065 0.08 0 0.07 0.08 0 0.075 0.08 0 0.08 0.08 0 0.085 0.08 0 0.09 0.08 0 0.095 0.08 0 0.1 0.08 0 0.105 0.08 0 0.11 0.08 0 0.115 0.08 0 0.12 0.08 0 0.125 0.08 0 0.13 0.08 0 0.135 0.08 0 0.14 0.08 0 0.145 0.08 0 0.15 0.08 0 0.155 0.08 0 0.16 0.08 0 0.165 0.08 0
[...]
			<PointData Scalars="VitesseX">
				<DataArray Name="VitesseX" type="Float32" format="ascii">
 0 -4.81362e-14 1.72738e-14 -1.13088e-13 8.27279e-14 -2.15391e-14 -1.35168e-14 -1.00492e-13 4.97589e-14 1.45246e-15 -2.05021e-13 2.05919e-13 -3.71572e-13 4.11031e-13 -2.99134e-13 -1.04824e-14 2.15855e-13 -3.00402e-13 2.93226e-13 -1.85358e-13 -4.93229e-14 6.15344e-14 -6.54293e-14 1.12233e-13 -1.58911e-13 -1.58757e-13 3.8184e-15 -4.07812e-13 2.55538e-13 -4.86979e-13 7.13537e-13 -1.66763e-13 4.01925e-13 -2.44528e-13 -7.7838e-13 6.5667e-13 -8.01893e-13 1.05843e-12 -5.73668e-13 2.98713e-13 -6.81321e-13 6.10271e-13 -2.53209e-13 -1.20337e-13 -5.2756e-13 1.04567e-12 -1.21633e-12 1.29742e-12 -7.92785e-13 3.99855e-13 -1.92896e-14 -3.26176e-13 1.63054e-12 -2.37983e-12 8.22354e-13 -3.62086e-13 -1.52979e-12 2.41955e-12 -2.72122e-12 1.28892e-12 8.53548e-13 6.43668e-13 -1.14009e-13 -4.53598e-13 5.18395e-13 -1.34738e-14 -1.23435e-13 -5.92628e-13 -1.56153e-12 7.8308e-13 1.36202e-12 -2.62163e-12 1.59452e-12 -4.52371e-13 2.39065e-12 -1.16685e-12 -1.35514e-13 7.65212e-13 -1.47435e-12 1.79389e-12 -2.17695e-12 2.42508e-13 8.70984e-13 -1.99001e-12 6.74929e-13 1.38798e-12 -5.80913e-13 -6.02331e-14 5.65616e-13 -1.2684e-12 2.40257e-12 6.05031e-11 3.8371e-09 1.87922e-07 6.92493e-06 0.000182882 0.00321747 0.0336641 0.182093 0.506118 0.657651 0.891495 0.881997 0.7316 0.503951 0.276683 0.11171 0.0302432 0.00581043 0.000919323 0.00012907 1.64275e-05 1.91034e-06 2.03983e-07 2.00798e-08 1.82826e-09 1.52926e-10 1.17445e-11 3.30632e-12 -1.26088e-12 2.21154e-12 -1.11891e-12 -7.77036e-13 2.2335e-12 -2.4467e-12 2.18163e-12 -9.51286e-13 -1.2396e-12 2.22035e-12 -2.17548e-12 1.95381e-12 -1.02103e-12 -8.18088e-13 2.11678e-12 -2.07803e-12 1.65607e-12 -1.06716e-12 -1.2842e-12 6.76322e-13 -2.15362e-12 1.95789e-12 -1.31768e-13 -2.41908e-12 3.08981e-12 1.08819e-12 -1.58567e-12 2.59902e-12 -3.46122e-12 2.47418e-12 1.49816e-13 -1.5846e-12 2.15714e-12 -3.1855e-12 2.9484e-12 -2.1165e-12 2.15167e-12 -1.84099e-12 -4.95305e-13 1.29552e-12 -5.39527e-13 1.20642e-12 -1.28001e-12 8.90322e-14 6.23609e-13 -1.08279e-12 -1.77904e-13 -7.6532e-13 1.62913e-13 2.39279e-12 -1.81542e-12 1.44894e-12 -1.27169e-13 -1.73556e-12 2.89168e-12 -2.50259e-12 1.61871e-12 -4.6012e-13 -1.36006e-12 2.40683e-12 -2.0784e-12 1.22727e-12 2.19189e-13 -1.96214e-12 2.94529e-12 -2.55447e-12 1.41531e-12 5.98511e-14 -2.55159e-12 1.77584e-12 -4.03049e-12 9.6554e-13 3.94338e-12 -7.66981e-12 5.1417e-12 5.8414e-13 7.31831e-13 2.06662e-12 -4.53225e-12 4.1111e-12 -1.33894e-12 0 0 -1.8446e-14 -9.35922e-14 1.12494e-13 -1.34174e-13 -1.28601e-14 4.04819e-14 2.7636e-14 -1.67502e-13 -2.07991e-14 7.18172e-14 -2.06203e-13 3.86089e-13 -5.72755e-13 3.24796e-13 -1.39536e-13 -2.64389e-13 4.06048e-13 -3.93065e-13 2.24006e-13 1.4449e-13 -1.63666e-13 -1.40916e-13 1.55829e-14 4.09066e-13 -3.42717e-14 -7.85299e-13 -2.22265e-13 4.16717e-13 -5.77779e-14 -3.83228e-14 6.60849e-13 -4.60863e-13 -2.86554e-13 1.89948e-13 -2.81981e-14 -6.29658e-14 -4.67643e-13 8.53578e-13 -4.52856e-13 3.67409e-14 6.02712e-14 -5.35746e-13 4.22774e-13 7.08589e-14 -5.07307e-13 3.91737e-13 -4.8353e-13 6.53434e-13 1.55941e-13 1.09955e-13 -1.10581e-13 -8.39109e-13 8.66998e-13 -9.88957e-13 -6.59571e-13 7.0407e-13 -5.41104e-13 5.59805e-13 -6.59271e-13 4.51955e-13 5.89065e-13 2.03957e-13 5.02887e-13 -5.18792e-13 -3.21286e-13 2.58423e-13 -5.47838e-13 -1.11001e-13 -7.46668e-13 -6.80486e-14 7.68524e-13 -5.62802e-13 1.3482e-12 -8.42131e-13 7.53672e-13 4.34438e-13 -7.78225e-13 5.12132e-13 -1.20528e-12 9.07321e-13 -1.0603e-12 -1.09853e-12 1.79539e-12 -2.39012e-13 -1.33463e-12 1.12211e-12 8.20431e-13 -3.24413e-13 6.62351e-13 -6.87267e-13 6.20261e-11 3.83761e-09 1.87922e-07 6.92493e-06 0.000182882 0.00321747 0.0336641 0.182093 0.506118 0.657651 0.891495 0.881997 0.7316 0.503951 0.276683 0.11171 0.0302432 0.00581043 0.000919323 0.00012907 1.64275e-05 1.91034e-06 2.03983e-07 2.00773e-08 1.82863e-09 1.54734e-10 1.27836e-11 -1.03374e-13 1.68625e-12 -1.10427e-12 1.49361e-12 2.75142e-13 -1.59089e-12 1.30054e-12 -1.19223e-12 1.08843e-12 6.24468e-13 -1.91287e-12 1.41728e-12 -1.34407e-12 1.33963e-12 4.22908e-13 -1.73124e-12 1.2841e-12 -1.21722e-12 9.44087e-13 -3.17587e-14 -2.4586e-12 3.19314e-13 2.8665e-14 -9.11274e-13 2.86935e-12 -1.1702e-12 -2.1233e-13 1.58654e-12 -1.27994e-12 2.69338e-12 -2.00089e-12 -6.99611e-13 1.56835e-12 -1.17795e-12 2.36273e-12 -2.48879e-12 1.03406e-12 -1.13736e-12 1.18213e-12 1.4098e-13 -1.43485e-12 2.58445e-13 4.70349e-14 2.11703e-12 -8.26089e-13 -1.94702e-12 -4.72888e-13 -3.21253e-13 1.93681e-12 -3.16552e-13 -8.29321e-13 2.07171e-12 -1.70716e-12 -4.70426e-13 2.33082e-12 -1.7458e-12 2.05273e-12 -2.05162e-12 -2.24106e-13 1.61501e-12 -1.09651e-12 1.45767e-12 -1.62878e-12 -7.21297e-13 2.19862e-12 -1.64447e-12 1.99316e-12 -2.02707e-12 -5.06726e-13 1.5787e-12 -2.58835e-12 1.15175e-12 -2.77596e-12 3.20613e-13 3.71987e-12 -3.17269e-12 2.58002e-13 8.34589e-13 3.67344e-13 4.40654e-12 -3.92943e-12 -4.72459e-13 0 0 1.07775e-14 5.56855e-14 -1.20955e-13 9.03685e-14 -6.99648e-14 -1.76864e-13 -1.5137e-13 1.4731e-13 6.70109e-14 -1.20796e-13 6.92314e-14 -4.26274e-13 2.31728e-13 -4.58809e-13 1.07048e-13 2.97195e-13 -3.38514e-13 3.29855e-13 -2.69093e-13 -6.98446e-14 2.62418e-13 2.84916e-13 -6.58365e-14 -5.37207e-13 -7.00627e-14 3.04636e-13 -3.18086e-13 1.56085e-13 -4.56669e-13 4.43923e-13 -6.96274e-14 4.83757e-13 -3.23789e-13 -5.90386e-13 -3.17402e-14 1.85792e-13 5.71405e-13 -4.48455e-13 -4.87436e-14 -3.08782e-13 2.48303e-13 -7.87382e-14 -2.17785e-13 -4.91326e-14 4.75004e-13 -2.45016e-13 1.53625e-13 -2.3987e-13 -2.65364e-13 -9.57498e-14 4.3467e-13 5.68906e-14 -3.61059e-13 -1.31742e-12 -1.91811e-13 8.43053e-13 6.33665e-15 -1.34465e-13 -3.89212e-13 6.37884e-13 5.26723e-13 -2.51412e-13 1.64469e-13 -1.2478e-13 4.71301e-13 -1.29114e-13 -6.52322e-13 -4.81913e-13 1.31396e-14 8.26737e-14 -3.41627e-13 -7.13629e-13 8.26039e-13 9.84066e-13 -1.63328e-13 -8.74748e-13 -1.99695e-13 7.41635e-13 1.41155e-14 -9.30782e-13 3.46151e-13 -1.48351e-13 -6.97281e-14 -1.35446e-12 1.78691e-12 6.68165e-13 -5.16407e-13 2.003e-13 2.31795e-13 1.98937e-12 6.07198e-11 3.83591e-09 1.87922e-07 6.92493e-06 0.000182882 0.00321747 0.0336641 0.182093 0.506118 0.657651 0.891495 0.881997 0.7316 0.503951 0.276683 0.11171 0.0302432 0.00581043 0.000919323 0.00012907 1.64275e-05 1.91034e-06 2.03983e-07 2.00792e-08 1.82757e-09 1.53397e-10 1.29428e-11 1.40796e-12 -6.95739e-16 7.99784e-13 -1.35192e-12 1.3054e-12 3.66514e-14 -3.65426e-13 2.25478e-13 -1.52264e-12 1.35986e-12 1.11477e-13 -1.43317e-13 3.59068e-13 -1.58e-12 1.41629e-12 1.39708e-13 -2.11872e-13 2.75535e-13 -1.42745e-12 7.64551e-13 -3.31238e-13 -1.42814e-12 6.25169e-13 -1.13788e-13 -1.88133e-13 5.6052e-13 9.68923e-13 -8.90579e-13 3.47107e-13 3.28805e-13 -2.92632e-13 9.06814e-13 -1.09883e-12 2.85288e-13 5.91326e-13 -4.76707e-13 -4.35581e-14 6.5343e-13 -1.21297e-12 1.35289e-12 1.62179e-13 7.74832e-13 -8.15608e-13 -2.20034e-12 5.77489e-13 6.04118e-13 4.04886e-13 -9.48778e-13 -1.27911e-12 5.1474e-13 3.40275e-13 -1.34777e-13 1.27446e-12 6.02691e-14 -1.46365e-13 -6.84329e-13 -2.40532e-13 1.49329e-12 -1.79772e-13 -1.91518e-13 -5.06348e-13 -5.58302e-13 1.15334e-12 -1.38607e-13 -2.58772e-13 -5.24833e-13 -1.17767e-13 1.25913e-12 -3.58944e-13 -6.3493e-13 -1.17324e-12 -1.54874e-12 1.2226e-12 2.76182e-13 -1.72307e-12 -4.98345e-13 2.11145e-12 7.48273e-13 -2.83923e-13 -2.59339e-13 4.35754e-16 1.04638e-12 0 0 -4.23674e-14 -1.60224e-14 -3.6049e-14 -4.17845e-14 -1.32308e-14 -1.69163e-14 -1.09088e-13 -6.04794e-14 -3.57325e-14 -1.92975e-13 -9.02434e-14 -1.84478e-13 8.04376e-15 -9.2202e-14 3.33587e-14 2.41819e-14 -1.20609e-13 6.09747e-14 1.02747e-13 9.02043e-14 8.4579e-14 -2.42902e-13 -6.92531e-14 -8.60832e-14 -9.40855e-14 -3.06144e-14 -1.50226e-13 3.49552e-14 -1.07103e-13 1.78417e-13 1.78127e-13 2.95186e-14 -3.803e-13 -1.4554e-13 5.81394e-15 -3.98539e-13 4.6348e-13 -4.81734e-13 1.96528e-13 -1.49266e-14 2.94057e-13 1.53263e-13 -2.03415e-13 -7.19595e-13 2.47563e-13 -6.62064e-13 8.69331e-13 -5.46804e-13 2.34231e-13 -3.40181e-13 -4.49195e-13 8.73386e-13 -9.28806e-13 -4.19822e-13 -3.39912e-13 3.01451e-13 9.23335e-13 -7.30764e-13 -1.2247e-14 5.53002e-13 3.59717e-13 3.2623e-13 5.41489e-13 -4.14043e-13 -1.68682e-15 -5.32969e-13 -2.96246e-13 -3.36967e-13 -1.05899e-12 1.01071e-12 -1.11761e-12 6.93274e-14 2.88798e-13 9.73831e-13 -1.00369e-12 3.82078e-13 -1.01585e-13 2.83453e-13 5.056e-13 -2.33682e-12 -4.01596e-13 1.33926e-12 -6.30464e-13 -1.95852e-13 1.22693e-12 -9.81159e-14 1.49581e-13 1.02579e-12 -8.50826e-13 2.47492e-12 5.98159e-11 3.83725e-09 1.87922e-07 6.92493e-06 0.000182882 0.00321747 0.0336641 0.182093 0.506118 0.657651 0.891495 0.881997 0.7316 0.503951 0.276683 0.11171 0.0302432 0.00581043 0.000919323 0.00012907 1.64275e-05 1.91034e-06 2.03983e-07 2.00794e-08 1.82757e-09 1.5336e-10 1.26904e-11 1.25742e-12 -5.2044e-13 1.44673e-12 -1.62197e-12 1.11088e-12 -2.26403e-14 -8.95553e-13 1.34209e-12 -1.4351e-12 8.01753e-13 1.62477e-13 -7.86238e-13 1.5506e-12 -1.48525e-12 1.13727e-12 4.57078e-14 -1.10338e-12 1.24621e-12 -1.78606e-12 4.8018e-13 -3.07863e-13 -1.11989e-12 1.07193e-13 2.48987e-13 -1.5855e-13 1.50088e-13 -1.26467e-13 -8.54681e-13 1.98815e-12 -2.95013e-13 -6.01677e-13 -2.96725e-13 -7.71572e-13 2.18508e-12 -3.23738e-14 1.59075e-13 -1.484e-12 2.18617e-12 -1.50641e-12 1.29794e-12 -9.16322e-13 -6.85154e-13 1.3805e-12 -8.75921e-13 7.7002e-13 -1.9067e-12 -4.02412e-13 7.88007e-13 -1.47393e-12 1.36982e-12 5.5607e-13 -4.00998e-13 9.49645e-13 -1.34789e-12 -4.83438e-13 1.65126e-12 -6.88647e-13 7.84802e-13 -1.08583e-12 -1.50164e-13 1.45033e-12 -6.68753e-13 1.7373e-13 -1.52513e-12 -2.55474e-13 2.14247e-12 -1.2642e-12 5.50036e-13 -1.0781e-12 -8.36324e-13 1.42719e-12 -3.28539e-12 -1.02395e-12 1.76437e-12 -6.03468e-13 3.04141e-13 -5.78142e-13 -3.87523e-13 1.97e-12 6.7989e-13 -2.45032e-13 -2.13092e-12 0 0 -5.19747e-14 -1.4023e-13 9.81536e-14 -2.01771e-13 -7.4838e-14 3.38819e-14 6.94437e-14 -2.37847e-13 -1.50741e-13 -3.30029e-14 -4.92825e-13 4.14448e-13 -6.33652e-13 5.56388e-13 -3.04017e-14 -3.30843e-13 7.31634e-13 -5.22027e-13 2.31494e-13 1.23227e-14 -4.54214e-13 -3.62683e-13 -1.87343e-13 5.15872e-13 -7.72624e-15 -5.89544e-13 -2.15865e-14 3.72424e-15 4.12359e-13 -2.78371e-13 5.51003e-13 -6.89985e-13 -1.53693e-13 4.19708e-13 2.63662e-14 1.62747e-13 -4.72206e-13 6.95995e-13 -5.63651e-13 2.08412e-13 -3.34781e-13 -2.97236e-13 2.78166e-13 -1.64246e-13 -7.04254e-13 2.23407e-13 -3.14488e-13 3.20621e-13 3.56059e-13 -6.06837e-14 -2.26731e-13 -1.96474e-13 5.28442e-13 -8.21614e-13 -8.79432e-13 5.19733e-13 -7.54633e-14 5.13981e-13 -3.29599e-13 5.57871e-13 4.80092e-13 5.29895e-13 3.29055e-13 -4.67405e-13 -4.74567e-13 -4.76077e-14 -4.50301e-13 -1.60478e-13 -1.34011e-12 2.38853e-13 6.29043e-13 -5.54051e-14 1.77803e-12 -6.40435e-13 -6.00307e-14 -1.22231e-13 -1.17871e-12 8.932e-14 -8.97812e-13 7.6692e-14 -2.79243e-12 5.01331e-14 1.75773e-12 4.32432e-13 -2.14184e-12 5.70479e-13 1.50911e-12 -4.7517e-13 1.18734e-12 -3.43532e-13 6.09911e-11 3.83937e-09 1.8792e-07 6.92493e-06 0.000182882 0.00321747 0.0336641 0.182093 0.506118 0.657651 0.891495 0.881997 0.7316 0.503951 0.276683 0.11171 0.0302432 0.00581043 0.000919323 0.00012907 1.64275e-05 1.91034e-06 2.03983e-07 2.00775e-08 1.82861e-09 1.55019e-10 1.20809e-11 2.0424e-13 1.69524e-12 -1.45656e-12 1.78115e-12 -7.78045e-13 -1.39063e-12 1.91746e-12 -1.45617e-12 1.75937e-12 -2.72671e-13 -1.47717e-12 1.53778e-12 -1.45166e-12 1.53956e-12 4.46426e-14 -1.50237e-12 1.12596e-12 -1.0844e-12 1.02324e-12 -9.06533e-13 -2.21751e-12 1.11681e-12 -1.10369e-12 -1.26137e-12 3.56853e-12 -1.89264e-12 -1.25037e-12 2.28926e-12 -1.55892e-12 3.99045e-12 -2.18728e-12 -6.84061e-13 1.66952e-12 -2.23167e-12 2.12457e-12 -2.73568e-12 1.39051e-12 -9.73399e-13 2.94248e-12 -3.26636e-13 -1.78731e-12 -1.42523e-12 5.08696e-13 3.85878e-12 -2.84941e-12 -2.70363e-12 -6.86844e-13 4.59072e-13 2.02161e-12 -3.49798e-12 5.9246e-14 4.64963e-12 -2.08813e-12 -1.30419e-12 1.83503e-12 -1.71615e-13 3.24667e-12 -4.29e-12 -1.66843e-13 1.4751e-12 -3.68824e-13 3.61917e-12 -3.7291e-12 -2.0055e-12 2.09882e-12 1.60886e-14 3.3859e-12 -4.5018e-12 -5.48843e-13 1.20002e-12 -1.06059e-12 9.80494e-13 -6.64983e-12 8.53698e-13 7.32034e-12 -3.39756e-12 -1.71111e-12 4.4769e-13 1.29976e-12 6.70704e-12 -5.61935e-12 -2.46419e-12 0 0 -8.90388e-15 6.74132e-14 -3.11582e-13 2.1184e-13 -2.58963e-13 -3.46612e-13 -1.0144e-13 3.24649e-13 -5.29436e-14 -2.70304e-13 -4.83747e-14 -7.98445e-13 7.36605e-13 -5.69164e-13 3.55165e-13 6.28973e-13 -8.50397e-14 5.73062e-13 -9.14065e-13 -6.33756e-13 -1.63883e-13 5.46671e-13 -2.86786e-13 -8.47545e-13 -5.76207e-14 1.06583e-12 -3.42173e-13 -3.28188e-13 -2.45838e-13 7.64451e-13 -8.81964e-13 8.52159e-13 1.34215e-13 -1.20855e-12 6.9069e-13 8.18195e-13 1.26515e-12 -8.22275e-13 -4.1342e-13 -9.25689e-13 -2.71342e-13 -2.40192e-13 -4.38291e-13 3.43153e-13 1.10666e-12 -7.18891e-13 2.0409e-13 -8.44543e-13 -1.99098e-13 1.28296e-13 1.20925e-12 1.28281e-12 -1.92145e-12 -6.38153e-13 -5.05607e-13 -8.15261e-13 1.51683e-12 -1.62027e-12 1.19433e-12 1.23514e-12 7.59734e-13 -6.17415e-13 -1.5553e-12 1.1997e-12 6.2594e-13 7.22135e-14 -1.10971e-12 -1.95038e-12 1.74046e-12 1.19751e-13 -1.34862e-12 1.0434e-12 1.48177e-12 2.81451e-12 -1.11353e-12 -3.76251e-12 -2.31979e-13 -1.40361e-12 1.42586e-12 -1.02612e-12 -1.72625e-12 1.931e-13 -9.43843e-13 -2.99407e-13 8.93521e-13 -1.51604e-13 -1.48462e-14 -1.38688e-12 1.94682e-12 2.11893e-12 6.02409e-11 3.83793e-09 1.87919e-07 6.92493e-06 0.000182882 0.00321747 0.0336641 0.182093 0.506118 0.657651 0.891495 0.881997 0.7316 0.503951 0.276683 0.11171 0.0302432 0.00581043 0.000919323 0.00012907 1.64275e-05 1.91034e-06 2.03985e-07 2.00798e-08 1.82821e-09 1.53571e-10 1.0844e-11 4.22264e-12 -2.03399e-13 2.1306e-13 -3.72686e-15 -2.49436e-12 2.75261e-12 -1.52623e-13 -5.79494e-13 2.15529e-13 -1.91767e-12 2.98977e-12 -6.48622e-13 -6.44434e-13 -8.10684e-13 -1.01658e-12 2.76251e-12 -6.11271e-13 -1.96414e-14 -1.91636e-13 -2.46501e-12 1.11176e-12 -1.17514e-12 7.29132e-13 -1.55752e-12 -1.07987e-12 2.46579e-12 1.20288e-12 -2.52049e-13 -1.24102e-12 3.80551e-13 2.71949e-12 2.58799e-12 -2.03677e-12 -3.74989e-12 -2.41442e-12 1.18305e-12 1.4773e-12 -5.85887e-13 2.2666e-12 -1.32063e-12 2.74761e-12 -9.86899e-13 -2.26247e-12 -4.45363e-13 -4.34267e-12 4.13202e-12 1.03893e-13 -2.09082e-12 -2.06086e-13 -7.91009e-12 3.73834e-12 3.87285e-12 1.33663e-12 1.02161e-12 -2.05299e-12 1.36886e-12 7.81518e-13 -1.44108e-12 1.46651e-12 -1.7226e-12 -5.1147e-14 2.46551e-12 -1.01417e-12 4.23831e-13 -2.16833e-12 9.31819e-13 2.52388e-12 -2.11594e-12 1.41392e-12 -2.90617e-12 -3.69487e-13 -8.99693e-13 -2.28912e-12 2.03318e-12 -2.70807e-12 3.08697e-12 2.0251e-12 2.22962e-12 -5.7641e-13 -1.8097e-12 1.2222e-12 1.0322e-12 0
				</DataArray>
				<DataArray Name="VitesseY" type="Float32" format="ascii">