<?xml version="1.0"?>
<VTKFile type="PolyData">
	<PolyData>
		<Piece NumberOfPoints="1206" NumberOfPolys="1000">
			<Points>
				<DataArray type="Float32" NumberOfComponents="3" format="ascii">
 0 0 0 0.005 0 0 0.01 0 0 0.015 0 0 0.02 0 0 0.025 0 0 0.03 0 0 0.035 0 0 0.04 0 0 0.045 0 0 0.05 0 0 0.055 0 0 0.06 0 0 0.065 0 0 0.07 0 0 0.075 0 0 0.08 0 0 0.085 0 0 0.09 0 0 0.095 0 0 0.1 0 0 0.105 0 0 0.11 0 0 0.115 0 0 0.12 0 0 0.125 0 0 0.13 0 0 0.135 0 0 0.14 0 0 0.145 0 0 0.15 0 0 0.155 0 0 0.16 0 0 0.165 0 0 0.17 0 0 0.175 0 0 0.18 0 0 0.185 0 0 0.19 0 0 0.195 0 0 0.2 0 0 0.205 0 0 0.21 0 0 0.215 0 0 0.22 0 0 0.225 0 0 0.23 0 0 0.235 0 0 0.24 0 0 0.245 0 0 0.25 0 0 0.255 0 0 0.26 0 0 0.265 0 0 0.27 0 0 0.275 0 0 0.28 0 0 0.285 0 0 0.29 0 0 0.295 0 0 0.3 0 0 0.305 0 0 0.31 0 0 0.315 0 0 0.32 0 0 0.325 0 0 0.33 0 0 0.335 0 0 0.34 0 0 0.345 0 0 0.35 0 0 0.355 0 0 0.36 0 0 0.365 0 0 0.37 0 0 0.375 0 0 0.38 0 0 0.385 0 0 0.39 0 0 0.395 0 0 0.4 0 0 0.405 0 0 0.41 0 0 0.415 0 0 0.42 0 0 0.425 0 0 0.43 0 0 0.435 0 0 0.44 0 0 0.445 0 0 0.45 0 0 0.455 0 0 0.46 0 0 0.465 0 0 0.47 0 0 0.475 0 0 0.48 0 0 0.485 0 0 0.49 0 0 0.495 0 0 0.5 0 0 0.505 0 0 0.51 0 0 0.515 0 0 0.52 0 0 0.525 0 0 0.53 0 0 0.535 0 0 0.54 0 0 0.545 0 0 0.55 0 0 0.555 0 0 0.56 0 0 0.565 0 0 0.57 0 0 0.575 0 0 0.58 0 0 0.585 0 0 0.59 0 0 0.595 0 0 0.6 0 0 0.605 0 0 0.61 0 0 0.615 0 0 0.62 0 0 0.625 0 0 0.63 0 0 0.635 0 0 0.64 0 0 0.645 0 0 0.65 0 0 0.655 0 0 0.66 0 0 0.665 0 0 0.67 0 0 0.675 0 0 0.68 0 0 0.685 0 0 0.69 0 0 0.695 0 0 0.7 0 0 0.705 0 0 0.71 0 0 0.715 0 0 0.72 0 0 0.725 0 0 0.73 0 0 0.735 0 0 0.74 0 0 0.745 0 0 0.75 0 0 0.755 0 0 0.76 0 0 0.765 0 0 0.77 0 0 0.775 0 0 0.78 0 0 0.785 0 0 0.79 0 0 0.795 0 0 0.8 0 0 0.805 0 0 0.81 0 0 0.815 0 0 0.82 0 0 0.825 0 0 0.83 0 0 0.835 0 0 0.84 0 0 0.845 0 0 0.85 0 0 0.855 0 0 0.86 0 0 0.865 0 0 0.87 0 0 0.875 0 0 0.88 0 0 0.885 0 0 0.89 0 0 0.895 0 0 0.9 0 0 0.905 0 0 0.91 0 0 0.915 0 0 0.92 0 0 0.925 0 0 0.93 0 0 0.935 0 0 0.94 0 0 0.945 0 0 0.95 0 0 0.955 0 0 0.96 0 0 0.965 0 0 0.97 0 0 0.975 0 0 0.98 0 0 0.985 0 0 0.99 0 0 0.995 0 0 1 0 0 0 0.02 0 0.005 0.02 0 0.01 0.02 0 0.015 0.02 0 0.02 0.02 0 0.025 0.02 0 0.03 0.02 0 0.035 0.02 0 0.04 0.02 0 0.045 0.02 0 0.05 0.02 0 0.055 0.02 0 0.06 0.02 0 0.065 0.02 0 0.07 0.02 0 0.075 0.02 0 0.08 0.02 0 0.085 0.02 0 0.09 0.02 0 0.095 0.02 0 0.1 0.02 0 0.105 0.02 0 0.11 0.02 0 0.115 0.02 0 0.12 0.02 0 0.125 0.02 0 0.13 0.02 0 0.135 0.02 0 0.14 0.02 0 0.145 0.02 0 0.15 0.02 0 0.155 0.02 0 0.16 0.02 0 0.165 0.02 0 0.17 0.02 0 0.175 0.02 0 0.18 0.02 0 0.185 0.02 0 0.19 0.02 0 0.195 0.02 0 0.2 0.02 0 0.205 0.02 0 0.21 0.02 0 0.215 0.02 0 0.22 0.02 0 0.225 0.02 0 0.23 0.02 0 0.235 0.02 0 0.24 0.02 0 0.245 0.02 0 0.25 0.02 0 0.255 0.02 0 0.26 0.02 0 0.265 0.02 0 0.27 0.02 0 0.275 0.02 0 0.28 0.02 0 0.285 0.02 0 0.29 0.02 0 0.295 0.02 0 0.3 0.02 0 0.305 0.02 0 0.31 0.02 0 0.315 0.02 0 0.32 0.02 0 0.325 0.02 0 0.33 0.02 0 0.335 0.02 0 0.34 0.02 0 0.345 0.02 0 0.35 0.02 0 0.355 0.02 0 0.36 0.02 0 0.365 0.02 0 0.37 0.02 0 0.375 0.02 0 0.38 0.02 0 0.385 0.02 0 0.39 0.02 0 0.395 0.02 0 0.4 0.02 0 0.405 0.02 0 0.41 0.02 0 0.415 0.02 0 0.42 0.02 0 0.425 0.02 0 0.43 0.02 0 0.435 0.02 0 0.44 0.02 0 0.445 0.02 0 0.45 0.02 0 0.455 0.02 0 0.46 0.02 0 0.465 0.02 0 0.47 0.02 0 0.475 0.02 0 0.48 0.02 0 0.485 0.02 0 0.49 0.02 0 0.495 0.02 0 0.5 0.02 0 0.505 0.02 0 0.51 0.02 0 0.515 0.02 0 0.52 0.02 0 0.525 0.02 0 0.53 0.02 0 0.535 0.02 0 0.54 0.02 0 0.545 0.02 0 0.55 0.02 0 0.555 0.02 0 0.56 0.02 0 0.565 0.02 0 0.57 0.02 0 0.575 0.02 0 0.58 0.02 0 0.585 0.02 0 0.59 0.02 0 0.595 0.02 0 0.6 0.02 0 0.605 0.02 0 0.61 0.02 0 0.615 0.02 0 0.62 0.02 0 0.625 0.02 0 0.63 0.02 0 0.635 0.02 0 0.64 0.02 0 0.645 0.02 0 0.65 0.02 0 0.655 0.02 0 0.66 0.02 0 0.665 0.02 0 0.67 0.02 0 0.675 0.02 0 0.68 0.02 0 0.685 0.02 0 0.69 0.02 0 0.695 0.02 0 0.7 0.02 0 0.705 0.02 0 0.71 0.02 0 0.715 0.02 0 0.72 0.02 0 0.725 0.02 0 0.73 0.02 0 0.735 0.02 0 0.74 0.02 0 0.745 0.02 0 0.75 0.02 0 0.755 0.02 0 0.76 0.02 0 0.765 0.02 0 0.77 0.02 0 0.775 0.02 0 0.78 0.02 0 0.785 0.02 0 0.79 0.02 0 0.795 0.02 0 0.8 0.02 0 0.805 0.02 0 0.81 0.02 0 0.815 0.02 0 0.82 0.02 0 0.825 0.02 0 0.83 0.02 0 0.835 0.02 0 0.84 0.02 0 0.845 0.02 0 0.85 0.02 0 0.855 0.02 0 0.86 0.02 0 0.865 0.02 0 0.87 0.02 0 0.875 0.02 0 0.88 0.02 0 0.885 0.02 0 0.89 0.02 0 0.895 0.02 0 0.9 0.02 0 0.905 0.02 0 0.91 0.02 0 0.915 0.02 0 0.92 0.02 0 0.925 0.02 0 0.93 0.02 0 0.935 0.02 0 0.94 0.02 0 0.945 0.02 0 0.95 0.02 0 0.955 0.02 0 0.96 0.02 0 0.965 0.02 0 0.97 0.02 0 0.975 0.02 0 0.98 0.02 0 0.985 0.02 0 0.99 0.02 0 0.995 0.02 0 1 0.02 0 0 0.04 0 0.005 0.04 0 0.01 0.04 0 0.015 0.04 0 0.02 0.04 0 0.025 0.04 0 0.03 0.04 0 0.035 0.04 0 0.04 0.04 0 0.045 0.04 0 0.05 0.04 0 0.055 0.04 0 0.06 0.04 0 0.065 0.04 0 0.07 0.04 0 0.075 0.04 0 0.08 0.04 0 0.085 0.04 0 0.09 0.04 0 0.095 0.04 0 0.1 0.04 0 0.105 0.04 0 0.11 0.04 0 0.115 0.04 0 0.12 0.04 0 0.125 0.04 0 0.13 0.04 0 0.135 0.04 0 0.14 0.04 0 0.145 0.04 0 0.15 0.04 0 0.155 0.04 0 0.16 0.04 0 0.165 0.04 0 0.17 0.04 0 0.175 0.04 0 0.18 0.04 0 0.185 0.04 0 0.19 0.04 0 0.195 0.04 0 0.2 0.04 0 0.205 0.04 0 0.21 0.04 0 0.215 0.04 0 0.22 0.04 0 0.225 0.04 0 0.23 0.04 0 0.235 0.04 0 0.24 0.04 0 0.245 0.04 0 0.25 0.04 0 0.255 0.04 0 0.26 0.04 0 0.265 0.04 0 0.27 0.04 0 0.275 0.04 0 0.28 0.04 0 0.285 0.04 0 0.29 0.04 0 0.295 0.04 0 0.3 0.04 0 0.305 0.04 0 0.31 0.04 0 0.315 0.04 0 0.32 0.04 0 0.325 0.04 0 0.33 0.04 0 0.335 0.04 0 0.34 0.04 0 0.345 0.04 0 0.35 0.04 0 0.355 0.04 0 0.36 0.04 0 0.365 0.04 0 0.37 0.04 0 0.375 0.04 0 0.38 0.04 0 0.385 0.04 0 0.39 0.04 0 0.395 0.04 0 0.4 0.04 0 0.405 0.04 0 0.41 0.04 0 0.415 0.04 0 0.42 0.04 0 0.425 0.04 0 0.43 0.04 0 0.435 0.04 0 0.44 0.04 0 0.445 0.04 0 0.45 0.04 0 0.455 0.04 0 0.46 0.04 0 0.465 0.04 0 0.47 0.04 0 0.475 0.04 0 0.48 0.04 0 0.485 0.04 0 0.49 0.04 0 0.495 0.04 0 0.5 0.04 0 0.505 0.04 0 0.51 0.04 0 0.515 0.04 0 0.52 0.04 0 0.525 0.04 0 0.53 0.04 0 0.535 0.04 0 0.54 0.04 0 0.545 0.04 0 0.55 0.04 0 0.555 0.04 0 0.56 0.04 0 0.565 0.04 0 0.57 0.04 0 0.575 0.04 0 0.58 0.04 0 0.585 0.04 0 0.59 0.04 0 0.595 0.04 0 0.6 0.04 0 0.605 0.04 0 0.61 0.04 0 0.615 0.04 0 0.62 0.04 0 0.625 0.04 0 0.63 0.04 0 0.635 0.04 0 0.64 0.04 0 0.645 0.04 0 0.65 0.04 0 0.655 0.04 0 0.66 0.04 0 0.665 0.04 0 0.67 0.04 0 0.675 0.04 0 0.68 0.04 0 0.685 0.04 0 0.69 0.04 0 0.695 0.04 0 0.7 0.04 0 0.705 0.04 0 0.71 0.04 0 0.715 0.04 0 0.72 0.04 0 0.725 0.04 0 0.73 0.04 0 0.735 0.04 0 0.74 0.04 0 0.745 0.04 0 0.75 0.04 0 0.755 0.04 0 0.76 0.04 0 0.765 0.04 0 0.77 0.04 0 0.775 0.04 0 0.78 0.04 0 0.785 0.04 0 0.79 0.04 0 0.795 0.04 0 0.8 0.04 0 0.805 0.04 0 0.81 0.04 0 0.815 0.04 0 0.82 0.04 0 0.825 0.04 0 0.83 0.04 0 0.835 0.04 0 0.84 0.04 0 0.845 0.04 0 0.85 0.04 0 0.855 0.04 0 0.86 0.04 0 0.865 0.04 0 0.87 0.04 0 0.875 0.04 0 0.88 0.04 0 0.885 0.04 0 0.89 0.04 0 0.895 0.04 0 0.9 0.04 0 0.905 0.04 0 0.91 0.04 0 0.915 0.04 0 0.92 0.04 0 0.925 0.04 0 0.93 0.04 0 0.935 0.04 0 0.94 0.04 0 0.945 0.04 0 0.95 0.04 0 0.955 0.04 0 0.96 0.04 0 0.965 0.04 0 0.97 0.04 0 0.975 0.04 0 0.98 0.04 0 0.985 0.04 0 0.99 0.04 0 0.995 0.04 0 1 0.04 0 0 0.06 0 0.005 0.06 0 0.01 0.06 0 0.015 0.06 0 0.02 0.06 0 0.025 0.06 0 0.03 0.06 0 0.035 0.06 0 0.04 0.06 0 0.045 0.06 0 0.05 0.06 0 0.055 0.06 0 0.06 0.06 0 0.065 0.06 0 0.07 0.06 0 0.075 0.06 0 0.08 0.06 0 0.085 0.06 0 0.09 0.06 0 0.095 0.06 0 0.1 0.06 0 0.105 0.06 0 0.11 0.06 0 0.115 0.06 0 0.12 0.06 0 0.125 0.06 0 0.13 0.06 0 0.135 0.06 0 0.14 0.06 0 0.145 0.06 0 0.15 0.06 0 0.155 0.06 0 0.16 0.06 0 0.165 0.06 0 0.17 0.06 0 0.175 0.06 0 0.18 0.06 0 0.185 0.06 0 0.19 0.06 0 0.195 0.06 0 0.2 0.06 0 0.205 0.06 0 0.21 0.06 0 0.215 0.06 0 0.22 0.06 0 0.225 0.06 0 0.23 0.06 0 0.235 0.06 0 0.24 0.06 0 0.245 0.06 0 0.25 0.06 0 0.255 0.06 0 0.26 0.06 0 0.265 0.06 0 0.27 0.06 0 0.275 0.06 0 0.28 0.06 0 0.285 0.06 0 0.29 0.06 0 0.295 0.06 0 0.3 0.06 0 0.305 0.06 0 0.31 0.06 0 0.315 0.06 0 0.32 0.06 0 0.325 0.06 0 0.33 0.06 0 0.335 0.06 0 0.34 0.06 0 0.345 0.06 0 0.35 0.06 0 0.355 0.06 0 0.36 0.06 0 0.365 0.06 0 0.37 0.06 0 0.375 0.06 0 0.38 0.06 0 0.385 0.06 0 0.39 0.06 0 0.395 0.06 0 0.4 0.06 0 0.405 0.06 0 0.41 0.06 0 0.415 0.06 0 0.42 0.06 0 0.425 0.06 0 0.43 0.06 0 0.435 0.06 0 0.44 0.06 0 0.445 0.06 0 0.45 0.06 0 0.455 0.06 0 0.46 0.06 0 0.465 0.06 0 0.47 0.06 0 0.475 0.06 0 0.48 0.06 0 0.485 0.06 0 0.49 0.06 0 0.495 0.06 0 0.5 0.06 0 0.505 0.06 0 0.51 0.06 0 0.515 0.06 0 0.52 0.06 0 0.525 0.06 0 0.53 0.06 0 0.535 0.06 0 0.54 0.06 0 0.545 0.06 0 0.55 0.06 0 0.555 0.06 0 0.56 0.06 0 0.565 0.06 0 0.57 0.06 0 0.575 0.06 0 0.58 0.06 0 0.585 0.06 0 0.59 0.06 0 0.595 0.06 0 0.6 0.06 0 0.605 0.06 0 0.61 0.06 0 0.615 0.06 0 0.62 0.06 0 0.625 0.06 0 0.63 0.06 0 0.635 0.06 0 0.64 0.06 0 0.645 0.06 0 0.65 0.06 0 0.655 0.06 0 0.66 0.06 0 0.665 0.06 0 0.67 0.06 0 0.675 0.06 0 0.68 0.06 0 0.685 0.06 0 0.69 0.06 0 0.695 0.06 0 0.7 0.06 0 0.705 0.06 0 0.71 0.06 0 0.715 0.06 0 0.72 0.06 0 0.725 0.06 0 0.73 0.06 0 0.735 0.06 0 0.74 0.06 0 0.745 0.06 0 0.75 0.06 0 0.755 0.06 0 0.76 0.06 0 0.765 0.06 0 0.77 0.06 0 0.775 0.06 0 0.78 0.06 0 0.785 0.06 0 0.79 0.06 0 0.795 0.06 0 0.8 0.06 0 0.805 0.06 0 0.81 0.06 0 0.815 0.06 0 0.82 0.06 0 0.825 0.06 0 0.83 0.06 0 0.835 0.06 0 0.84 0.06 0 0.845 0.06 0 0.85 0.06 0 0.855 0.06 0 0.86 0.06 0 0.865 0.06 0 0.87 0.06 0 0.875 0.06 0 0.88 0.06 0 0.885 0.06 0 0.89 0.06 0 0.895 0.06 0 0.9 0.06 0 0.905 0.06 0 0.91 0.06 0 0.915 0.06 0 0.92 0.06 0 0.925 0.06 0 0.93 0.06 0 0.935 0.06 0 0.94 0.06 0 0.945 0.06 0 0.95 0.06 0 0.955 0.06 0 0.96 0.06 0 0.965 0.06 0 0.97 0.06 0 0.975 0.06 0 0.98 0.06 0 0.985 0.06 0 0.99 0.06 0 0.995 0.06 0 1 0.06 0 0 0.08 0 0.005 0.08 0 0.01 0.08 0 0.015 0.08 0 0.02 0.08 0 0.025 0.08 0 0.03 0.08 0 0.035 0.08 0 0.04 0.08 0 0.045 0.08 0 0.05 0.08 0 0.055 0.08 0 0.06 0.08 0 0.065 0.08 0 0.07 0.08 0 0.075 0.08 0 0.08 0.08 0 0.085 0.08 0 0.09 0.08 0 0.095 0.08 0 0.1 0.08 0 0.105 0.08 0 0.11 0.08 0 0.115 0.08 0 0.12 0.08 0 0.125 0.08 0 0.13 0.08 0 0.135 0.08 0 0.14 0.08 0 0.145 0.08 0 0.15 0.08 0 0.155 0.08 0 0.16 0.08 0 0.165 0.08 0
[...]
			<PointData Scalars="VitesseX">
				<DataArray Name="VitesseX" type="Float32" format="ascii">
 0 -8.56871e-15 1.23978e-14 -5.14849e-15 3.60917e-14 6.95952e-15 1.83332e-14 -7.36597e-15 1.56178e-14 -7.42068e-14 2.23961e-14 9.75172e-14 -7.45002e-14 1.38248e-13 -8.77889e-14 3.12458e-14 -1.85196e-14 -1.60723e-13 -1.25287e-14 -4.13375e-15 -2.18987e-13 -2.7387e-14 3.38308e-14 -2.60891e-13 -9.33565e-14 6.26095e-14 -2.4931e-13 -1.37688e-13 -1.77266e-13 3.12479e-14 -1.64067e-13 -6.27055e-14 -2.13246e-13 -1.8229e-13 -2.37013e-13 -5.51874e-14 -1.72731e-13 -5.56186e-14 7.52922e-14 -7.49755e-14 1.66448e-13 5.60543e-14 -1.31845e-13 5.11465e-13 7.78948e-13 9.79171e-12 6.15538e-11 3.65284e-10 2.04893e-09 1.08629e-08 5.43035e-08 2.55251e-07 1.12462e-06 4.62782e-06 1.77121e-05 6.27427e-05 0.000204521 0.000609302 0.00164613 0.00400017 0.00868159 0.0167696 0.0289168 0.0449916 0.0642222 0.0856639 0.108542 0.132335 0.156723 0.181521 0.206602 0.23189 0.257339 0.282921 0.308623 0.334438 0.36037 0.386429 0.412638 0.439012 0.465061 0.490629 0.516054 0.541056 0.56587 0.590592 0.614942 0.639295 0.663205 0.687073 0.710665 0.733837 0.75702 0.779602 0.801611 0.823692 0.844158 0.86421 0.882849 0.897868 0.911441 0.920748 0.92604 0.930131 0.931434 0.931621 0.931752 0.931706 0.931539 0.931244 0.930868 0.93047 0.930098 0.929762 0.929457 0.929193 0.92897 0.928783 0.928636 0.92852 0.928426 0.928342 0.928257 0.928152 0.927992 0.927724 0.927272 0.926569 0.926539 0.92992 0.930724 0.927702 0.927115 0.92724 0.92746 0.927565 0.927653 0.927697 0.927646 0.927552 0.927546 0.927629 0.927627 0.92761 0.927574 0.927479 0.927273 0.926884 0.926115 0.92456 0.921438 0.915271 0.903377 0.881276 0.842429 0.779219 0.686033 0.563955 0.425097 0.288864 0.174217 0.0919393 0.0426411 0.0179155 0.00710112 0.00273623 0.00104104 0.000393682 0.000148344 5.57407e-05 2.08879e-05 7.80475e-06 2.90692e-06 1.07887e-06 3.9884e-07 1.4681e-07 5.37862e-08 1.96049e-08 7.10667e-09 2.56085e-09 9.16797e-10 3.26196e-10 1.14857e-10 3.9811e-11 1.3724e-11 5.00689e-12 1.20876e-12 3.6271e-13 3.59398e-13 1.10303e-14 -3.44341e-13 1.10809e-12 -7.81775e-14 3.73059e-13 -9.86041e-14 3.36252e-13 -6.53066e-13 7.98917e-13 4.08691e-13 -1.09806e-13 0 0 2.43712e-15 9.47565e-15 1.26172e-14 9.89218e-15 2.3537e-14 -9.47732e-15 -1.67367e-14 -3.9847e-14 4.45649e-14 -1.92903e-14 1.84752e-14 1.12231e-13 -1.40574e-13 2.38235e-14 -2.28283e-14 -3.27102e-14 3.58536e-14 -8.5033e-14 -9.07589e-14 8.93081e-15 -3.0261e-14 -2.26688e-13 -1.5217e-14 3.76757e-14 -1.82832e-13 -6.58033e-14 -2.0203e-13 -1.88743e-13 -6.10646e-14 1.49709e-14 -2.85807e-13 -1.18763e-13 -2.6014e-13 -8.74784e-14 -1.85809e-13 -4.40665e-14 -9.88902e-14 2.2909e-14 1.39097e-14 2.84862e-15 -1.57554e-13 1.19836e-13 -8.48224e-14 1.61356e-12 9.5325e-12 6.14309e-11 3.65219e-10 2.04918e-09 1.08631e-08 5.43035e-08 2.55251e-07 1.12462e-06 4.62782e-06 1.77121e-05 6.27427e-05 0.000204521 0.000609302 0.00164613 0.00400017 0.00868159 0.0167696 0.0289168 0.0449916 0.0642222 0.0856639 0.108542 0.132335 0.156723 0.181521 0.206602 0.23189 0.257339 0.282921 0.308623 0.334438 0.36037 0.386429 0.412638 0.439012 0.465061 0.490629 0.516054 0.541056 0.56587 0.590592 0.614942 0.639295 0.663205 0.687073 0.710665 0.733837 0.75702 0.779602 0.801611 0.823692 0.844158 0.86421 0.882849 0.897868 0.911441 0.920748 0.92604 0.930131 0.931434 0.931621 0.931752 0.931706 0.931539 0.931244 0.930868 0.93047 0.930098 0.929762 0.929457 0.929193 0.92897 0.928783 0.928636 0.92852 0.928426 0.928342 0.928257 0.928152 0.927992 0.927724 0.927272 0.926569 0.926539 0.92992 0.930724 0.927702 0.927115 0.92724 0.92746 0.927565 0.927653 0.927697 0.927646 0.927552 0.927546 0.927629 0.927627 0.92761 0.927574 0.927479 0.927273 0.926884 0.926115 0.92456 0.921438 0.915271 0.903377 0.881276 0.842429 0.779219 0.686033 0.563955 0.425097 0.288864 0.174217 0.0919393 0.0426411 0.0179155 0.00710112 0.00273623 0.00104104 0.000393682 0.000148344 5.57407e-05 2.08879e-05 7.80475e-06 2.90692e-06 1.07887e-06 3.9884e-07 1.4681e-07 5.3786e-08 1.9605e-08 7.10696e-09 2.56091e-09 9.17016e-10 3.26023e-10 1.14978e-10 4.01408e-11 1.37827e-11 4.53054e-12 1.68753e-12 3.34542e-13 -1.04276e-13 -4.94903e-13 8.14394e-13 -2.5114e-13 5.08013e-13 -2.55466e-13 5.6681e-13 9.40996e-14 1.21106e-12 4.8294e-14 -2.66141e-13 2.38765e-13 0 0 -2.71117e-15 9.54977e-15 2.18163e-14 -2.19187e-14 -3.82752e-14 2.45756e-14 -9.90925e-15 1.75183e-14 1.51381e-16 -2.43169e-14 -7.91687e-14 1.23374e-14 3.16901e-14 -9.23369e-14 7.72504e-14 -6.52595e-15 -9.38672e-14 -1.34553e-14 4.3902e-14 -2.74348e-14 -3.24537e-14 3.11977e-14 -2.72281e-14 -2.05025e-13 -9.55388e-14 -1.37349e-13 -2.11467e-13 -7.59592e-14 -4.74791e-14 -8.44306e-14 -1.47751e-13 -2.99132e-13 -1.7599e-13 -1.81245e-13 -1.14019e-13 -8.17571e-14 2.16142e-13 -3.09524e-13 -1.33671e-13 6.48806e-14 -2.31621e-13 1.90279e-13 2.94651e-13 1.22225e-12 9.51604e-12 6.16699e-11 3.65286e-10 2.04928e-09 1.0863e-08 5.43036e-08 2.55251e-07 1.12462e-06 4.62782e-06 1.77121e-05 6.27427e-05 0.000204521 0.000609302 0.00164613 0.00400017 0.00868159 0.0167696 0.0289168 0.0449916 0.0642222 0.0856639 0.108542 0.132335 0.156723 0.181521 0.206602 0.23189 0.257339 0.282921 0.308623 0.334438 0.36037 0.386429 0.412638 0.439012 0.465061 0.490629 0.516054 0.541056 0.56587 0.590592 0.614942 0.639295 0.663205 0.687073 0.710665 0.733837 0.75702 0.779602 0.801611 0.823692 0.844158 0.86421 0.882849 0.897868 0.911441 0.920748 0.92604 0.930131 0.931434 0.931621 0.931752 0.931706 0.931539 0.931244 0.930868 0.93047 0.930098 0.929762 0.929457 0.929193 0.92897 0.928783 0.928636 0.92852 0.928426 0.928342 0.928257 0.928152 0.927992 0.927724 0.927272 0.926569 0.926539 0.92992 0.930724 0.927702 0.927115 0.92724 0.92746 0.927565 0.927653 0.927697 0.927646 0.927552 0.927546 0.927629 0.927627 0.92761 0.927574 0.927479 0.927273 0.926884 0.926115 0.92456 0.921438 0.915271 0.903377 0.881276 0.842429 0.779219 0.686033 0.563955 0.425097 0.288864 0.174217 0.0919393 0.0426411 0.0179155 0.00710112 0.00273623 0.00104104 0.000393682 0.000148344 5.57407e-05 2.08879e-05 7.80475e-06 2.90692e-06 1.07887e-06 3.9884e-07 1.4681e-07 5.37865e-08 1.96054e-08 7.10677e-09 2.5612e-09 9.17221e-10 3.26019e-10 1.15013e-10 4.03639e-11 1.38455e-11 4.5917e-12 1.31981e-12 3.15816e-13 -2.10115e-13 -3.61889e-14 -1.63324e-13 -2.15146e-14 2.42518e-13 4.41629e-13 2.31994e-13 4.42118e-13 -2.39364e-13 1.52184e-13 3.90029e-13 6.96774e-14 0 0 -5.69084e-15 -1.09952e-14 -5.244e-15 -3.6948e-14 -6.96494e-14 4.93828e-14 -3.95777e-14 1.15078e-15 6.1564e-15 -4.42161e-14 4.63947e-14 -2.46674e-14 3.09788e-14 1.58121e-16 3.48408e-14 1.86536e-15 -9.5923e-14 -4.46335e-15 -9.53058e-14 -7.66064e-14 4.11742e-14 1.89549e-14 -2.06998e-13 -2.21985e-14 -5.14539e-14 -1.8604e-13 -5.54755e-14 -1.47874e-13 -9.69392e-14 -2.18981e-13 7.01436e-14 -2.14871e-13 -2.67269e-13 -1.35867e-13 -2.50204e-14 -1.83608e-13 -5.53406e-14 -4.85263e-15 -9.80649e-14 -2.1486e-13 -2.09092e-14 -7.27992e-15 3.5824e-13 1.27153e-12 9.85431e-12 6.16043e-11 3.65483e-10 2.04899e-09 1.08631e-08 5.43039e-08 2.55252e-07 1.12462e-06 4.62782e-06 1.77121e-05 6.27427e-05 0.000204521 0.000609302 0.00164613 0.00400017 0.00868159 0.0167696 0.0289168 0.0449916 0.0642222 0.0856639 0.108542 0.132335 0.156723 0.181521 0.206602 0.23189 0.257339 0.282921 0.308623 0.334438 0.36037 0.386429 0.412638 0.439012 0.465061 0.490629 0.516054 0.541056 0.56587 0.590592 0.614942 0.639295 0.663205 0.687073 0.710665 0.733837 0.75702 0.779602 0.801611 0.823692 0.844158 0.86421 0.882849 0.897868 0.911441 0.920748 0.92604 0.930131 0.931434 0.931621 0.931752 0.931706 0.931539 0.931244 0.930868 0.93047 0.930098 0.929762 0.929457 0.929193 0.92897 0.928783 0.928636 0.92852 0.928426 0.928342 0.928257 0.928152 0.927992 0.927724 0.927272 0.926569 0.926539 0.92992 0.930724 0.927702 0.927115 0.92724 0.92746 0.927565 0.927653 0.927697 0.927646 0.927552 0.927546 0.927629 0.927627 0.92761 0.927574 0.927479 0.927273 0.926884 0.926115 0.92456 0.921438 0.915271 0.903377 0.881276 0.842429 0.779219 0.686033 0.563955 0.425097 0.288864 0.174217 0.0919393 0.0426411 0.0179155 0.00710112 0.00273623 0.00104104 0.000393682 0.000148344 5.57407e-05 2.08879e-05 7.80475e-06 2.90692e-06 1.07887e-06 3.9884e-07 1.4681e-07 5.37865e-08 1.9605e-08 7.10713e-09 2.56145e-09 9.17217e-10 3.26249e-10 1.15244e-10 4.02393e-11 1.39201e-11 4.57178e-12 1.17532e-12 -2.10523e-13 7.14526e-14 -2.14437e-13 -1.21857e-13 3.47647e-13 -1.20205e-13 5.80354e-13 -3.28043e-13 -2.0453e-13 -3.19485e-13 -1.47679e-13 2.12476e-13 -6.65459e-14 0 0 -7.8004e-15 -1.86671e-14 -3.30391e-14 -2.08831e-14 -2.76422e-14 -3.67701e-14 -4.36938e-14 -2.96982e-14 9.26958e-14 -6.07788e-14 7.09011e-14 8.95539e-14 -1.07463e-13 1.06094e-13 -3.21101e-14 3.55557e-14 9.90749e-14 -2.81798e-14 -1.8332e-13 -2.42346e-14 -1.03318e-13 -2.63419e-13 -9.96328e-14 8.28315e-14 -1.55424e-13 -4.48309e-14 -6.81495e-14 -1.87648e-13 -1.82866e-13 -4.01987e-15 -1.30681e-13 5.91893e-14 -1.89955e-13 5.99406e-14 -2.81905e-13 3.80974e-14 -1.8943e-13 6.32087e-14 -5.97139e-14 -3.8264e-13 -1.12547e-13 -2.72921e-14 -2.15749e-13 1.68923e-12 9.81077e-12 6.15853e-11 3.65611e-10 2.04929e-09 1.0863e-08 5.43038e-08 2.55252e-07 1.12462e-06 4.62782e-06 1.77121e-05 6.27427e-05 0.000204521 0.000609302 0.00164613 0.00400017 0.00868159 0.0167696 0.0289168 0.0449916 0.0642222 0.0856639 0.108542 0.132335 0.156723 0.181521 0.206602 0.23189 0.257339 0.282921 0.308623 0.334438 0.36037 0.386429 0.412638 0.439012 0.465061 0.490629 0.516054 0.541056 0.56587 0.590592 0.614942 0.639295 0.663205 0.687073 0.710665 0.733837 0.75702 0.779602 0.801611 0.823692 0.844158 0.86421 0.882849 0.897868 0.911441 0.920748 0.92604 0.930131 0.931434 0.931621 0.931752 0.931706 0.931539 0.931244 0.930868 0.93047 0.930098 0.929762 0.929457 0.929193 0.92897 0.928783 0.928636 0.92852 0.928426 0.928342 0.928257 0.928152 0.927992 0.927724 0.927272 0.926569 0.926539 0.92992 0.930724 0.927702 0.927115 0.92724 0.92746 0.927565 0.927653 0.927697 0.927646 0.927552 0.927546 0.927629 0.927627 0.92761 0.927574 0.927479 0.927273 0.926884 0.926115 0.92456 0.921438 0.915271 0.903377 0.881276 0.842429 0.779219 0.686033 0.563955 0.425097 0.288864 0.174217 0.0919393 0.0426411 0.0179155 0.00710112 0.00273623 0.00104104 0.000393682 0.000148344 5.57407e-05 2.08879e-05 7.80475e-06 2.90692e-06 1.07887e-06 3.9884e-07 1.46811e-07 5.3786e-08 1.96052e-08 7.1072e-09 2.56129e-09 9.17183e-10 3.26267e-10 1.15542e-10 4.01279e-11 1.42635e-11 4.54496e-12 1.20823e-12 2.88375e-14 -4.50551e-13 -6.14376e-13 8.43152e-13 -5.82889e-13 2.48678e-13 -1.91678e-13 9.30023e-14 -6.8706e-13 6.35581e-13 -5.30111e-13 -3.10374e-13 1.38794e-13 0 0 -2.30844e-14 -2.79765e-15 -4.23404e-14 4.59957e-15 -3.26503e-14 -8.58668e-14 -1.94302e-15 6.86506e-14 1.00448e-14 -2.07822e-14 -4.87578e-14 -4.58453e-14 2.05892e-13 -1.08238e-13 9.75013e-14 1.0123e-13 -3.01686e-14 8.31938e-14 8.91591e-14 -1.86974e-13 -3.20758e-13 -1.51452e-14 -7.01831e-14 -3.68698e-13 2.92562e-14 -1.09984e-13 -1.81909e-13 -3.12476e-14 -1.13434e-13 6.70517e-14 -1.88243e-13 -2.58625e-14 1.40638e-13 -3.29298e-14 -4.25378e-13 1.95298e-13 3.06266e-13 -4.53452e-13 -2.93435e-13 -4.5048e-14 -2.75355e-13 -3.09837e-14 1.22433e-13 8.31726e-13 9.67171e-12 6.19938e-11 3.65674e-10 2.04973e-09 1.08628e-08 5.43037e-08 2.55252e-07 1.12462e-06 4.62782e-06 1.77121e-05 6.27427e-05 0.000204521 0.000609302 0.00164613 0.00400017 0.00868159 0.0167696 0.0289168 0.0449916 0.0642222 0.0856639 0.108542 0.132335 0.156723 0.181521 0.206602 0.23189 0.257339 0.282921 0.308623 0.334438 0.36037 0.386429 0.412638 0.439012 0.465061 0.490629 0.516054 0.541056 0.56587 0.590592 0.614942 0.639295 0.663205 0.687073 0.710665 0.733837 0.75702 0.779602 0.801611 0.823692 0.844158 0.86421 0.882849 0.897868 0.911441 0.920748 0.92604 0.930131 0.931434 0.931621 0.931752 0.931706 0.931539 0.931244 0.930868 0.93047 0.930098 0.929762 0.929457 0.929193 0.92897 0.928783 0.928636 0.92852 0.928426 0.928342 0.928257 0.928152 0.927992 0.927724 0.927272 0.926569 0.926539 0.92992 0.930724 0.927702 0.927115 0.92724 0.92746 0.927565 0.927653 0.927697 0.927646 0.927552 0.927546 0.927629 0.927627 0.92761 0.927574 0.927479 0.927273 0.926884 0.926115 0.92456 0.921438 0.915271 0.903377 0.881276 0.842429 0.779219 0.686033 0.563955 0.425097 0.288864 0.174217 0.0919393 0.0426411 0.0179155 0.00710112 0.00273623 0.00104104 0.000393682 0.000148344 5.57407e-05 2.08879e-05 7.80475e-06 2.90692e-06 1.07887e-06 3.9884e-07 1.46811e-07 5.37863e-08 1.9606e-08 7.10644e-09 2.56111e-09 9.17141e-10 3.26225e-10 1.15523e-10 4.00342e-11 1.45363e-11 5.07557e-12 5.3912e-13 8.03979e-13 -8.96289e-13 1.28581e-13 -3.69758e-13 -2.93728e-13 1.28598e-13 2.23184e-13 7.38534e-14 6.72309e-14 -1.64378e-12 2.41834e-13 6.75328e-13 -3.73022e-14 0
				</DataArray>
				<DataArray Name="VitesseY" type="Float32" format="ascii">