<?xml version="1.0"?>
<VTKFile type="PolyData">
	<PolyData>
		<Piece NumberOfPoints="1206" NumberOfPolys="1000">
			<Points>
				<DataArray type="Float32" NumberOfComponents="3" format="ascii">
 0 0 0 0.005 0 0 0.01 0 0 0.015 0 0 0.02 0 0 0.025 0 0 0.03 0 0 0.035 0 0 0.04 0 0 0.045 0 0 0.05 0 0 0.055 0 0 0.06 0 0 0.065 0 0 0.07 0 0 0.075 0 0 0.08 0 0 0.085 0 0 0.09 0 0 0.095 0 0 0.1 0 0 0.105 0 0 0.11 0 0 0.115 0 0 0.12 0 0 0.125 0 0 0.13 0 0 0.135 0 0 0.14 0 0 0.145 0 0 0.15 0 0 0.155 0 0 0.16 0 0 0.165 0 0 0.17 0 0 0.175 0 0 0.18 0 0 0.185 0 0 0.19 0 0 0.195 0 0 0.2 0 0 0.205 0 0 0.21 0 0 0.215 0 0 0.22 0 0 0.225 0 0 0.23 0 0 0.235 0 0 0.24 0 0 0.245 0 0 0.25 0 0 0.255 0 0 0.26 0 0 0.265 0 0 0.27 0 0 0.275 0 0 0.28 0 0 0.285 0 0 0.29 0 0 0.295 0 0 0.3 0 0 0.305 0 0 0.31 0 0 0.315 0 0 0.32 0 0 0.325 0 0 0.33 0 0 0.335 0 0 0.34 0 0 0.345 0 0 0.35 0 0 0.355 0 0 0.36 0 0 0.365 0 0 0.37 0 0 0.375 0 0 0.38 0 0 0.385 0 0 0.39 0 0 0.395 0 0 0.4 0 0 0.405 0 0 0.41 0 0 0.415 0 0 0.42 0 0 0.425 0 0 0.43 0 0 0.435 0 0 0.44 0 0 0.445 0 0 0.45 0 0 0.455 0 0 0.46 0 0 0.465 0 0 0.47 0 0 0.475 0 0 0.48 0 0 0.485 0 0 0.49 0 0 0.495 0 0 0.5 0 0 0.505 0 0 0.51 0 0 0.515 0 0 0.52 0 0 0.525 0 0 0.53 0 0 0.535 0 0 0.54 0 0 0.545 0 0 0.55 0 0 0.555 0 0 0.56 0 0 0.565 0 0 0.57 0 0 0.575 0 0 0.58 0 0 0.585 0 0 0.59 0 0 0.595 0 0 0.6 0 0 0.605 0 0 0.61 0 0 0.615 0 0 0.62 0 0 0.625 0 0 0.63 0 0 0.635 0 0 0.64 0 0 0.645 0 0 0.65 0 0 0.655 0 0 0.66 0 0 0.665 0 0 0.67 0 0 0.675 0 0 0.68 0 0 0.685 0 0 0.69 0 0 0.695 0 0 0.7 0 0 0.705 0 0 0.71 0 0 0.715 0 0 0.72 0 0 0.725 0 0 0.73 0 0 0.735 0 0 0.74 0 0 0.745 0 0 0.75 0 0 0.755 0 0 0.76 0 0 0.765 0 0 0.77 0 0 0.775 0 0 0.78 0 0 0.785 0 0 0.79 0 0 0.795 0 0 0.8 0 0 0.805 0 0 0.81 0 0 0.815 0 0 0.82 0 0 0.825 0 0 0.83 0 0 0.835 0 0 0.84 0 0 0.845 0 0 0.85 0 0 0.855 0 0 0.86 0 0 0.865 0 0 0.87 0 0 0.875 0 0 0.88 0 0 0.885 0 0 0.89 0 0 0.895 0 0 0.9 0 0 0.905 0 0 0.91 0 0 0.915 0 0 0.92 0 0 0.925 0 0 0.93 0 0 0.935 0 0 0.94 0 0 0.945 0 0 0.95 0 0 0.955 0 0 0.96 0 0 0.965 0 0 0.97 0 0 0.975 0 0 0.98 0 0 0.985 0 0 0.99 0 0 0.995 0 0 1 0 0 0 0.02 0 0.005 0.02 0 0.01 0.02 0 0.015 0.02 0 0.02 0.02 0 0.025 0.02 0 0.03 0.02 0 0.035 0.02 0 0.04 0.02 0 0.045 0.02 0 0.05 0.02 0 0.055 0.02 0 0.06 0.02 0 0.065 0.02 0 0.07 0.02 0 0.075 0.02 0 0.08 0.02 0 0.085 0.02 0 0.09 0.02 0 0.095 0.02 0 0.1 0.02 0 0.105 0.02 0 0.11 0.02 0 0.115 0.02 0 0.12 0.02 0 0.125 0.02 0 0.13 0.02 0 0.135 0.02 0 0.14 0.02 0 0.145 0.02 0 0.15 0.02 0 0.155 0.02 0 0.16 0.02 0 0.165 0.02 0 0.17 0.02 0 0.175 0.02 0 0.18 0.02 0 0.185 0.02 0 0.19 0.02 0 0.195 0.02 0 0.2 0.02 0 0.205 0.02 0 0.21 0.02 0 0.215 0.02 0 0.22 0.02 0 0.225 0.02 0 0.23 0.02 0 0.235 0.02 0 0.24 0.02 0 0.245 0.02 0 0.25 0.02 0 0.255 0.02 0 0.26 0.02 0 0.265 0.02 0 0.27 0.02 0 0.275 0.02 0 0.28 0.02 0 0.285 0.02 0 0.29 0.02 0 0.295 0.02 0 0.3 0.02 0 0.305 0.02 0 0.31 0.02 0 0.315 0.02 0 0.32 0.02 0 0.325 0.02 0 0.33 0.02 0 0.335 0.02 0 0.34 0.02 0 0.345 0.02 0 0.35 0.02 0 0.355 0.02 0 0.36 0.02 0 0.365 0.02 0 0.37 0.02 0 0.375 0.02 0 0.38 0.02 0 0.385 0.02 0 0.39 0.02 0 0.395 0.02 0 0.4 0.02 0 0.405 0.02 0 0.41 0.02 0 0.415 0.02 0 0.42 0.02 0 0.425 0.02 0 0.43 0.02 0 0.435 0.02 0 0.44 0.02 0 0.445 0.02 0 0.45 0.02 0 0.455 0.02 0 0.46 0.02 0 0.465 0.02 0 0.47 0.02 0 0.475 0.02 0 0.48 0.02 0 0.485 0.02 0 0.49 0.02 0 0.495 0.02 0 0.5 0.02 0 0.505 0.02 0 0.51 0.02 0 0.515 0.02 0 0.52 0.02 0 0.525 0.02 0 0.53 0.02 0 0.535 0.02 0 0.54 0.02 0 0.545 0.02 0 0.55 0.02 0 0.555 0.02 0 0.56 0.02 0 0.565 0.02 0 0.57 0.02 0 0.575 0.02 0 0.58 0.02 0 0.585 0.02 0 0.59 0.02 0 0.595 0.02 0 0.6 0.02 0 0.605 0.02 0 0.61 0.02 0 0.615 0.02 0 0.62 0.02 0 0.625 0.02 0 0.63 0.02 0 0.635 0.02 0 0.64 0.02 0 0.645 0.02 0 0.65 0.02 0 0.655 0.02 0 0.66 0.02 0 0.665 0.02 0 0.67 0.02 0 0.675 0.02 0 0.68 0.02 0 0.685 0.02 0 0.69 0.02 0 0.695 0.02 0 0.7 0.02 0 0.705 0.02 0 0.71 0.02 0 0.715 0.02 0 0.72 0.02 0 0.725 0.02 0 0.73 0.02 0 0.735 0.02 0 0.74 0.02 0 0.745 0.02 0 0.75 0.02 0 0.755 0.02 0 0.76 0.02 0 0.765 0.02 0 0.77 0.02 0 0.775 0.02 0 0.78 0.02 0 0.785 0.02 0 0.79 0.02 0 0.795 0.02 0 0.8 0.02 0 0.805 0.02 0 0.81 0.02 0 0.815 0.02 0 0.82 0.02 0 0.825 0.02 0 0.83 0.02 0 0.835 0.02 0 0.84 0.02 0 0.845 0.02 0 0.85 0.02 0 0.855 0.02 0 0.86 0.02 0 0.865 0.02 0 0.87 0.02 0 0.875 0.02 0 0.88 0.02 0 0.885 0.02 0 0.89 0.02 0 0.895 0.02 0 0.9 0.02 0 0.905 0.02 0 0.91 0.02 0 0.915 0.02 0 0.92 0.02 0 0.925 0.02 0 0.93 0.02 0 0.935 0.02 0 0.94 0.02 0 0.945 0.02 0 0.95 0.02 0 0.955 0.02 0 0.96 0.02 0 0.965 0.02 0 0.97 0.02 0 0.975 0.02 0 0.98 0.02 0 0.985 0.02 0 0.99 0.02 0 0.995 0.02 0 1 0.02 0 0 0.04 0 0.005 0.04 0 0.01 0.04 0 0.015 0.04 0 0.02 0.04 0 0.025 0.04 0 0.03 0.04 0 0.035 0.04 0 0.04 0.04 0 0.045 0.04 0 0.05 0.04 0 0.055 0.04 0 0.06 0.04 0 0.065 0.04 0 0.07 0.04 0 0.075 0.04 0 0.08 0.04 0 0.085 0.04 0 0.09 0.04 0 0.095 0.04 0 0.1 0.04 0 0.105 0.04 0 0.11 0.04 0 0.115 0.04 0 0.12 0.04 0 0.125 0.04 0 0.13 0.04 0 0.135 0.04 0 0.14 0.04 0 0.145 0.04 0 0.15 0.04 0 0.155 0.04 0 0.16 0.04 0 0.165 0.04 0 0.17 0.04 0 0.175 0.04 0 0.18 0.04 0 0.185 0.04 0 0.19 0.04 0 0.195 0.04 0 0.2 0.04 0 0.205 0.04 0 0.21 0.04 0 0.215 0.04 0 0.22 0.04 0 0.225 0.04 0 0.23 0.04 0 0.235 0.04 0 0.24 0.04 0 0.245 0.04 0 0.25 0.04 0 0.255 0.04 0 0.26 0.04 0 0.265 0.04 0 0.27 0.04 0 0.275 0.04 0 0.28 0.04 0 0.285 0.04 0 0.29 0.04 0 0.295 0.04 0 0.3 0.04 0 0.305 0.04 0 0.31 0.04 0 0.315 0.04 0 0.32 0.04 0 0.325 0.04 0 0.33 0.04 0 0.335 0.04 0 0.34 0.04 0 0.345 0.04 0 0.35 0.04 0 0.355 0.04 0 0.36 0.04 0 0.365 0.04 0 0.37 0.04 0 0.375 0.04 0 0.38 0.04 0 0.385 0.04 0 0.39 0.04 0 0.395 0.04 0 0.4 0.04 0 0.405 0.04 0 0.41 0.04 0 0.415 0.04 0 0.42 0.04 0 0.425 0.04 0 0.43 0.04 0 0.435 0.04 0 0.44 0.04 0 0.445 0.04 0 0.45 0.04 0 0.455 0.04 0 0.46 0.04 0 0.465 0.04 0 0.47 0.04 0 0.475 0.04 0 0.48 0.04 0 0.485 0.04 0 0.49 0.04 0 0.495 0.04 0 0.5 0.04 0 0.505 0.04 0 0.51 0.04 0 0.515 0.04 0 0.52 0.04 0 0.525 0.04 0 0.53 0.04 0 0.535 0.04 0 0.54 0.04 0 0.545 0.04 0 0.55 0.04 0 0.555 0.04 0 0.56 0.04 0 0.565 0.04 0 0.57 0.04 0 0.575 0.04 0 0.58 0.04 0 0.585 0.04 0 0.59 0.04 0 0.595 0.04 0 0.6 0.04 0 0.605 0.04 0 0.61 0.04 0 0.615 0.04 0 0.62 0.04 0 0.625 0.04 0 0.63 0.04 0 0.635 0.04 0 0.64 0.04 0 0.645 0.04 0 0.65 0.04 0 0.655 0.04 0 0.66 0.04 0 0.665 0.04 0 0.67 0.04 0 0.675 0.04 0 0.68 0.04 0 0.685 0.04 0 0.69 0.04 0 0.695 0.04 0 0.7 0.04 0 0.705 0.04 0 0.71 0.04 0 0.715 0.04 0 0.72 0.04 0 0.725 0.04 0 0.73 0.04 0 0.735 0.04 0 0.74 0.04 0 0.745 0.04 0 0.75 0.04 0 0.755 0.04 0 0.76 0.04 0 0.765 0.04 0 0.77 0.04 0 0.775 0.04 0 0.78 0.04 0 0.785 0.04 0 0.79 0.04 0 0.795 0.04 0 0.8 0.04 0 0.805 0.04 0 0.81 0.04 0 0.815 0.04 0 0.82 0.04 0 0.825 0.04 0 0.83 0.04 0 0.835 0.04 0 0.84 0.04 0 0.845 0.04 0 0.85 0.04 0 0.855 0.04 0 0.86 0.04 0 0.865 0.04 0 0.87 0.04 0 0.875 0.04 0 0.88 0.04 0 0.885 0.04 0 0.89 0.04 0 0.895 0.04 0 0.9 0.04 0 0.905 0.04 0 0.91 0.04 0 0.915 0.04 0 0.92 0.04 0 0.925 0.04 0 0.93 0.04 0 0.935 0.04 0 0.94 0.04 0 0.945 0.04 0 0.95 0.04 0 0.955 0.04 0 0.96 0.04 0 0.965 0.04 0 0.97 0.04 0 0.975 0.04 0 0.98 0.04 0 0.985 0.04 0 0.99 0.04 0 0.995 0.04 0 1 0.04 0 0 0.06 0 0.005 0.06 0 0.01 0.06 0 0.015 0.06 0 0.02 0.06 0 0.025 0.06 0 0.03 0.06 0 0.035 0.06 0 0.04 0.06 0 0.045 0.06 0 0.05 0.06 0 0.055 0.06 0 0.06 0.06 0 0.065 0.06 0 0.07 0.06 0 0.075 0.06 0 0.08 0.06 0 0.085 0.06 0 0.09 0.06 0 0.095 0.06 0 0.1 0.06 0 0.105 0.06 0 0.11 0.06 0 0.115 0.06 0 0.12 0.06 0 0.125 0.06 0 0.13 0.06 0 0.135 0.06 0 0.14 0.06 0 0.145 0.06 0 0.15 0.06 0 0.155 0.06 0 0.16 0.06 0 0.165 0.06 0 0.17 0.06 0 0.175 0.06 0 0.18 0.06 0 0.185 0.06 0 0.19 0.06 0 0.195 0.06 0 0.2 0.06 0 0.205 0.06 0 0.21 0.06 0 0.215 0.06 0 0.22 0.06 0 0.225 0.06 0 0.23 0.06 0 0.235 0.06 0 0.24 0.06 0 0.245 0.06 0 0.25 0.06 0 0.255 0.06 0 0.26 0.06 0 0.265 0.06 0 0.27 0.06 0 0.275 0.06 0 0.28 0.06 0 0.285 0.06 0 0.29 0.06 0 0.295 0.06 0 0.3 0.06 0 0.305 0.06 0 0.31 0.06 0 0.315 0.06 0 0.32 0.06 0 0.325 0.06 0 0.33 0.06 0 0.335 0.06 0 0.34 0.06 0 0.345 0.06 0 0.35 0.06 0 0.355 0.06 0 0.36 0.06 0 0.365 0.06 0 0.37 0.06 0 0.375 0.06 0 0.38 0.06 0 0.385 0.06 0 0.39 0.06 0 0.395 0.06 0 0.4 0.06 0 0.405 0.06 0 0.41 0.06 0 0.415 0.06 0 0.42 0.06 0 0.425 0.06 0 0.43 0.06 0 0.435 0.06 0 0.44 0.06 0 0.445 0.06 0 0.45 0.06 0 0.455 0.06 0 0.46 0.06 0 0.465 0.06 0 0.47 0.06 0 0.475 0.06 0 0.48 0.06 0 0.485 0.06 0 0.49 0.06 0 0.495 0.06 0 0.5 0.06 0 0.505 0.06 0 0.51 0.06 0 0.515 0.06 0 0.52 0.06 0 0.525 0.06 0 0.53 0.06 0 0.535 0.06 0 0.54 0.06 0 0.545 0.06 0 0.55 0.06 0 0.555 0.06 0 0.56 0.06 0 0.565 0.06 0 0.57 0.06 0 0.575 0.06 0 0.58 0.06 0 0.585 0.06 0 0.59 0.06 0 0.595 0.06 0 0.6 0.06 0 0.605 0.06 0 0.61 0.06 0 0.615 0.06 0 0.62 0.06 0 0.625 0.06 0 0.63 0.06 0 0.635 0.06 0 0.64 0.06 0 0.645 0.06 0 0.65 0.06 0 0.655 0.06 0 0.66 0.06 0 0.665 0.06 0 0.67 0.06 0 0.675 0.06 0 0.68 0.06 0 0.685 0.06 0 0.69 0.06 0 0.695 0.06 0 0.7 0.06 0 0.705 0.06 0 0.71 0.06 0 0.715 0.06 0 0.72 0.06 0 0.725 0.06 0 0.73 0.06 0 0.735 0.06 0 0.74 0.06 0 0.745 0.06 0 0.75 0.06 0 0.755 0.06 0 0.76 0.06 0 0.765 0.06 0 0.77 0.06 0 0.775 0.06 0 0.78 0.06 0 0.785 0.06 0 0.79 0.06 0 0.795 0.06 0 0.8 0.06 0 0.805 0.06 0 0.81 0.06 0 0.815 0.06 0 0.82 0.06 0 0.825 0.06 0 0.83 0.06 0 0.835 0.06 0 0.84 0.06 0 0.845 0.06 0 0.85 0.06 0 0.855 0.06 0 0.86 0.06 0 0.865 0.06 0 0.87 0.06 0 0.875 0.06 0 0.88 0.06 0 0.885 0.06 0 0.89 0.06 0 0.895 0.06 0 0.9 0.06 0 0.905 0.06 0 0.91 0.06 0 0.915 0.06 0 0.92 0.06 0 0.925 0.06 0 0.93 0.06 0 0.935 0.06 0 0.94 0.06 0 0.945 0.06 0 0.95 0.06 0 0.955 0.06 0 0.96 0.06 0 0.965 0.06 0 0.97 0.06 0 0.975 0.06 0 0.98 0.06 0 0.985 0.06 0 0.99 0.06 0 0.995 0.06 0 1 0.06 0 0 0.08 0 0.005 0.08 0 0.01 0.08 0 0.015 0.08 0 0.02 0.08 0 0.025 0.08 0 0.03 0.08 0 0.035 0.08 0 0.04 0.08 0 0.045 0.08 0 0.05 0.08 0 0.055 0.08 0 0.06 0.08 0 0.065 0.08 0 0.07 0.08 0 0.075 0.08 0 0.08 0.08 0 0.085 0.08 0 0.09 0.08 0 0.095 0.08 0 0.1 0.08 0 0.105 0.08 0 0.11 0.08 0 0.115 0.08 0 0.12 0.08 0 0.125 0.08 0 0.13 0.08 0 0.135 0.08 0 0.14 0.08 0 0.145 0.08 0 0.15 0.08 0 0.155 0.08 0 0.16 0.08 0 0.165 0.08 0
[...]
			<PointData Scalars="VitesseX">
				<DataArray Name="VitesseX" type="Float32" format="ascii">
 0 -1.11506e-14 -2.33706e-14 -1.80793e-14 -3.0141e-14 5.25839e-15 6.84528e-15 -1.0899e-13 -9.60679e-15 -1.06267e-13 -1.03898e-13 7.65618e-14 -1.73855e-13 4.32553e-14 -9.56993e-14 -1.52367e-13 -1.21969e-13 -2.1255e-13 4.87447e-14 -7.89793e-14 4.91487e-14 -1.54063e-13 1.44637e-13 7.57865e-14 -2.06706e-13 -8.51843e-14 5.78374e-14 -2.15306e-13 -6.23075e-14 -1.58695e-13 2.61466e-13 -1.86325e-13 -2.47449e-14 5.90436e-14 -2.41852e-13 -3.09466e-13 -1.38117e-14 -5.58093e-14 -3.09768e-13 -6.34244e-14 -2.61031e-13 -1.01428e-13 -3.59541e-13 -1.91003e-13 -4.05273e-13 2.71361e-13 -3.90314e-13 2.53867e-13 -1.09142e-13 -1.02245e-13 2.70985e-13 3.66813e-13 -2.2385e-13 -3.45864e-13 -4.52557e-13 4.27161e-14 -5.05248e-13 9.954e-14 1.39043e-13 -3.34789e-13 7.62772e-14 3.17718e-13 5.26395e-14 1.58295e-13 3.59238e-12 3.42005e-11 2.98578e-10 2.40244e-09 1.7842e-08 1.21895e-07 7.62215e-07 4.3365e-06 2.22907e-05 0.000102647 0.00041908 0.00149789 0.00461917 0.0121163 0.0268066 0.0502643 0.0816229 0.11856 0.158957 0.201456 0.245312 0.290084 0.335545 0.381661 0.428552 0.475636 0.519092 0.563042 0.604274 0.645535 0.685808 0.723801 0.76223 0.797451 0.830282 0.862468 0.885908 0.906572 0.922133 0.927601 0.931757 0.933616 0.933499 0.932985 0.932347 0.931746 0.931166 0.930539 0.929816 0.928975 0.927974 0.926528 0.931251 0.931187 0.92778 0.927394 0.92751 0.927923 0.928108 0.927808 0.926897 0.924923 0.920924 0.912715 0.896315 0.865605 0.812668 0.730158 0.615915 0.478327 0.335747 0.209564 0.114203 0.0540544 0.0227203 0.00883735 0.00329539 0.0012011 0.000431349 0.000153036 5.36625e-05 1.85916e-05 6.36033e-06 2.14728e-06 7.14974e-07 2.3467e-07 7.58918e-08 2.41725e-08 7.58104e-09 2.33955e-09 7.10871e-10 2.12519e-10 6.24726e-11 1.76914e-11 5.01144e-12 1.05079e-12 -4.9636e-13 6.14925e-13 -7.33884e-13 -7.52224e-13 5.7632e-13 -4.41866e-13 -3.1576e-13 -6.56721e-14 -9.49551e-13 1.53121e-12 -2.19938e-13 -2.30207e-13 1.81094e-13 -9.03094e-13 2.92319e-13 -6.27214e-13 -7.51927e-13 4.51007e-13 -5.94815e-13 6.71628e-13 -7.40841e-13 3.04344e-13 4.18421e-13 -2.44951e-13 8.1452e-13 -1.61675e-12 -8.85843e-14 1.44426e-13 -7.33829e-14 2.28723e-13 -1.40571e-12 -6.53349e-13 1.18889e-12 -5.81324e-13 1.45098e-13 -6.61786e-13 1.19024e-12 1.10034e-12 -5.32301e-13 -5.53285e-13 0 0 -5.09182e-15 -3.99395e-15 -6.33975e-15 -3.3757e-14 -4.58148e-14 -4.53833e-14 4.19612e-14 -8.3267e-14 1.67474e-14 -3.23812e-14 -1.53467e-13 9.37806e-14 -1.57224e-13 -6.78392e-14 -9.16035e-14 -1.28096e-13 -2.39909e-14 -1.51435e-13 -7.46035e-14 -1.6443e-13 1.56697e-13 -1.52873e-13 -1.22632e-13 1.24134e-13 4.18137e-14 -2.43024e-13 3.32488e-14 -2.09109e-13 1.26473e-13 -1.73406e-13 1.88674e-13 -5.13526e-14 -1.49863e-13 -1.37133e-13 -7.12258e-14 -1.94589e-13 -2.69315e-13 -5.28098e-16 -1.90198e-13 -2.11914e-13 -4.28551e-13 6.74969e-14 -2.38673e-14 -1.13235e-13 -3.90306e-13 1.37913e-13 -2.91375e-13 1.53861e-13 5.05078e-13 2.65494e-13 -3.38692e-13 -1.02365e-13 -7.12401e-14 -1.30589e-13 -5.09145e-13 7.43223e-14 -3.46665e-13 -1.83494e-13 1.88052e-13 -2.68726e-14 -9.92499e-14 8.10448e-14 4.03353e-13 3.50682e-12 3.43939e-11 2.98947e-10 2.40245e-09 1.78417e-08 1.21895e-07 7.62215e-07 4.3365e-06 2.22907e-05 0.000102647 0.00041908 0.00149789 0.00461917 0.0121163 0.0268066 0.0502643 0.0816229 0.11856 0.158957 0.201456 0.245312 0.290084 0.335545 0.381661 0.428552 0.475636 0.519092 0.563042 0.604274 0.645535 0.685808 0.723801 0.76223 0.797451 0.830282 0.862468 0.885908 0.906572 0.922133 0.927601 0.931757 0.933616 0.933499 0.932985 0.932347 0.931746 0.931166 0.930539 0.929816 0.928975 0.927974 0.926528 0.931251 0.931187 0.92778 0.927394 0.92751 0.927923 0.928108 0.927808 0.926897 0.924923 0.920924 0.912715 0.896315 0.865605 0.812668 0.730158 0.615915 0.478327 0.335747 0.209564 0.114203 0.0540544 0.0227203 0.00883735 0.00329539 0.0012011 0.000431349 0.000153036 5.36625e-05 1.85916e-05 6.36033e-06 2.14728e-06 7.14974e-07 2.3467e-07 7.58912e-08 2.41732e-08 7.58049e-09 2.34041e-09 7.10656e-10 2.12276e-10 6.21763e-11 1.7997e-11 4.91882e-12 1.16131e-12 2.57995e-13 -9.39004e-13 2.86089e-14 -2.91818e-13 -7.68355e-13 2.81019e-13 -4.78676e-13 -1.82697e-13 7.45903e-13 -6.88708e-13 3.28138e-13 -6.14167e-14 -3.15655e-13 8.62027e-14 -7.09084e-13 -2.08991e-13 -1.2552e-13 -6.25933e-13 7.39106e-13 -7.26851e-13 7.03754e-13 -1.64621e-13 3.98371e-14 2.41158e-13 -7.15675e-13 7.13107e-13 -7.8606e-13 -9.80872e-15 -7.29326e-14 -8.77007e-13 5.03255e-13 -3.44676e-13 -2.78118e-13 -3.78005e-13 5.68824e-13 1.06557e-13 -3.97356e-13 -2.38165e-13 1.19866e-12 7.03282e-13 0 0 -1.29671e-14 -2.12518e-14 -1.50019e-14 2.10993e-14 -3.96383e-14 -7.41244e-15 -6.11791e-14 1.52424e-14 3.48462e-14 1.01519e-14 -7.10926e-15 -8.00789e-14 -2.75085e-15 -1.6489e-13 -1.1586e-13 -5.21827e-14 -2.61183e-13 1.98738e-14 -9.12249e-14 3.03752e-14 -2.39085e-13 -3.9297e-14 -2.46835e-14 -1.50812e-13 1.64831e-15 6.00098e-14 5.43708e-15 -5.88706e-14 -6.51311e-14 1.7252e-13 -1.65536e-13 -5.27011e-14 -2.35276e-14 -3.22796e-14 -2.81114e-13 -4.71665e-15 -1.15666e-13 -2.67627e-13 -1.82989e-13 -2.21147e-13 -1.73551e-13 -7.46288e-14 -1.09954e-13 -5.54033e-14 -7.73405e-14 6.61632e-15 1.68111e-14 2.61093e-13 -1.81098e-13 6.10504e-14 6.06243e-14 2.53267e-13 -3.62157e-13 -1.78062e-13 -1.76457e-13 -3.35079e-13 -1.48965e-13 1.24046e-13 -1.53983e-13 -5.99164e-14 8.72692e-14 1.43934e-13 1.55066e-13 3.66815e-12 3.47246e-11 2.98971e-10 2.40231e-09 1.78416e-08 1.21895e-07 7.62215e-07 4.3365e-06 2.22907e-05 0.000102647 0.00041908 0.00149789 0.00461917 0.0121163 0.0268066 0.0502643 0.0816229 0.11856 0.158957 0.201456 0.245312 0.290084 0.335545 0.381661 0.428552 0.475636 0.519092 0.563042 0.604274 0.645535 0.685808 0.723801 0.76223 0.797451 0.830282 0.862468 0.885908 0.906572 0.922133 0.927601 0.931757 0.933616 0.933499 0.932985 0.932347 0.931746 0.931166 0.930539 0.929816 0.928975 0.927974 0.926528 0.931251 0.931187 0.92778 0.927394 0.92751 0.927923 0.928108 0.927808 0.926897 0.924923 0.920924 0.912715 0.896315 0.865605 0.812668 0.730158 0.615915 0.478327 0.335747 0.209564 0.114203 0.0540544 0.0227203 0.00883735 0.00329539 0.0012011 0.000431349 0.000153036 5.36625e-05 1.85916e-05 6.36033e-06 2.14728e-06 7.14974e-07 2.3467e-07 7.58917e-08 2.41728e-08 7.58096e-09 2.34014e-09 7.10953e-10 2.12161e-10 6.24306e-11 1.78072e-11 4.88577e-12 1.32657e-12 2.25328e-14 -2.10209e-13 -4.01226e-13 -2.42731e-13 -2.50923e-13 -8.35178e-13 -1.90313e-13 6.66739e-13 -3.97409e-13 8.64013e-14 -6.65122e-13 1.6359e-13 2.72193e-14 -4.61984e-13 -1.2762e-13 -4.71167e-13 -1.37625e-13 -1.17762e-14 -1.47589e-13 2.66148e-13 2.16082e-13 1.1675e-13 -3.12722e-13 -2.17134e-13 2.91597e-13 -1.8715e-13 8.34694e-13 -9.65315e-13 -6.20207e-13 -1.02559e-13 -7.86081e-13 2.37238e-13 -3.44813e-13 5.68565e-13 2.43793e-13 3.11264e-13 1.70304e-13 -2.12313e-13 -2.82217e-13 3.46984e-13 0 0 -1.70689e-14 -2.69664e-14 -4.94007e-16 1.85087e-14 6.26939e-14 4.55646e-14 1.11218e-14 1.51072e-14 -6.29166e-14 2.47913e-14 1.1867e-14 -8.47959e-14 -5.72388e-14 -8.71181e-14 -1.43773e-13 -9.98419e-14 -1.40258e-13 -1.29735e-13 -3.77218e-14 -1.10112e-13 -1.45392e-13 -4.00351e-14 -3.10631e-14 -3.87108e-14 -1.61711e-14 6.06334e-14 -1.42865e-13 1.36783e-14 4.35245e-14 6.60467e-14 -1.72859e-13 -1.45869e-14 -1.18162e-13 -2.34736e-13 -7.84239e-14 6.65926e-14 -3.43312e-14 -1.82309e-13 -1.84972e-13 -1.6975e-13 -1.38201e-13 -1.77931e-13 -3.91704e-14 -1.37403e-13 -1.44082e-14 -1.97421e-13 1.71962e-13 -2.40986e-13 -2.9429e-13 1.19719e-13 3.45552e-13 5.86638e-14 5.97099e-15 -4.35333e-13 -1.27292e-13 -3.0016e-13 -1.69608e-13 -1.56076e-13 -1.84333e-14 7.71184e-14 1.63996e-13 2.50112e-13 2.8479e-13 3.67363e-12 3.4562e-11 2.99089e-10 2.4023e-09 1.78416e-08 1.21895e-07 7.62215e-07 4.3365e-06 2.22907e-05 0.000102647 0.00041908 0.00149789 0.00461917 0.0121163 0.0268066 0.0502643 0.0816229 0.11856 0.158957 0.201456 0.245312 0.290084 0.335545 0.381661 0.428552 0.475636 0.519092 0.563042 0.604274 0.645535 0.685808 0.723801 0.76223 0.797451 0.830282 0.862468 0.885908 0.906572 0.922133 0.927601 0.931757 0.933616 0.933499 0.932985 0.932347 0.931746 0.931166 0.930539 0.929816 0.928975 0.927974 0.926528 0.931251 0.931187 0.92778 0.927394 0.92751 0.927923 0.928108 0.927808 0.926897 0.924923 0.920924 0.912715 0.896315 0.865605 0.812668 0.730158 0.615915 0.478327 0.335747 0.209564 0.114203 0.0540544 0.0227203 0.00883735 0.00329539 0.0012011 0.000431349 0.000153036 5.36625e-05 1.85916e-05 6.36033e-06 2.14728e-06 7.14974e-07 2.3467e-07 7.58918e-08 2.41728e-08 7.58126e-09 2.34019e-09 7.1097e-10 2.12722e-10 6.25397e-11 1.77259e-11 4.91327e-12 8.35645e-13 -9.5725e-14 5.97693e-13 -1.81852e-13 -6.72861e-14 -2.43124e-13 -3.80603e-13 -2.1552e-13 2.33221e-14 -8.11864e-13 2.21684e-13 -7.25886e-13 -2.25747e-13 3.89537e-14 -4.55489e-13 1.27566e-13 -2.64298e-13 -4.35077e-13 1.64885e-13 -3.84618e-13 8.76106e-13 -1.17161e-13 -1.23688e-13 3.28654e-13 -7.16791e-13 1.56733e-13 -7.19634e-13 -2.21649e-13 8.13444e-14 -2.55835e-13 -7.62865e-13 -3.06904e-13 -2.25783e-13 -1.67095e-13 2.98105e-13 5.36015e-13 -2.64126e-13 7.74099e-13 7.03915e-13 -6.21362e-13 -7.04961e-13 0 0 3.5246e-15 6.97479e-15 1.94509e-14 1.83176e-14 7.30185e-14 4.95849e-14 1.29681e-13 -4.25555e-14 -6.2382e-15 -1.59135e-14 -1.34885e-13 1.06345e-13 -2.19611e-13 -8.53548e-14 -9.35155e-14 -2.12869e-13 8.805e-14 -1.06244e-13 -8.48717e-14 -2.63335e-13 1.29185e-13 -2.21038e-13 -1.3748e-13 2.06647e-13 9.36321e-14 -2.33316e-13 -5.34696e-14 -1.15522e-13 1.8624e-13 -3.60878e-13 6.12438e-14 5.12565e-14 -1.8581e-13 -2.17484e-13 -1.17332e-14 -1.64992e-14 -7.65018e-14 5.8802e-14 -2.57341e-13 -1.81833e-13 -4.22403e-13 -1.31704e-14 2.05715e-13 6.15049e-14 -2.07644e-13 6.2489e-14 -1.61055e-13 -2.14764e-13 2.94141e-13 1.34506e-13 -2.60893e-13 -3.43446e-13 8.67334e-15 -2.28023e-13 -5.07249e-13 5.30184e-15 -5.30604e-13 -1.6669e-13 4.74597e-13 1.19682e-13 -9.65187e-14 2.20514e-13 5.06919e-13 3.59213e-12 3.4586e-11 2.99389e-10 2.40263e-09 1.78419e-08 1.21895e-07 7.62215e-07 4.3365e-06 2.22907e-05 0.000102647 0.00041908 0.00149789 0.00461917 0.0121163 0.0268066 0.0502643 0.0816229 0.11856 0.158957 0.201456 0.245312 0.290084 0.335545 0.381661 0.428552 0.475636 0.519092 0.563042 0.604274 0.645535 0.685808 0.723801 0.76223 0.797451 0.830282 0.862468 0.885908 0.906572 0.922133 0.927601 0.931757 0.933616 0.933499 0.932985 0.932347 0.931746 0.931166 0.930539 0.929816 0.928975 0.927974 0.926528 0.931251 0.931187 0.92778 0.927394 0.92751 0.927923 0.928108 0.927808 0.926897 0.924923 0.920924 0.912715 0.896315 0.865605 0.812668 0.730158 0.615915 0.478327 0.335747 0.209564 0.114203 0.0540544 0.0227203 0.00883735 0.00329539 0.0012011 0.000431349 0.000153036 5.36625e-05 1.85916e-05 6.36033e-06 2.14728e-06 7.14974e-07 2.3467e-07 7.58914e-08 2.41731e-08 7.58082e-09 2.34053e-09 7.11087e-10 2.12584e-10 6.24134e-11 1.81446e-11 5.11405e-12 8.38485e-13 8.52102e-13 -5.9143e-13 1.82187e-13 6.39402e-13 -7.09647e-13 6.25017e-13 -6.35033e-13 -8.77397e-13 3.59239e-13 -1.25513e-12 1.89296e-13 -2.71675e-13 -2.399e-13 -4.91925e-14 -6.73021e-13 1.23161e-13 -4.18664e-13 -4.24152e-13 5.81957e-13 -2.45717e-13 5.66359e-13 -6.91913e-13 8.97837e-14 -2.07334e-13 -9.04289e-13 4.13311e-13 -1.20868e-12 5.82586e-13 2.0586e-13 -8.58385e-13 6.27015e-13 -3.24333e-13 -2.12644e-13 1.15986e-13 4.26726e-13 -2.76652e-14 -3.46253e-13 6.61955e-16 1.023e-12 6.41844e-14 0 0 1.42859e-14 9.996e-15 4.48622e-15 7.91896e-14 3.82608e-14 9.08274e-14 -7.81522e-14 7.20865e-14 4.32878e-14 -1.00242e-13 7.57747e-14 -1.39292e-13 2.74573e-14 -2.86274e-13 -1.00365e-13 -1.96197e-13 -2.30318e-13 4.38345e-13 -2.06522e-13 1.32313e-13 -3.9647e-13 9.78396e-15 5.88493e-14 -2.65882e-13 5.40914e-14 7.60059e-14 -9.21394e-14 -2.02303e-14 -2.56473e-13 9.9467e-14 -4.2654e-13 1.04245e-13 1.76418e-13 2.36018e-15 -5.95862e-13 1.99749e-13 1.67147e-13 -3.61744e-13 -1.93743e-13 -3.03663e-13 -1.59834e-13 -3.14271e-13 1.26594e-13 1.08205e-13 5.10819e-13 -1.33086e-13 2.04205e-13 1.57767e-13 -2.97736e-13 -1.0833e-13 -4.74457e-14 -3.16806e-13 -9.22294e-13 -1.32883e-13 -5.18235e-14 -7.13125e-13 -2.27053e-13 7.32893e-13 -3.27978e-14 9.53162e-14 1.69727e-13 1.1922e-13 1.05979e-13 3.75206e-12 3.49099e-11 2.99224e-10 2.40283e-09 1.78423e-08 1.21895e-07 7.62215e-07 4.3365e-06 2.22907e-05 0.000102647 0.00041908 0.00149789 0.00461917 0.0121163 0.0268066 0.0502643 0.0816229 0.11856 0.158957 0.201456 0.245312 0.290084 0.335545 0.381661 0.428552 0.475636 0.519092 0.563042 0.604274 0.645535 0.685808 0.723801 0.76223 0.797451 0.830282 0.862468 0.885908 0.906572 0.922133 0.927601 0.931757 0.933616 0.933499 0.932985 0.932347 0.931746 0.931166 0.930539 0.929816 0.928975 0.927974 0.926528 0.931251 0.931187 0.92778 0.927394 0.92751 0.927923 0.928108 0.927808 0.926897 0.924923 0.920924 0.912715 0.896315 0.865605 0.812668 0.730158 0.615915 0.478327 0.335747 0.209564 0.114203 0.0540544 0.0227203 0.00883735 0.00329539 0.0012011 0.000431349 0.000153036 5.36625e-05 1.85916e-05 6.36033e-06 2.14728e-06 7.14974e-07 2.3467e-07 7.58918e-08 2.41723e-08 7.5811e-09 2.33968e-09 7.11699e-10 2.12015e-10 6.27285e-11 1.81492e-11 5.34693e-12 1.38698e-12 9.28369e-13 -3.05731e-13 -8.65475e-13 7.59328e-13 6.78138e-13 -6.63022e-13 -5.7806e-13 -1.68238e-13 -8.93968e-13 1.27804e-13 -3.76095e-13 1.2795e-13 3.09135e-13 -1.18687e-12 -1.45926e-13 -3.76647e-13 -7.4331e-13 5.01245e-13 -4.35057e-13 4.13981e-13 -3.49143e-13 -2.69364e-13 -7.64439e-13 -1.42621e-13 7.07022e-13 -1.15137e-12 1.17887e-12 -7.64103e-13 -2.44542e-13 1.58658e-12 -2.11654e-12 3.13378e-13 9.64398e-13 9.47577e-13 -7.23542e-13 2.2055e-13 8.4855e-14 -2.54463e-13 -2.05329e-13 2.7241e-13 0
				</DataArray>
				<DataArray Name="VitesseY" type="Float32" format="ascii">