<?xml version="1.0"?>
<VTKFile type="PolyData">
	<PolyData>
		<Piece NumberOfPoints="1206" NumberOfPolys="1000">
			<Points>
				<DataArray type="Float32" NumberOfComponents="3" format="ascii">
 0 0 0 0.005 0 0 0.01 0 0 0.015 0 0 0.02 0 0 0.025 0 0 0.03 0 0 0.035 0 0 0.04 0 0 0.045 0 0 0.05 0 0 0.055 0 0 0.06 0 0 0.065 0 0 0.07 0 0 0.075 0 0 0.08 0 0 0.085 0 0 0.09 0 0 0.095 0 0 0.1 0 0 0.105 0 0 0.11 0 0 0.115 0 0 0.12 0 0 0.125 0 0 0.13 0 0 0.135 0 0 0.14 0 0 0.145 0 0 0.15 0 0 0.155 0 0 0.16 0 0 0.165 0 0 0.17 0 0 0.175 0 0 0.18 0 0 0.185 0 0 0.19 0 0 0.195 0 0 0.2 0 0 0.205 0 0 0.21 0 0 0.215 0 0 0.22 0 0 0.225 0 0 0.23 0 0 0.235 0 0 0.24 0 0 0.245 0 0 0.25 0 0 0.255 0 0 0.26 0 0 0.265 0 0 0.27 0 0 0.275 0 0 0.28 0 0 0.285 0 0 0.29 0 0 0.295 0 0 0.3 0 0 0.305 0 0 0.31 0 0 0.315 0 0 0.32 0 0 0.325 0 0 0.33 0 0 0.335 0 0 0.34 0 0 0.345 0 0 0.35 0 0 0.355 0 0 0.36 0 0 0.365 0 0 0.37 0 0 0.375 0 0 0.38 0 0 0.385 0 0 0.39 0 0 0.395 0 0 0.4 0 0 0.405 0 0 0.41 0 0 0.415 0 0 0.42 0 0 0.425 0 0 0.43 0 0 0.435 0 0 0.44 0 0 0.445 0 0 0.45 0 0 0.455 0 0 0.46 0 0 0.465 0 0 0.47 0 0 0.475 0 0 0.48 0 0 0.485 0 0 0.49 0 0 0.495 0 0 0.5 0 0 0.505 0 0 0.51 0 0 0.515 0 0 0.52 0 0 0.525 0 0 0.53 0 0 0.535 0 0 0.54 0 0 0.545 0 0 0.55 0 0 0.555 0 0 0.56 0 0 0.565 0 0 0.57 0 0 0.575 0 0 0.58 0 0 0.585 0 0 0.59 0 0 0.595 0 0 0.6 0 0 0.605 0 0 0.61 0 0 0.615 0 0 0.62 0 0 0.625 0 0 0.63 0 0 0.635 0 0 0.64 0 0 0.645 0 0 0.65 0 0 0.655 0 0 0.66 0 0 0.665 0 0 0.67 0 0 0.675 0 0 0.68 0 0 0.685 0 0 0.69 0 0 0.695 0 0 0.7 0 0 0.705 0 0 0.71 0 0 0.715 0 0 0.72 0 0 0.725 0 0 0.73 0 0 0.735 0 0 0.74 0 0 0.745 0 0 0.75 0 0 0.755 0 0 0.76 0 0 0.765 0 0 0.77 0 0 0.775 0 0 0.78 0 0 0.785 0 0 0.79 0 0 0.795 0 0 0.8 0 0 0.805 0 0 0.81 0 0 0.815 0 0 0.82 0 0 0.825 0 0 0.83 0 0 0.835 0 0 0.84 0 0 0.845 0 0 0.85 0 0 0.855 0 0 0.86 0 0 0.865 0 0 0.87 0 0 0.875 0 0 0.88 0 0 0.885 0 0 0.89 0 0 0.895 0 0 0.9 0 0 0.905 0 0 0.91 0 0 0.915 0 0 0.92 0 0 0.925 0 0 0.93 0 0 0.935 0 0 0.94 0 0 0.945 0 0 0.95 0 0 0.955 0 0 0.96 0 0 0.965 0 0 0.97 0 0 0.975 0 0 0.98 0 0 0.985 0 0 0.99 0 0 0.995 0 0 1 0 0 0 0.02 0 0.005 0.02 0 0.01 0.02 0 0.015 0.02 0 0.02 0.02 0 0.025 0.02 0 0.03 0.02 0 0.035 0.02 0 0.04 0.02 0 0.045 0.02 0 0.05 0.02 0 0.055 0.02 0 0.06 0.02 0 0.065 0.02 0 0.07 0.02 0 0.075 0.02 0 0.08 0.02 0 0.085 0.02 0 0.09 0.02 0 0.095 0.02 0 0.1 0.02 0 0.105 0.02 0 0.11 0.02 0 0.115 0.02 0 0.12 0.02 0 0.125 0.02 0 0.13 0.02 0 0.135 0.02 0 0.14 0.02 0 0.145 0.02 0 0.15 0.02 0 0.155 0.02 0 0.16 0.02 0 0.165 0.02 0 0.17 0.02 0 0.175 0.02 0 0.18 0.02 0 0.185 0.02 0 0.19 0.02 0 0.195 0.02 0 0.2 0.02 0 0.205 0.02 0 0.21 0.02 0 0.215 0.02 0 0.22 0.02 0 0.225 0.02 0 0.23 0.02 0 0.235 0.02 0 0.24 0.02 0 0.245 0.02 0 0.25 0.02 0 0.255 0.02 0 0.26 0.02 0 0.265 0.02 0 0.27 0.02 0 0.275 0.02 0 0.28 0.02 0 0.285 0.02 0 0.29 0.02 0 0.295 0.02 0 0.3 0.02 0 0.305 0.02 0 0.31 0.02 0 0.315 0.02 0 0.32 0.02 0 0.325 0.02 0 0.33 0.02 0 0.335 0.02 0 0.34 0.02 0 0.345 0.02 0 0.35 0.02 0 0.355 0.02 0 0.36 0.02 0 0.365 0.02 0 0.37 0.02 0 0.375 0.02 0 0.38 0.02 0 0.385 0.02 0 0.39 0.02 0 0.395 0.02 0 0.4 0.02 0 0.405 0.02 0 0.41 0.02 0 0.415 0.02 0 0.42 0.02 0 0.425 0.02 0 0.43 0.02 0 0.435 0.02 0 0.44 0.02 0 0.445 0.02 0 0.45 0.02 0 0.455 0.02 0 0.46 0.02 0 0.465 0.02 0 0.47 0.02 0 0.475 0.02 0 0.48 0.02 0 0.485 0.02 0 0.49 0.02 0 0.495 0.02 0 0.5 0.02 0 0.505 0.02 0 0.51 0.02 0 0.515 0.02 0 0.52 0.02 0 0.525 0.02 0 0.53 0.02 0 0.535 0.02 0 0.54 0.02 0 0.545 0.02 0 0.55 0.02 0 0.555 0.02 0 0.56 0.02 0 0.565 0.02 0 0.57 0.02 0 0.575 0.02 0 0.58 0.02 0 0.585 0.02 0 0.59 0.02 0 0.595 0.02 0 0.6 0.02 0 0.605 0.02 0 0.61 0.02 0 0.615 0.02 0 0.62 0.02 0 0.625 0.02 0 0.63 0.02 0 0.635 0.02 0 0.64 0.02 0 0.645 0.02 0 0.65 0.02 0 0.655 0.02 0 0.66 0.02 0 0.665 0.02 0 0.67 0.02 0 0.675 0.02 0 0.68 0.02 0 0.685 0.02 0 0.69 0.02 0 0.695 0.02 0 0.7 0.02 0 0.705 0.02 0 0.71 0.02 0 0.715 0.02 0 0.72 0.02 0 0.725 0.02 0 0.73 0.02 0 0.735 0.02 0 0.74 0.02 0 0.745 0.02 0 0.75 0.02 0 0.755 0.02 0 0.76 0.02 0 0.765 0.02 0 0.77 0.02 0 0.775 0.02 0 0.78 0.02 0 0.785 0.02 0 0.79 0.02 0 0.795 0.02 0 0.8 0.02 0 0.805 0.02 0 0.81 0.02 0 0.815 0.02 0 0.82 0.02 0 0.825 0.02 0 0.83 0.02 0 0.835 0.02 0 0.84 0.02 0 0.845 0.02 0 0.85 0.02 0 0.855 0.02 0 0.86 0.02 0 0.865 0.02 0 0.87 0.02 0 0.875 0.02 0 0.88 0.02 0 0.885 0.02 0 0.89 0.02 0 0.895 0.02 0 0.9 0.02 0 0.905 0.02 0 0.91 0.02 0 0.915 0.02 0 0.92 0.02 0 0.925 0.02 0 0.93 0.02 0 0.935 0.02 0 0.94 0.02 0 0.945 0.02 0 0.95 0.02 0 0.955 0.02 0 0.96 0.02 0 0.965 0.02 0 0.97 0.02 0 0.975 0.02 0 0.98 0.02 0 0.985 0.02 0 0.99 0.02 0 0.995 0.02 0 1 0.02 0 0 0.04 0 0.005 0.04 0 0.01 0.04 0 0.015 0.04 0 0.02 0.04 0 0.025 0.04 0 0.03 0.04 0 0.035 0.04 0 0.04 0.04 0 0.045 0.04 0 0.05 0.04 0 0.055 0.04 0 0.06 0.04 0 0.065 0.04 0 0.07 0.04 0 0.075 0.04 0 0.08 0.04 0 0.085 0.04 0 0.09 0.04 0 0.095 0.04 0 0.1 0.04 0 0.105 0.04 0 0.11 0.04 0 0.115 0.04 0 0.12 0.04 0 0.125 0.04 0 0.13 0.04 0 0.135 0.04 0 0.14 0.04 0 0.145 0.04 0 0.15 0.04 0 0.155 0.04 0 0.16 0.04 0 0.165 0.04 0 0.17 0.04 0 0.175 0.04 0 0.18 0.04 0 0.185 0.04 0 0.19 0.04 0 0.195 0.04 0 0.2 0.04 0 0.205 0.04 0 0.21 0.04 0 0.215 0.04 0 0.22 0.04 0 0.225 0.04 0 0.23 0.04 0 0.235 0.04 0 0.24 0.04 0 0.245 0.04 0 0.25 0.04 0 0.255 0.04 0 0.26 0.04 0 0.265 0.04 0 0.27 0.04 0 0.275 0.04 0 0.28 0.04 0 0.285 0.04 0 0.29 0.04 0 0.295 0.04 0 0.3 0.04 0 0.305 0.04 0 0.31 0.04 0 0.315 0.04 0 0.32 0.04 0 0.325 0.04 0 0.33 0.04 0 0.335 0.04 0 0.34 0.04 0 0.345 0.04 0 0.35 0.04 0 0.355 0.04 0 0.36 0.04 0 0.365 0.04 0 0.37 0.04 0 0.375 0.04 0 0.38 0.04 0 0.385 0.04 0 0.39 0.04 0 0.395 0.04 0 0.4 0.04 0 0.405 0.04 0 0.41 0.04 0 0.415 0.04 0 0.42 0.04 0 0.425 0.04 0 0.43 0.04 0 0.435 0.04 0 0.44 0.04 0 0.445 0.04 0 0.45 0.04 0 0.455 0.04 0 0.46 0.04 0 0.465 0.04 0 0.47 0.04 0 0.475 0.04 0 0.48 0.04 0 0.485 0.04 0 0.49 0.04 0 0.495 0.04 0 0.5 0.04 0 0.505 0.04 0 0.51 0.04 0 0.515 0.04 0 0.52 0.04 0 0.525 0.04 0 0.53 0.04 0 0.535 0.04 0 0.54 0.04 0 0.545 0.04 0 0.55 0.04 0 0.555 0.04 0 0.56 0.04 0 0.565 0.04 0 0.57 0.04 0 0.575 0.04 0 0.58 0.04 0 0.585 0.04 0 0.59 0.04 0 0.595 0.04 0 0.6 0.04 0 0.605 0.04 0 0.61 0.04 0 0.615 0.04 0 0.62 0.04 0 0.625 0.04 0 0.63 0.04 0 0.635 0.04 0 0.64 0.04 0 0.645 0.04 0 0.65 0.04 0 0.655 0.04 0 0.66 0.04 0 0.665 0.04 0 0.67 0.04 0 0.675 0.04 0 0.68 0.04 0 0.685 0.04 0 0.69 0.04 0 0.695 0.04 0 0.7 0.04 0 0.705 0.04 0 0.71 0.04 0 0.715 0.04 0 0.72 0.04 0 0.725 0.04 0 0.73 0.04 0 0.735 0.04 0 0.74 0.04 0 0.745 0.04 0 0.75 0.04 0 0.755 0.04 0 0.76 0.04 0 0.765 0.04 0 0.77 0.04 0 0.775 0.04 0 0.78 0.04 0 0.785 0.04 0 0.79 0.04 0 0.795 0.04 0 0.8 0.04 0 0.805 0.04 0 0.81 0.04 0 0.815 0.04 0 0.82 0.04 0 0.825 0.04 0 0.83 0.04 0 0.835 0.04 0 0.84 0.04 0 0.845 0.04 0 0.85 0.04 0 0.855 0.04 0 0.86 0.04 0 0.865 0.04 0 0.87 0.04 0 0.875 0.04 0 0.88 0.04 0 0.885 0.04 0 0.89 0.04 0 0.895 0.04 0 0.9 0.04 0 0.905 0.04 0 0.91 0.04 0 0.915 0.04 0 0.92 0.04 0 0.925 0.04 0 0.93 0.04 0 0.935 0.04 0 0.94 0.04 0 0.945 0.04 0 0.95 0.04 0 0.955 0.04 0 0.96 0.04 0 0.965 0.04 0 0.97 0.04 0 0.975 0.04 0 0.98 0.04 0 0.985 0.04 0 0.99 0.04 0 0.995 0.04 0 1 0.04 0 0 0.06 0 0.005 0.06 0 0.01 0.06 0 0.015 0.06 0 0.02 0.06 0 0.025 0.06 0 0.03 0.06 0 0.035 0.06 0 0.04 0.06 0 0.045 0.06 0 0.05 0.06 0 0.055 0.06 0 0.06 0.06 0 0.065 0.06 0 0.07 0.06 0 0.075 0.06 0 0.08 0.06 0 0.085 0.06 0 0.09 0.06 0 0.095 0.06 0 0.1 0.06 0 0.105 0.06 0 0.11 0.06 0 0.115 0.06 0 0.12 0.06 0 0.125 0.06 0 0.13 0.06 0 0.135 0.06 0 0.14 0.06 0 0.145 0.06 0 0.15 0.06 0 0.155 0.06 0 0.16 0.06 0 0.165 0.06 0 0.17 0.06 0 0.175 0.06 0 0.18 0.06 0 0.185 0.06 0 0.19 0.06 0 0.195 0.06 0 0.2 0.06 0 0.205 0.06 0 0.21 0.06 0 0.215 0.06 0 0.22 0.06 0 0.225 0.06 0 0.23 0.06 0 0.235 0.06 0 0.24 0.06 0 0.245 0.06 0 0.25 0.06 0 0.255 0.06 0 0.26 0.06 0 0.265 0.06 0 0.27 0.06 0 0.275 0.06 0 0.28 0.06 0 0.285 0.06 0 0.29 0.06 0 0.295 0.06 0 0.3 0.06 0 0.305 0.06 0 0.31 0.06 0 0.315 0.06 0 0.32 0.06 0 0.325 0.06 0 0.33 0.06 0 0.335 0.06 0 0.34 0.06 0 0.345 0.06 0 0.35 0.06 0 0.355 0.06 0 0.36 0.06 0 0.365 0.06 0 0.37 0.06 0 0.375 0.06 0 0.38 0.06 0 0.385 0.06 0 0.39 0.06 0 0.395 0.06 0 0.4 0.06 0 0.405 0.06 0 0.41 0.06 0 0.415 0.06 0 0.42 0.06 0 0.425 0.06 0 0.43 0.06 0 0.435 0.06 0 0.44 0.06 0 0.445 0.06 0 0.45 0.06 0 0.455 0.06 0 0.46 0.06 0 0.465 0.06 0 0.47 0.06 0 0.475 0.06 0 0.48 0.06 0 0.485 0.06 0 0.49 0.06 0 0.495 0.06 0 0.5 0.06 0 0.505 0.06 0 0.51 0.06 0 0.515 0.06 0 0.52 0.06 0 0.525 0.06 0 0.53 0.06 0 0.535 0.06 0 0.54 0.06 0 0.545 0.06 0 0.55 0.06 0 0.555 0.06 0 0.56 0.06 0 0.565 0.06 0 0.57 0.06 0 0.575 0.06 0 0.58 0.06 0 0.585 0.06 0 0.59 0.06 0 0.595 0.06 0 0.6 0.06 0 0.605 0.06 0 0.61 0.06 0 0.615 0.06 0 0.62 0.06 0 0.625 0.06 0 0.63 0.06 0 0.635 0.06 0 0.64 0.06 0 0.645 0.06 0 0.65 0.06 0 0.655 0.06 0 0.66 0.06 0 0.665 0.06 0 0.67 0.06 0 0.675 0.06 0 0.68 0.06 0 0.685 0.06 0 0.69 0.06 0 0.695 0.06 0 0.7 0.06 0 0.705 0.06 0 0.71 0.06 0 0.715 0.06 0 0.72 0.06 0 0.725 0.06 0 0.73 0.06 0 0.735 0.06 0 0.74 0.06 0 0.745 0.06 0 0.75 0.06 0 0.755 0.06 0 0.76 0.06 0 0.765 0.06 0 0.77 0.06 0 0.775 0.06 0 0.78 0.06 0 0.785 0.06 0 0.79 0.06 0 0.795 0.06 0 0.8 0.06 0 0.805 0.06 0 0.81 0.06 0 0.815 0.06 0 0.82 0.06 0 0.825 0.06 0 0.83 0.06 0 0.835 0.06 0 0.84 0.06 0 0.845 0.06 0 0.85 0.06 0 0.855 0.06 0 0.86 0.06 0 0.865 0.06 0 0.87 0.06 0 0.875 0.06 0 0.88 0.06 0 0.885 0.06 0 0.89 0.06 0 0.895 0.06 0 0.9 0.06 0 0.905 0.06 0 0.91 0.06 0 0.915 0.06 0 0.92 0.06 0 0.925 0.06 0 0.93 0.06 0 0.935 0.06 0 0.94 0.06 0 0.945 0.06 0 0.95 0.06 0 0.955 0.06 0 0.96 0.06 0 0.965 0.06 0 0.97 0.06 0 0.975 0.06 0 0.98 0.06 0 0.985 0.06 0 0.99 0.06 0 0.995 0.06 0 1 0.06 0 0 0.08 0 0.005 0.08 0 0.01 0.08 0 0.015 0.08 0 0.02 0.08 0 0.025 0.08 0 0.03 0.08 0 0.035 0.08 0 0.04 0.08 0 0.045 0.08 0 0.05 0.08 0 0.055 0.08 0 0.06 0.08 0 0.065 0.08 0 0.07 0.08 0 0.075 0.08 0 0.08 0.08 0 0.085 0.08 0 0.09 0.08 0 0.095 0.08 0 0.1 0.08 0 0.105 0.08 0 0.11 0.08 0 0.115 0.08 0 0.12 0.08 0 0.125 0.08 0 0.13 0.08 0 0.135 0.08 0 0.14 0.08 0 0.145 0.08 0 0.15 0.08 0 0.155 0.08 0 0.16 0.08 0 0.165 0.08 0
[...]
			<PointData Scalars="VitesseX">
				<DataArray Name="VitesseX" type="Float32" format="ascii">
 0 -1.28966e-14 -1.3843e-14 -7.71423e-15 -6.1102e-14 6.24607e-15 6.51561e-16 -7.11565e-14 -4.2432e-14 -1.13661e-13 -1.29779e-13 6.06741e-14 -8.22834e-14 3.09803e-15 -9.60707e-14 -1.24282e-13 -1.98268e-13 -1.49815e-13 -2.00505e-14 -1.00159e-13 7.64907e-14 -1.62747e-13 7.04471e-14 2.18172e-13 -1.52464e-13 -4.59207e-14 6.42296e-14 -2.63206e-13 2.22074e-14 -2.05944e-13 1.58297e-13 -1.36379e-13 -5.67412e-14 6.38319e-14 -1.99025e-13 -1.8977e-13 -1.77718e-13 9.00222e-14 -2.91789e-13 -6.10691e-14 -1.50811e-13 -1.80286e-13 -3.29084e-13 -1.08972e-14 -4.09284e-13 -1.35349e-13 -4.39406e-13 3.79164e-13 -1.54653e-13 -3.34289e-13 -8.9685e-14 5.42394e-13 1.9964e-13 -6.24925e-13 -2.40623e-14 1.80124e-13 -3.71151e-13 1.31753e-13 -7.97379e-14 -1.66137e-13 -1.00078e-13 2.79012e-13 -1.08632e-13 -1.26672e-13 9.42791e-14 -2.96214e-13 -2.6199e-14 4.28075e-12 4.63854e-11 4.33627e-10 3.72095e-09 2.93187e-08 2.11009e-07 1.37894e-06 8.12542e-06 4.2812e-05 0.000199644 0.000813596 0.00285343 0.00846901 0.0209792 0.0432623 0.0754926 0.115248 0.159747 0.207098 0.256262 0.306656 0.358001 0.410336 0.463674 0.513391 0.562013 0.607861 0.654043 0.697168 0.73946 0.780658 0.816533 0.851982 0.881557 0.901578 0.920066 0.929057 0.931178 0.933394 0.93383 0.933561 0.932814 0.931799 0.930814 0.929906 0.928848 0.927102 0.930847 0.931845 0.927994 0.927403 0.927787 0.928323 0.928104 0.926775 0.92381 0.918217 0.906905 0.884468 0.843454 0.775614 0.675552 0.546085 0.402022 0.264787 0.153198 0.0767392 0.0335635 0.0132845 0.00495817 0.00179212 0.000634978 0.000221501 7.6151e-05 2.57986e-05 8.60817e-06 2.82724e-06 9.13501e-07 2.90231e-07 9.06333e-08 2.78108e-08 8.38238e-09 2.48161e-09 7.21379e-10 2.05166e-10 5.80731e-11 1.5241e-11 4.67702e-12 8.50236e-14 2.80686e-14 4.70641e-13 -2.27861e-13 3.47036e-13 -7.48249e-13 -5.03948e-13 -5.09771e-13 2.44082e-13 3.91815e-13 -2.64395e-13 -1.19904e-12 7.85629e-13 -4.72365e-13 9.29932e-13 1.17058e-13 -3.50184e-13 -9.89925e-14 1.4585e-13 -4.56007e-13 -2.68016e-13 1.38243e-13 -5.65353e-13 -1.10599e-12 7.55061e-13 -6.32114e-13 7.14409e-13 3.60881e-13 -1.07456e-12 8.04479e-13 -7.06994e-13 5.89711e-13 -1.02252e-12 -7.16347e-13 5.45862e-13 -1.29349e-12 -5.50723e-14 -8.04544e-14 -3.23912e-13 -4.17936e-13 1.6235e-13 -1.52774e-13 5.30947e-13 -2.32658e-13 5.96391e-13 0 0 -1.77878e-16 -3.51205e-15 -1.81859e-14 2.22799e-15 -8.18078e-14 -6.80054e-14 -1.005e-14 -5.44904e-14 3.5937e-14 -1.68971e-14 -1.43083e-13 2.05978e-14 -1.25351e-13 -9.10426e-14 -7.52063e-14 -3.91509e-14 -1.23245e-13 -1.40066e-13 -6.73869e-14 -2.12373e-13 1.73584e-13 -9.79314e-14 -2.52566e-13 2.52195e-13 7.5263e-14 -1.91964e-13 3.39749e-14 -2.81807e-13 1.78448e-13 -2.00376e-13 7.72775e-14 -7.81057e-15 -1.31562e-13 -1.47473e-13 -1.37156e-13 2.04835e-15 -2.60483e-13 -2.9238e-14 -2.00567e-13 -1.88507e-13 -3.52817e-13 5.0613e-14 -1.80979e-13 -5.98387e-14 -3.38877e-13 1.70965e-13 -4.8276e-13 3.55675e-13 3.27494e-13 1.96001e-13 -3.92745e-13 -2.48624e-13 4.09597e-13 -7.63299e-14 -5.37422e-13 1.89454e-13 -4.47311e-13 -1.27193e-13 1.57794e-13 -9.28144e-14 -1.96664e-13 -2.00178e-14 7.40855e-14 -1.55233e-13 2.50721e-14 1.77757e-13 4.5576e-12 4.65402e-11 4.33593e-10 3.72114e-09 2.93182e-08 2.1101e-07 1.37894e-06 8.12542e-06 4.2812e-05 0.000199644 0.000813596 0.00285343 0.00846901 0.0209792 0.0432623 0.0754926 0.115248 0.159747 0.207098 0.256262 0.306656 0.358001 0.410336 0.463674 0.513391 0.562013 0.607861 0.654043 0.697168 0.73946 0.780658 0.816533 0.851982 0.881557 0.901578 0.920066 0.929057 0.931178 0.933394 0.93383 0.933561 0.932814 0.931799 0.930814 0.929906 0.928848 0.927102 0.930847 0.931845 0.927994 0.927403 0.927787 0.928323 0.928104 0.926775 0.92381 0.918217 0.906905 0.884468 0.843454 0.775614 0.675552 0.546085 0.402022 0.264787 0.153198 0.0767392 0.0335635 0.0132845 0.00495817 0.00179212 0.000634978 0.000221501 7.6151e-05 2.57986e-05 8.60817e-06 2.82724e-06 9.13501e-07 2.9023e-07 9.06341e-08 2.78101e-08 8.38283e-09 2.48138e-09 7.20961e-10 2.0617e-10 5.69623e-11 1.59376e-11 3.53332e-12 1.48387e-12 -9.64265e-14 -4.32099e-13 3.47003e-13 -7.08582e-13 -2.20494e-14 -4.83709e-13 4.7119e-14 -2.02458e-13 -7.23645e-13 -5.34142e-13 3.34585e-13 -1.00224e-13 8.69719e-13 -7.37315e-13 8.08077e-14 3.85081e-13 1.52255e-14 2.3686e-13 -2.62223e-13 -5.98141e-13 -5.80493e-13 -3.32316e-13 2.40431e-13 -6.46722e-13 5.46264e-13 -6.55949e-14 -6.97656e-14 2.53469e-13 -5.76121e-13 6.48258e-13 -6.38083e-13 1.0202e-13 -1.82232e-13 -9.56886e-13 4.22531e-13 -2.37172e-13 -7.39427e-13 3.16596e-13 -4.10226e-13 -2.08654e-13 4.38902e-13 -1.99492e-13 2.10375e-13 -3.90251e-14 0 0 -1.39546e-14 -2.57944e-14 -2.58053e-14 -4.58471e-14 -2.58286e-14 -9.43482e-15 -7.77066e-14 -1.32613e-14 1.74421e-14 -5.78691e-14 9.82631e-14 -7.34379e-14 -3.3495e-14 -1.67083e-13 -6.78928e-14 -3.84161e-14 -2.15398e-13 -8.26824e-14 -8.95661e-14 -5.11002e-14 -1.47627e-13 -1.21132e-13 -1.57892e-15 -2.51901e-14 -1.13793e-14 7.00661e-14 5.71476e-14 -1.02555e-13 -7.56273e-14 6.41269e-14 -1.60875e-13 -6.03564e-14 -6.80346e-14 -1.21221e-14 -2.00132e-13 -5.50396e-14 3.09007e-14 -2.48278e-13 -2.12857e-13 -1.16718e-13 -3.45326e-13 -1.47143e-13 -2.36454e-14 -2.48502e-13 2.84154e-13 -2.53388e-13 1.70992e-13 2.37325e-13 -4.46643e-14 -1.29296e-14 1.21034e-13 1.68056e-13 -3.46151e-13 -1.30627e-13 4.42466e-14 -5.96614e-13 -1.25562e-13 1.14227e-13 -1.5063e-13 -1.89158e-14 -8.11388e-14 2.99643e-14 -4.0068e-14 -1.6368e-13 -9.73119e-14 3.51455e-13 4.85595e-12 4.66315e-11 4.33727e-10 3.72092e-09 2.93185e-08 2.11009e-07 1.37894e-06 8.12542e-06 4.2812e-05 0.000199644 0.000813596 0.00285343 0.00846901 0.0209792 0.0432623 0.0754926 0.115248 0.159747 0.207098 0.256262 0.306656 0.358001 0.410336 0.463674 0.513391 0.562013 0.607861 0.654043 0.697168 0.73946 0.780658 0.816533 0.851982 0.881557 0.901578 0.920066 0.929057 0.931178 0.933394 0.93383 0.933561 0.932814 0.931799 0.930814 0.929906 0.928848 0.927102 0.930847 0.931845 0.927994 0.927403 0.927787 0.928323 0.928104 0.926775 0.92381 0.918217 0.906905 0.884468 0.843454 0.775614 0.675552 0.546085 0.402022 0.264787 0.153198 0.0767392 0.0335635 0.0132845 0.00495817 0.00179212 0.000634978 0.000221501 7.6151e-05 2.57986e-05 8.60817e-06 2.82724e-06 9.13501e-07 2.9023e-07 9.06334e-08 2.78105e-08 8.38271e-09 2.48149e-09 7.21072e-10 2.05353e-10 5.7756e-11 1.54308e-11 4.1371e-12 8.75529e-13 -6.60015e-14 -2.80676e-13 -2.25685e-13 -9.42224e-14 -6.5906e-13 2.31744e-13 -2.08447e-13 -1.33514e-13 -6.15946e-13 -6.13326e-13 -2.0085e-13 3.82699e-13 -1.94264e-13 5.41032e-14 -2.91884e-13 3.14839e-13 2.92438e-13 -2.26825e-13 -1.08639e-13 -5.64328e-13 -5.68777e-13 -2.17006e-14 -1.16061e-13 -2.75321e-14 2.38177e-13 1.90795e-13 -5.5884e-14 -1.07296e-13 9.64051e-14 9.63949e-14 3.04438e-13 -2.18049e-13 -6.50325e-13 1.36337e-13 -7.95572e-14 -7.98157e-13 -2.95106e-13 2.1733e-13 1.48891e-13 2.10608e-13 1.53032e-13 -1.16215e-13 1.80154e-13 2.66604e-13 0 0 -1.40906e-14 -3.28873e-14 -3.89485e-14 -6.2259e-14 1.57983e-14 7.69401e-14 4.58822e-14 -2.23631e-14 -4.87317e-14 -4.35444e-14 2.63589e-14 -1.82448e-14 -6.44557e-14 -1.01243e-13 -1.30967e-13 -3.94963e-14 -1.46105e-13 -2.1659e-13 -1.27613e-13 -4.98419e-14 -1.59799e-13 9.21574e-14 -9.10208e-14 -7.65466e-14 9.74362e-14 5.75676e-14 -1.80105e-13 4.16681e-14 -1.86478e-14 -5.04714e-14 -6.19211e-14 -1.2255e-13 1.1863e-15 -1.34156e-13 4.13213e-14 -1.78004e-13 6.39814e-14 -1.80313e-13 -5.48475e-14 -6.4826e-14 -3.34044e-13 -2.03196e-13 2.57503e-13 -2.16902e-13 -9.44028e-14 -3.10208e-13 4.81235e-14 -2.51388e-13 -2.26413e-13 9.23018e-14 3.94619e-13 2.37672e-13 -1.52427e-13 -3.6265e-13 -4.57238e-14 -3.16079e-13 -2.46596e-13 -2.12754e-13 -1.23928e-13 3.0082e-13 -1.14555e-13 2.51635e-13 -1.16513e-13 -1.54684e-13 -5.09397e-14 1.76262e-13 4.75308e-12 4.68668e-11 4.33799e-10 3.7208e-09 2.93187e-08 2.11009e-07 1.37894e-06 8.12542e-06 4.2812e-05 0.000199644 0.000813596 0.00285343 0.00846901 0.0209792 0.0432623 0.0754926 0.115248 0.159747 0.207098 0.256262 0.306656 0.358001 0.410336 0.463674 0.513391 0.562013 0.607861 0.654043 0.697168 0.73946 0.780658 0.816533 0.851982 0.881557 0.901578 0.920066 0.929057 0.931178 0.933394 0.93383 0.933561 0.932814 0.931799 0.930814 0.929906 0.928848 0.927102 0.930847 0.931845 0.927994 0.927403 0.927787 0.928323 0.928104 0.926775 0.92381 0.918217 0.906905 0.884468 0.843454 0.775614 0.675552 0.546085 0.402022 0.264787 0.153198 0.0767392 0.0335635 0.0132845 0.00495817 0.00179212 0.000634978 0.000221501 7.6151e-05 2.57986e-05 8.60817e-06 2.82724e-06 9.13501e-07 2.9023e-07 9.06335e-08 2.78103e-08 8.3826e-09 2.48136e-09 7.21461e-10 2.05613e-10 5.77803e-11 1.52195e-11 4.43932e-12 4.47913e-13 5.78409e-13 7.01475e-13 -6.94337e-13 -1.61122e-13 -1.35809e-13 3.03748e-13 -4.94702e-13 -6.85526e-13 -8.45625e-15 2.59492e-13 -9.10171e-13 -1.08584e-13 -3.92703e-13 6.53027e-13 -1.2711e-13 -5.59527e-13 -1.74625e-13 -2.40621e-13 -5.77144e-13 -2.64759e-13 2.8322e-13 -3.25552e-13 -1.10429e-13 1.11652e-13 -1.10274e-13 5.4687e-13 -2.44099e-13 4.70132e-14 -2.50022e-13 2.41426e-14 -4.23267e-13 -6.87498e-15 -2.04281e-13 -2.34845e-14 -8.40297e-13 -7.79839e-13 1.66916e-13 -4.42966e-13 5.26691e-13 -3.09049e-13 4.08085e-13 1.55101e-13 7.0585e-13 1.77602e-13 0 0 -1.76452e-15 -1.35286e-16 -1.91574e-14 2.25168e-14 -2.44465e-14 4.56974e-14 1.13379e-13 -2.02341e-14 6.00211e-14 2.29689e-14 -1.94177e-13 5.98048e-14 -2.01692e-13 -8.84277e-14 -1.23371e-13 -8.35269e-14 1.07654e-14 -1.50135e-13 -1.36242e-13 -2.59363e-13 9.91489e-14 3.16765e-14 -3.29399e-13 1.44185e-13 7.8529e-14 -2.05749e-13 -6.96815e-14 -1.79582e-13 2.26534e-13 -3.21025e-13 1.46982e-13 5.1019e-14 -5.29155e-14 -1.44439e-13 -9.48749e-14 5.8743e-14 -1.64767e-13 6.53077e-14 -1.08314e-13 -2.66068e-13 -2.71684e-13 -7.55579e-14 -3.61305e-14 1.75597e-13 -4.51873e-13 2.35624e-13 -5.6479e-13 2.87766e-14 2.93587e-13 3.20152e-13 -4.73958e-13 -2.61981e-13 4.49399e-13 -3.32055e-13 -7.53827e-13 1.8026e-13 -6.1179e-13 -2.75555e-13 2.0489e-13 3.34208e-13 1.14182e-14 1.0332e-13 1.19921e-13 -1.21928e-13 -2.23307e-14 2.60374e-13 4.68305e-12 4.70385e-11 4.33912e-10 3.72108e-09 2.93182e-08 2.1101e-07 1.37894e-06 8.12542e-06 4.2812e-05 0.000199644 0.000813596 0.00285343 0.00846901 0.0209792 0.0432623 0.0754926 0.115248 0.159747 0.207098 0.256262 0.306656 0.358001 0.410336 0.463674 0.513391 0.562013 0.607861 0.654043 0.697168 0.73946 0.780658 0.816533 0.851982 0.881557 0.901578 0.920066 0.929057 0.931178 0.933394 0.93383 0.933561 0.932814 0.931799 0.930814 0.929906 0.928848 0.927102 0.930847 0.931845 0.927994 0.927403 0.927787 0.928323 0.928104 0.926775 0.92381 0.918217 0.906905 0.884468 0.843454 0.775614 0.675552 0.546085 0.402022 0.264787 0.153198 0.0767392 0.0335635 0.0132845 0.00495817 0.00179212 0.000634978 0.000221501 7.6151e-05 2.57986e-05 8.60817e-06 2.82724e-06 9.13501e-07 2.9023e-07 9.06339e-08 2.78099e-08 8.38268e-09 2.48164e-09 7.21077e-10 2.06211e-10 5.68966e-11 1.58178e-11 3.45073e-12 1.40003e-12 3.08792e-13 7.08896e-13 4.6599e-13 -1.15183e-13 2.97834e-13 -2.26433e-13 -2.98243e-13 -2.37416e-13 -4.52075e-13 -1.30426e-13 2.3349e-13 -9.86282e-13 9.24247e-13 -4.78851e-13 8.75116e-14 -2.82642e-13 -5.93913e-13 -2.32915e-13 -6.81969e-13 -4.35443e-13 -2.14994e-13 -6.11176e-13 4.15654e-13 -2.92196e-13 1.66459e-13 2.89752e-13 -6.48255e-13 4.56777e-13 -6.7298e-13 3.49154e-13 -1.21087e-12 5.8093e-13 5.08954e-13 -1.22135e-12 6.87973e-13 -3.09972e-13 -5.38119e-13 -2.76948e-13 4.46564e-13 -4.38715e-13 6.94576e-13 1.56765e-13 1.32648e-13 -3.1951e-13 0 0 -1.5798e-14 7.09634e-15 1.66291e-14 1.22993e-14 3.77148e-14 5.53074e-14 -7.14756e-14 4.42842e-14 6.68547e-14 -7.86964e-14 1.02294e-13 -1.14255e-13 -8.76643e-14 -2.22521e-13 -9.4463e-14 -2.84859e-13 -2.03799e-14 2.27626e-13 -1.61774e-13 -2.00059e-14 -2.87272e-13 -9.6916e-14 2.4339e-13 -2.65771e-13 -2.5702e-13 6.16568e-14 3.98611e-15 -6.17891e-14 -2.23732e-13 1.46194e-13 -1.94878e-13 1.85306e-13 8.26833e-14 5.11101e-14 -5.88116e-13 1.81601e-13 2.15292e-13 -2.38626e-13 -1.92582e-13 -4.09716e-13 -4.05852e-14 -4.69321e-13 -2.83496e-13 -1.61229e-15 3.95773e-13 -1.96448e-13 4.60842e-13 1.68975e-13 -3.86066e-14 -5.18472e-14 -1.67203e-13 3.36957e-14 -9.3277e-13 -7.14651e-14 -7.27466e-14 -9.5061e-13 4.48618e-14 2.775e-13 -1.25351e-13 1.14494e-13 7.62008e-13 -3.053e-13 1.1789e-13 1.42898e-13 -4.83764e-13 4.89423e-13 4.7374e-12 4.69115e-11 4.34121e-10 3.72106e-09 2.93186e-08 2.11009e-07 1.37894e-06 8.12542e-06 4.2812e-05 0.000199644 0.000813596 0.00285343 0.00846901 0.0209792 0.0432623 0.0754926 0.115248 0.159747 0.207098 0.256262 0.306656 0.358001 0.410336 0.463674 0.513391 0.562013 0.607861 0.654043 0.697168 0.73946 0.780658 0.816533 0.851982 0.881557 0.901578 0.920066 0.929057 0.931178 0.933394 0.93383 0.933561 0.932814 0.931799 0.930814 0.929906 0.928848 0.927102 0.930847 0.931845 0.927994 0.927403 0.927787 0.928323 0.928104 0.926775 0.92381 0.918217 0.906905 0.884468 0.843454 0.775614 0.675552 0.546085 0.402022 0.264787 0.153198 0.0767392 0.0335635 0.0132845 0.00495817 0.00179212 0.000634978 0.000221501 7.6151e-05 2.57986e-05 8.60817e-06 2.82724e-06 9.13501e-07 2.9023e-07 9.06328e-08 2.78109e-08 8.38231e-09 2.4824e-09 7.20833e-10 2.04728e-10 5.7893e-11 1.5424e-11 3.9074e-12 7.72573e-13 -4.50315e-13 7.88332e-13 9.47415e-13 1.66763e-12 -1.15499e-12 -1.33403e-13 -6.27985e-13 1.27819e-12 -2.80025e-13 -1.2026e-12 1.74123e-14 -3.91892e-15 3.35683e-14 2.49011e-13 -1.99081e-13 6.31031e-14 -3.83142e-13 -7.66106e-13 -3.5849e-13 -5.41757e-13 -8.34753e-13 -5.15371e-13 -7.66811e-13 1.18574e-12 -6.94823e-13 7.12954e-13 -4.19667e-13 -9.76558e-13 1.30362e-12 -1.1607e-12 8.99537e-13 -4.87045e-13 -2.26063e-13 3.36578e-13 7.58874e-13 -2.37309e-13 -6.01883e-13 -1.90408e-13 5.40044e-13 7.41541e-13 -1.51531e-13 7.00831e-13 -1.4395e-12 2.13425e-13 0
				</DataArray>
				<DataArray Name="VitesseY" type="Float32" format="ascii">