<?xml version="1.0"?>
<VTKFile type="PolyData">
	<PolyData>
		<Piece NumberOfPoints="1206" NumberOfPolys="1000">
			<Points>
				<DataArray type="Float32" NumberOfComponents="3" format="ascii">
 0 0 0 0.005 0 0 0.01 0 0 0.015 0 0 0.02 0 0 0.025 0 0 0.03 0 0 0.035 0 0 0.04 0 0 0.045 0 0 0.05 0 0 0.055 0 0 0.06 0 0 0.065 0 0 0.07 0 0 0.075 0 0 0.08 0 0 0.085 0 0 0.09 0 0 0.095 0 0 0.1 0 0 0.105 0 0 0.11 0 0 0.115 0 0 0.12 0 0 0.125 0 0 0.13 0 0 0.135 0 0 0.14 0 0 0.145 0 0 0.15 0 0 0.155 0 0 0.16 0 0 0.165 0 0 0.17 0 0 0.175 0 0 0.18 0 0 0.185 0 0 0.19 0 0 0.195 0 0 0.2 0 0 0.205 0 0 0.21 0 0 0.215 0 0 0.22 0 0 0.225 0 0 0.23 0 0 0.235 0 0 0.24 0 0 0.245 0 0 0.25 0 0 0.255 0 0 0.26 0 0 0.265 0 0 0.27 0 0 0.275 0 0 0.28 0 0 0.285 0 0 0.29 0 0 0.295 0 0 0.300001 0 0 0.305001 0 0 0.310004 0 0 0.315009 0 0 0.320022 0 0 0.325046 0 0 0.330092 0 0 0.335169 0 0 0.340289 0 0 0.345466 0 0 0.350714 0 0 0.356049 0 0 0.361484 0 0 0.367036 0 0 0.372719 0 0 0.378548 0 0 0.38454 0 0 0.39071 0 0 0.397076 0 0 0.403657 0 0 0.410473 0 0 0.417544 0 0 0.424895 0 0 0.432551 0 0 0.44054 0 0 0.44889 0 0 0.457632 0 0 0.466794 0 0 0.4764 0 0 0.486466 0 0 0.496988 0 0 0.507939 0 0 0.519261 0 0 0.530869 0 0 0.542671 0 0 0.55459 0 0 0.566577 0 0 0.578617 0 0 0.590726 0 0 0.602995 0 0 0.615927 0 0 0.61834 0 0 0.620706 0 0 0.623075 0 0 0.625442 0 0 0.627801 0 0 0.630154 0 0 0.6325 0 0 0.634846 0 0 0.637187 0 0 0.639534 0 0 0.641862 0 0 0.644214 0 0 0.646548 0 0 0.648985 0 0 0.651515 0 0 0.654047 0 0 0.65645 0 0 0.658745 0 0 0.66103 0 0 0.663332 0 0 0.665647 0 0 0.667967 0 0 0.670289 0 0 0.672607 0 0 0.674922 0 0 0.677239 0 0 0.67956 0 0 0.681882 0 0 0.684202 0 0 0.686517 0 0 0.688836 0 0 0.691158 0 0 0.693478 0 0 0.695794 0 0 0.698109 0 0 0.700429 0 0 0.702748 0 0 0.705065 0 0 0.707378 0 0 0.709656 0 0 0.7119 0 0 0.714033 0 0 0.716414 0 0 0.720256 0 0 0.725044 0 0 0.730007 0 0 0.735001 0 0 0.74 0 0 0.745 0 0 0.75 0 0 0.755 0 0 0.76 0 0 0.765 0 0 0.77 0 0 0.775 0 0 0.78 0 0 0.785 0 0 0.79 0 0 0.795 0 0 0.8 0 0 0.805 0 0 0.81 0 0 0.815 0 0 0.82 0 0 0.825 0 0 0.83 0 0 0.835 0 0 0.84 0 0 0.845 0 0 0.85 0 0 0.855 0 0 0.86 0 0 0.865 0 0 0.87 0 0 0.875 0 0 0.88 0 0 0.885 0 0 0.89 0 0 0.895 0 0 0.9 0 0 0.905 0 0 0.91 0 0 0.915 0 0 0.92 0 0 0.925 0 0 0.93 0 0 0.935 0 0 0.94 0 0 0.945 0 0 0.95 0 0 0.955 0 0 0.96 0 0 0.965 0 0 0.97 0 0 0.975 0 0 0.98 0 0 0.985 0 0 0.99 0 0 0.995 0 0 1 0 0 0 0.02 0 0.005 0.02 0 0.01 0.02 0 0.015 0.02 0 0.02 0.02 0 0.025 0.02 0 0.03 0.02 0 0.035 0.02 0 0.04 0.02 0 0.045 0.02 0 0.05 0.02 0 0.055 0.02 0 0.06 0.02 0 0.065 0.02 0 0.07 0.02 0 0.075 0.02 0 0.08 0.02 0 0.085 0.02 0 0.09 0.02 0 0.095 0.02 0 0.1 0.02 0 0.105 0.02 0 0.11 0.02 0 0.115 0.02 0 0.12 0.02 0 0.125 0.02 0 0.13 0.02 0 0.135 0.02 0 0.14 0.02 0 0.145 0.02 0 0.15 0.02 0 0.155 0.02 0 0.16 0.02 0 0.165 0.02 0 0.17 0.02 0 0.175 0.02 0 0.18 0.02 0 0.185 0.02 0 0.19 0.02 0 0.195 0.02 0 0.2 0.02 0 0.205 0.02 0 0.21 0.02 0 0.215 0.02 0 0.22 0.02 0 0.225 0.02 0 0.23 0.02 0 0.235 0.02 0 0.24 0.02 0 0.245 0.02 0 0.25 0.02 0 0.255 0.02 0 0.26 0.02 0 0.265 0.02 0 0.27 0.02 0 0.275 0.02 0 0.28 0.02 0 0.285 0.02 0 0.29 0.02 0 0.295 0.02 0 0.300001 0.02 0 0.305001 0.02 0 0.310004 0.02 0 0.315009 0.02 0 0.320022 0.02 0 0.325046 0.02 0 0.330092 0.02 0 0.335169 0.02 0 0.340289 0.02 0 0.345466 0.02 0 0.350714 0.02 0 0.356049 0.02 0 0.361484 0.02 0 0.367036 0.02 0 0.372719 0.02 0 0.378548 0.02 0 0.38454 0.02 0 0.39071 0.02 0 0.397076 0.02 0 0.403657 0.02 0 0.410473 0.02 0 0.417544 0.02 0 0.424895 0.02 0 0.432551 0.02 0 0.44054 0.02 0 0.44889 0.02 0 0.457632 0.02 0 0.466794 0.02 0 0.4764 0.02 0 0.486466 0.02 0 0.496988 0.02 0 0.507939 0.02 0 0.519261 0.02 0 0.530869 0.02 0 0.542671 0.02 0 0.55459 0.02 0 0.566577 0.02 0 0.578617 0.02 0 0.590725 0.0199999 0 0.602994 0.0199997 0 0.615927 0.0199979 0 0.61834 0.0199965 0 0.620707 0.0199975 0 0.623077 0.0200009 0 0.625444 0.0200039 0 0.627805 0.0200058 0 0.630157 0.0200069 0 0.632506 0.0200068 0 0.634847 0.0200083 0 0.637182 0.0200141 0 0.639505 0.0200183 0 0.641838 0.0200226 0 0.644139 0.0200298 0 0.646452 0.020033 0 0.648658 0.0200244 0 0.650771 0.0200178 0 0.652869 0.0200133 0 0.655089 0.0200071 0 0.657427 0.0200025 0 0.659778 0.0199984 0 0.662114 0.0199959 0 0.66444 0.0199937 0 0.666763 0.019994 0 0.669084 0.019991 0 0.671411 0.0199899 0 0.67374 0.0199929 0 0.676065 0.0199966 0 0.678384 0.0199969 0 0.680702 0.0199942 0 0.683023 0.0199934 0 0.685348 0.019994 0 0.687669 0.0199944 0 0.689984 0.0199945 0 0.692302 0.0199914 0 0.694624 0.0199901 0 0.696947 0.0199894 0 0.699262 0.0199903 0 0.701578 0.0199904 0 0.703904 0.0199877 0 0.706247 0.0199874 0 0.708587 0.0199887 0 0.710871 0.0199921 0 0.71336 0.0199962 0 0.716218 0.0199991 0 0.720259 0.0199999 0 0.725044 0.02 0 0.730007 0.02 0 0.735001 0.02 0 0.74 0.02 0 0.745 0.02 0 0.75 0.02 0 0.755 0.02 0 0.76 0.02 0 0.765 0.02 0 0.77 0.02 0 0.775 0.02 0 0.78 0.02 0 0.785 0.02 0 0.79 0.02 0 0.795 0.02 0 0.8 0.02 0 0.805 0.02 0 0.81 0.02 0 0.815 0.02 0 0.82 0.02 0 0.825 0.02 0 0.83 0.02 0 0.835 0.02 0 0.84 0.02 0 0.845 0.02 0 0.85 0.02 0 0.855 0.02 0 0.86 0.02 0 0.865 0.02 0 0.87 0.02 0 0.875 0.02 0 0.88 0.02 0 0.885 0.02 0 0.89 0.02 0 0.895 0.02 0 0.9 0.02 0 0.905 0.02 0 0.91 0.02 0 0.915 0.02 0 0.92 0.02 0 0.925 0.02 0 0.93 0.02 0 0.935 0.02 0 0.94 0.02 0 0.945 0.02 0 0.95 0.02 0 0.955 0.02 0 0.96 0.02 0 0.965 0.02 0 0.97 0.02 0 0.975 0.02 0 0.98 0.02 0 0.985 0.02 0 0.99 0.02 0 0.995 0.02 0 1 0.02 0 0 0.04 0 0.005 0.04 0 0.01 0.04 0 0.015 0.04 0 0.02 0.04 0 0.025 0.04 0 0.03 0.04 0 0.035 0.04 0 0.04 0.04 0 0.045 0.04 0 0.05 0.04 0 0.055 0.04 0 0.06 0.04 0 0.065 0.04 0 0.07 0.04 0 0.075 0.04 0 0.08 0.04 0 0.085 0.04 0 0.09 0.04 0 0.095 0.04 0 0.1 0.04 0 0.105 0.04 0 0.11 0.04 0 0.115 0.04 0 0.12 0.04 0 0.125 0.04 0 0.13 0.04 0 0.135 0.04 0 0.14 0.04 0 0.145 0.04 0 0.15 0.04 0 0.155 0.04 0 0.16 0.04 0 0.165 0.04 0 0.17 0.04 0 0.175 0.04 0 0.18 0.04 0 0.185 0.04 0 0.19 0.04 0 0.195 0.04 0 0.2 0.04 0 0.205 0.04 0 0.21 0.04 0 0.215 0.04 0 0.22 0.04 0 0.225 0.04 0 0.23 0.04 0 0.235 0.04 0 0.24 0.04 0 0.245 0.04 0 0.25 0.04 0 0.255 0.04 0 0.26 0.04 0 0.265 0.04 0 0.27 0.04 0 0.275 0.04 0 0.28 0.04 0 0.285 0.04 0 0.29 0.04 0 0.295 0.04 0 0.300001 0.04 0 0.305001 0.04 0 0.310004 0.04 0 0.315009 0.04 0 0.320022 0.04 0 0.325046 0.04 0 0.330092 0.04 0 0.335169 0.04 0 0.340289 0.04 0 0.345466 0.04 0 0.350714 0.04 0 0.356049 0.04 0 0.361484 0.04 0 0.367036 0.04 0 0.372719 0.04 0 0.378548 0.04 0 0.38454 0.04 0 0.39071 0.04 0 0.397076 0.04 0 0.403657 0.04 0 0.410473 0.04 0 0.417544 0.04 0 0.424895 0.04 0 0.432551 0.04 0 0.44054 0.04 0 0.44889 0.04 0 0.457632 0.04 0 0.466794 0.04 0 0.4764 0.04 0 0.486466 0.04 0 0.496988 0.04 0 0.507939 0.04 0 0.519261 0.04 0 0.530869 0.04 0 0.542672 0.04 0 0.554591 0.04 0 0.566578 0.0400001 0 0.578617 0.0400001 0 0.590726 0.0400005 0 0.602994 0.0400008 0 0.615924 0.0400023 0 0.618333 0.040001 0 0.620697 0.040002 0 0.623063 0.0400037 0 0.625431 0.0400038 0 0.627792 0.0400028 0 0.630151 0.0400013 0 0.632504 0.0399999 0 0.634856 0.0400029 0 0.637206 0.0400073 0 0.639563 0.040012 0 0.641904 0.0400183 0 0.644272 0.0400255 0 0.646626 0.0400216 0 0.649089 0.0399954 0 0.651644 0.0399867 0 0.654197 0.0399971 0 0.656609 0.0400052 0 0.658906 0.040002 0 0.661191 0.0399946 0 0.663492 0.0399937 0 0.665805 0.039994 0 0.66812 0.0399954 0 0.670437 0.0399966 0 0.672746 0.0399937 0 0.675056 0.0399934 0 0.677371 0.0399937 0 0.679692 0.0399947 0 0.682012 0.0399956 0 0.684328 0.0399945 0 0.686639 0.039992 0 0.688956 0.0399918 0 0.691277 0.0399927 0 0.693593 0.0399926 0 0.695905 0.0399926 0 0.698214 0.039991 0 0.700528 0.0399913 0 0.702842 0.0399916 0 0.705158 0.0399921 0 0.707463 0.0399941 0 0.709732 0.039999 0 0.711971 0.0400044 0 0.71409 0.0400028 0 0.716447 0.0400005 0 0.720259 0.04 0 0.725044 0.04 0 0.730007 0.04 0 0.735001 0.04 0 0.74 0.04 0 0.745 0.04 0 0.75 0.04 0 0.755 0.04 0 0.76 0.04 0 0.765 0.04 0 0.77 0.04 0 0.775 0.04 0 0.78 0.04 0 0.785 0.04 0 0.79 0.04 0 0.795 0.04 0 0.8 0.04 0 0.805 0.04 0 0.81 0.04 0 0.815 0.04 0 0.82 0.04 0 0.825 0.04 0 0.83 0.04 0 0.835 0.04 0 0.84 0.04 0 0.845 0.04 0 0.85 0.04 0 0.855 0.04 0 0.86 0.04 0 0.865 0.04 0 0.87 0.04 0 0.875 0.04 0 0.88 0.04 0 0.885 0.04 0 0.89 0.04 0 0.895 0.04 0 0.9 0.04 0 0.905 0.04 0 0.91 0.04 0 0.915 0.04 0 0.92 0.04 0 0.925 0.04 0 0.93 0.04 0 0.935 0.04 0 0.94 0.04 0 0.945 0.04 0 0.95 0.04 0 0.955 0.04 0 0.96 0.04 0 0.965 0.04 0 0.97 0.04 0 0.975 0.04 0 0.98 0.04 0 0.985 0.04 0 0.99 0.04 0 0.995 0.04 0 1 0.04 0 0 0.06 0 0.005 0.06 0 0.01 0.06 0 0.015 0.06 0 0.02 0.06 0 0.025 0.06 0 0.03 0.06 0 0.035 0.06 0 0.04 0.06 0 0.045 0.06 0 0.05 0.06 0 0.055 0.06 0 0.06 0.06 0 0.065 0.06 0 0.07 0.06 0 0.075 0.06 0 0.08 0.06 0 0.085 0.06 0 0.09 0.06 0 0.095 0.06 0 0.1 0.06 0 0.105 0.06 0 0.11 0.06 0 0.115 0.06 0 0.12 0.06 0 0.125 0.06 0 0.13 0.06 0 0.135 0.06 0 0.14 0.06 0 0.145 0.06 0 0.15 0.06 0 0.155 0.06 0 0.16 0.06 0 0.165 0.06 0 0.17 0.06 0 0.175 0.06 0 0.18 0.06 0 0.185 0.06 0 0.19 0.06 0 0.195 0.06 0 0.2 0.06 0 0.205 0.06 0 0.21 0.06 0 0.215 0.06 0 0.22 0.06 0 0.225 0.06 0 0.23 0.06 0 0.235 0.06 0 0.24 0.06 0 0.245 0.06 0 0.25 0.06 0 0.255 0.06 0 0.26 0.06 0 0.265 0.06 0 0.27 0.06 0 0.275 0.06 0 0.28 0.06 0 0.285 0.06 0 0.29 0.06 0 0.295 0.06 0 0.300001 0.06 0 0.305001 0.06 0 0.310004 0.06 0 0.315009 0.06 0 0.320022 0.06 0 0.325046 0.06 0 0.330092 0.06 0 0.335169 0.06 0 0.340289 0.06 0 0.345466 0.06 0 0.350714 0.06 0 0.356049 0.06 0 0.361484 0.06 0 0.367036 0.06 0 0.372719 0.06 0 0.378548 0.06 0 0.38454 0.06 0 0.39071 0.06 0 0.397076 0.06 0 0.403657 0.06 0 0.410473 0.06 0 0.417544 0.06 0 0.424895 0.06 0 0.432551 0.06 0 0.44054 0.06 0 0.44889 0.06 0 0.457632 0.06 0 0.466794 0.06 0 0.4764 0.06 0 0.486466 0.06 0 0.496988 0.06 0 0.507939 0.06 0 0.519261 0.06 0 0.530869 0.06 0 0.542672 0.06 0 0.554591 0.06 0 0.566578 0.0600001 0 0.578618 0.0600001 0 0.590727 0.0600009 0 0.602996 0.0600016 0 0.615928 0.0600092 0 0.618337 0.0600139 0 0.6207 0.0600157 0 0.623066 0.0600153 0 0.625429 0.0600125 0 0.627786 0.0600088 0 0.630133 0.0600091 0 0.632
[...]
			<CellData Scalars="Density">
				<DataArray Name="Density" type="Float32" format="ascii">
 1 1 1 1 1 1 1 1 1 1 1 1 1 1 1 1 1 1 1 1 1 1 1 1 1 1 1 1 1 1 1 1 1 1 1 1 1 1 1 1 1 1 1 1 1 1 1 1 1 1 1 1 1 1 1 0.999999 0.999997 0.999991 0.999975 0.999934 0.999827 0.999556 0.998895 0.997534 0.995041 0.99097 0.984903 0.97656 0.965807 0.952664 0.937275 0.919841 0.900614 0.879831 0.857731 0.834504 0.810347 0.785389 0.75979 0.733639 0.70707 0.68017 0.653065 0.62588 0.598777 0.571969 0.545741 0.520489 0.496742 0.47518 0.456577 0.441639 0.430735 0.423638 0.4195 0.41712 0.415308 0.412919 0.40754 0.386619 0.259158 0.264129 0.263765 0.263993 0.264707 0.265491 0.266029 0.266512 0.266972 0.267253 0.2676 0.267878 0.26809 0.268382 0.268592 0.269548 0.270047 0.269722 0.269615 0.269538 0.269478 0.269429 0.269418 0.269424 0.26942 0.269423 0.26945 0.269496 0.269566 0.269557 0.269613 0.269674 0.269719 0.269748 0.269832 0.269995 0.269971 0.269546 0.268818 0.271023 0.276348 0.270594 0.238654 0.158576 0.13058 0.125919 0.12515 0.125025 0.125004 0.125001 0.125 0.125 0.125 0.125 0.125 0.125 0.125 0.125 0.125 0.125 0.125 0.125 0.125 0.125 0.125 0.125 0.125 0.125 0.125 0.125 0.125 0.125 0.125 0.125 0.125 0.125 0.125 0.125 0.125 0.125 0.125 0.125 0.125 0.125 0.125 0.125 0.125 0.125 0.125 0.125 0.125 0.125 0.125 0.125 0.125 0.125 0.125 0.125 0.125 0.125 1 1 1 1 1 1 1 1 1 1 1 1 1 1 1 1 1 1 1 1 1 1 1 1 1 1 1 1 1 1 1 1 1 1 1 1 1 1 1 1 1 1 1 1 1 1 1 1 1 1 1 1 1 1 1 0.999999 0.999997 0.999991 0.999975 0.999934 0.999827 0.999556 0.998895 0.997534 0.995041 0.99097 0.984903 0.97656 0.965807 0.952664 0.937275 0.919841 0.900614 0.879831 0.857731 0.834504 0.810347 0.785389 0.75979 0.733639 0.70707 0.68017 0.653065 0.62588 0.598777 0.571969 0.545741 0.520489 0.496742 0.47518 0.456577 0.441639 0.430734 0.423637 0.419497 0.417117 0.415305 0.412919 0.407548 0.386634 0.259135 0.264097 0.263768 0.263991 0.264699 0.265482 0.266036 0.266538 0.266972 0.267305 0.267571 0.26786 0.268073 0.268269 0.268651 0.269505 0.270055 0.269782 0.26967 0.26964 0.269497 0.269481 0.269456 0.269445 0.26944 0.269453 0.269453 0.269543 0.26955 0.269604 0.26962 0.269696 0.269741 0.269699 0.269794 0.269995 0.270017 0.269221 0.268784 0.270969 0.276044 0.270991 0.239631 0.159167 0.130615 0.12592 0.12515 0.125025 0.125004 0.125001 0.125 0.125 0.125 0.125 0.125 0.125 0.125 0.125 0.125 0.125 0.125 0.125 0.125 0.125 0.125 0.125 0.125 0.125 0.125 0.125 0.125 0.125 0.125 0.125 0.125 0.125 0.125 0.125 0.125 0.125 0.125 0.125 0.125 0.125 0.125 0.125 0.125 0.125 0.125 0.125 0.125 0.125 0.125 0.125 0.125 0.125 0.125 0.125 0.125 0.125 1 1 1 1 1 1 1 1 1 1 1 1 1 1 1 1 1 1 1 1 1 1 1 1 1 1 1 1 1 1 1 1 1 1 1 1 1 1 1 1 1 1 1 1 1 1 1 1 1 1 1 1 1 1 1 0.999999 0.999997 0.999991 0.999975 0.999934 0.999827 0.999556 0.998895 0.997534 0.995041 0.99097 0.984903 0.97656 0.965807 0.952664 0.937275 0.919841 0.900614 0.879831 0.857731 0.834504 0.810347 0.785389 0.75979 0.733639 0.70707 0.68017 0.653065 0.62588 0.598777 0.571969 0.545741 0.520489 0.496742 0.47518 0.456577 0.441639 0.430734 0.423636 0.419495 0.417111 0.415295 0.412908 0.407547 0.386642 0.259164 0.264114 0.263756 0.26397 0.264665 0.265457 0.266037 0.266483 0.266959 0.267225 0.267615 0.267791 0.2681 0.268281 0.268688 0.269515 0.269959 0.269679 0.269615 0.269561 0.269518 0.269439 0.269425 0.269398 0.26944 0.269388 0.269438 0.269497 0.269531 0.26958 0.26955 0.269673 0.269649 0.269742 0.269742 0.26994 0.269738 0.269003 0.268778 0.271056 0.276698 0.271487 0.238546 0.158828 0.1306 0.12592 0.12515 0.125025 0.125004 0.125001 0.125 0.125 0.125 0.125 0.125 0.125 0.125 0.125 0.125 0.125 0.125 0.125 0.125 0.125 0.125 0.125 0.125 0.125 0.125 0.125 0.125 0.125 0.125 0.125 0.125 0.125 0.125 0.125 0.125 0.125 0.125 0.125 0.125 0.125 0.125 0.125 0.125 0.125 0.125 0.125 0.125 0.125 0.125 0.125 0.125 0.125 0.125 0.125 0.125 0.125 1 1 1 1 1 1 1 1 1 1 1 1 1 1 1 1 1 1 1 1 1 1 1 1 1 1 1 1 1 1 1 1 1 1 1 1 1 1 1 1 1 1 1 1 1 1 1 1 1 1 1 1 1 1 1 0.999999 0.999997 0.999991 0.999975 0.999934 0.999827 0.999556 0.998895 0.997534 0.995041 0.99097 0.984903 0.97656 0.965807 0.952664 0.937275 0.919841 0.900614 0.879831 0.857731 0.834504 0.810347 0.785389 0.75979 0.733639 0.70707 0.68017 0.653065 0.62588 0.598777 0.571969 0.545741 0.520489 0.496742 0.47518 0.456577 0.441639 0.430734 0.423635 0.419493 0.417106 0.415282 0.412886 0.407522 0.38665 0.259188 0.264152 0.263777 0.263981 0.264662 0.265453 0.266021 0.266493 0.266941 0.267251 0.267555 0.267928 0.26797 0.268342 0.268595 0.269632 0.27003 0.269754 0.269667 0.269546 0.26953 0.26942 0.269418 0.269409 0.269389 0.269407 0.26944 0.269443 0.269549 0.269526 0.26959 0.269606 0.269637 0.269644 0.269632 0.269865 0.269757 0.269525 0.268797 0.270949 0.276737 0.271475 0.238719 0.158743 0.130579 0.125917 0.12515 0.125025 0.125004 0.125001 0.125 0.125 0.125 0.125 0.125 0.125 0.125 0.125 0.125 0.125 0.125 0.125 0.125 0.125 0.125 0.125 0.125 0.125 0.125 0.125 0.125 0.125 0.125 0.125 0.125 0.125 0.125 0.125 0.125 0.125 0.125 0.125 0.125 0.125 0.125 0.125 0.125 0.125 0.125 0.125 0.125 0.125 0.125 0.125 0.125 0.125 0.125 0.125 0.125 0.125 1 1 1 1 1 1 1 1 1 1 1 1 1 1 1 1 1 1 1 1 1 1 1 1 1 1 1 1 1 1 1 1 1 1 1 1 1 1 1 1 1 1 1 1 1 1 1 1 1 1 1 1 1 1 1 0.999999 0.999997 0.999991 0.999975 0.999934 0.999827 0.999556 0.998895 0.997534 0.995041 0.99097 0.984903 0.97656 0.965807 0.952664 0.937275 0.919841 0.900614 0.879831 0.857731 0.834504 0.810347 0.785389 0.75979 0.733639 0.70707 0.68017 0.653065 0.62588 0.598777 0.571969 0.545741 0.520489 0.496742 0.47518 0.456577 0.441639 0.430734 0.423635 0.419493 0.417105 0.415276 0.41287 0.407493 0.3866 0.259138 0.264104 0.26375 0.263965 0.264668 0.26544 0.265979 0.266468 0.266924 0.267201 0.267563 0.267787 0.268079 0.268288 0.268666 0.269634 0.270017 0.26969 0.269592 0.269578 0.269471 0.269453 0.269417 0.269387 0.269395 0.269386 0.269424 0.269477 0.26951 0.269538 0.269561 0.269624 0.26965 0.269655 0.26968 0.269828 0.269886 0.269567 0.268922 0.270743 0.276426 0.271522 0.239572 0.158873 0.130573 0.125915 0.12515 0.125025 0.125004 0.125001 0.125 0.125 0.125 0.125 0.125 0.125 0.125 0.125 0.125 0.125 0.125 0.125 0.125 0.125 0.125 0.125 0.125 0.125 0.125 0.125 0.125 0.125 0.125 0.125 0.125 0.125 0.125 0.125 0.125 0.125 0.125 0.125 0.125 0.125 0.125 0.125 0.125 0.125 0.125 0.125 0.125 0.125 0.125 0.125 0.125 0.125 0.125 0.125 0.125 0.125
				</DataArray>
				<DataArray Name="Energy" type="Float32" format="ascii">
 2.5 2.5 2.5 2.5 2.5 2.5 2.5 2.5 2.5 2.5 2.5 2.5 2.5 2.5 2.5 2.5 2.5 2.5 2.5 2.5 2.5 2.5 2.5 2.5 2.5 2.5 2.5 2.5 2.5 2.5 2.5 2.5 2.5 2.5 2.5 2.5 2.5 2.5 2.5 2.5 2.5 2.5 2.5 2.5 2.5 2.5 2.5 2.5 2.5 2.5 2.5 2.5 2.5 2.5 2.5 2.5 2.5 2.49999 2.49998 2.49993 2.49983 2.49956 2.49891 2.49757 2.49511 2.49109 2.48508 2.4768 2.46609 2.45291 2.43738 2.41963 2.39986 2.37825 2.35498 2.33018 2.30401 2.27654 2.24788 2.21809 2.18724 2.15541 2.12267 2.08913 2.05496 2.02041 1.98584 1.95181 1.91913 1.88892 1.86257 1.8415 1.8267 1.81834 1.81557 1.81712 1.82225 1.83221 1.85627 1.95664 2.91929 2.86431 2.86826 2.86597 2.85849 2.85013 2.84437 2.83931 2.8346 2.83165 2.8281 2.82522 2.82306 2.82045 2.81717 2.80769 2.80254 2.8055 2.8067 2.80724 2.80816 2.80856 2.80867 2.80857 2.80862 2.80871 2.80851 2.80814 2.80769 2.80783 2.80777 2.80752 2.8071 2.80708 2.80749 2.80782 2.80721 2.80513 2.80258 2.81123 2.83157 2.80763 2.66022 2.21072 2.03187 2.00509 2.00083 2.00014 2.00002 2 2 2 2 2 2 2 2 2 2 2 2 2 2 2 2 2 2 2 2 2 2 2 2 2 2 2 2 2 2 2 2 2 2 2 2 2 2 2 2 2 2 2 2 2 2 2 2 2 2 2 2.5 2.5 2.5 2.5 2.5 2.5 2.5 2.5 2.5 2.5 2.5 2.5 2.5 2.5 2.5 2.5 2.5 2.5 2.5 2.5 2.5 2.5 2.5 2.5 2.5 2.5 2.5 2.5 2.5 2.5 2.5 2.5 2.5 2.5 2.5 2.5 2.5 2.5 2.5 2.5 2.5 2.5 2.5 2.5 2.5 2.5 2.5 2.5 2.5 2.5 2.5 2.5 2.5 2.5 2.5 2.5 2.5 2.49999 2.49998 2.49993 2.49983 2.49956 2.49891 2.49757 2.49511 2.49109 2.48508 2.4768 2.46609 2.45291 2.43738 2.41963 2.39986 2.37825 2.35498 2.33018 2.30401 2.27654 2.24788 2.21809 2.18724 2.15541 2.12267 2.08913 2.05496 2.02041 1.98584 1.95181 1.91913 1.88892 1.86257 1.8415 1.8267 1.81834 1.81557 1.81712 1.82225 1.83221 1.85629 1.95667 2.9192 2.86418 2.86828 2.86597 2.85846 2.85009 2.8444 2.83942 2.8346 2.83186 2.82798 2.82515 2.82302 2.82014 2.81772 2.80759 2.80193 2.80522 2.80633 2.80703 2.80777 2.80834 2.80837 2.80829 2.80826 2.80837 2.80802 2.80779 2.80718 2.80749 2.80725 2.80699 2.80664 2.80623 2.80661 2.80704 2.80658 2.80307 2.80161 2.81006 2.8293 2.8083 2.66465 2.21465 2.03208 2.0051 2.00083 2.00014 2.00002 2 2 2 2 2 2 2 2 2 2 2 2 2 2 2 2 2 2 2 2 2 2 2 2 2 2 2 2 2 2 2 2 2 2 2 2 2 2 2 2 2 2 2 2 2 2 2 2 2 2 2 2.5 2.5 2.5 2.5 2.5 2.5 2.5 2.5 2.5 2.5 2.5 2.5 2.5 2.5 2.5 2.5 2.5 2.5 2.5 2.5 2.5 2.5 2.5 2.5 2.5 2.5 2.5 2.5 2.5 2.5 2.5 2.5 2.5 2.5 2.5 2.5 2.5 2.5 2.5 2.5 2.5 2.5 2.5 2.5 2.5 2.5 2.5 2.5 2.5 2.5 2.5 2.5 2.5 2.5 2.5 2.5 2.5 2.49999 2.49998 2.49993 2.49983 2.49956 2.49891 2.49757 2.49511 2.49109 2.48508 2.4768 2.46609 2.45291 2.43738 2.41963 2.39986 2.37825 2.35498 2.33018 2.30401 2.27654 2.24788 2.21809 2.18724 2.15541 2.12267 2.08913 2.05496 2.02041 1.98584 1.95181 1.91913 1.88892 1.86257 1.8415 1.8267 1.81834 1.81556 1.81711 1.82223 1.8322 1.85628 1.95668 2.91932 2.86424 2.86823 2.86588 2.85831 2.84999 2.8444 2.83919 2.83455 2.83154 2.82815 2.82487 2.82307 2.82001 2.81706 2.8071 2.80279 2.8059 2.80701 2.80711 2.80813 2.80845 2.80861 2.80861 2.80854 2.8085 2.80836 2.80812 2.80775 2.80772 2.80743 2.80737 2.80702 2.8069 2.80706 2.80742 2.80638 2.80318 2.80215 2.81122 2.83283 2.81148 2.66106 2.21257 2.03198 2.0051 2.00083 2.00014 2.00002 2 2 2 2 2 2 2 2 2 2 2 2 2 2 2 2 2 2 2 2 2 2 2 2 2 2 2 2 2 2 2 2 2 2 2 2 2 2 2 2 2 2 2 2 2 2 2 2 2 2 2 2.5 2.5 2.5 2.5 2.5 2.5 2.5 2.5 2.5 2.5 2.5 2.5 2.5 2.5 2.5 2.5 2.5 2.5 2.5 2.5 2.5 2.5 2.5 2.5 2.5 2.5 2.5 2.5 2.5 2.5 2.5 2.5 2.5 2.5 2.5 2.5 2.5 2.5 2.5 2.5 2.5 2.5 2.5 2.5 2.5 2.5 2.5 2.5 2.5 2.5 2.5 2.5 2.5 2.5 2.5 2.5 2.5 2.49999 2.49998 2.49993 2.49983 2.49956 2.49891 2.49757 2.49511 2.49109 2.48508 2.4768 2.46609 2.45291 2.43738 2.41963 2.39986 2.37825 2.35498 2.33018 2.30401 2.27654 2.24788 2.21809 2.18724 2.15541 2.12267 2.08913 2.05496 2.02041 1.98584 1.95181 1.91913 1.88892 1.86257 1.8415 1.8267 1.81834 1.81556 1.8171 1.82221 1.83216 1.85624 1.9567 2.91943 2.8644 2.86832 2.86593 2.8583 2.84997 2.84434 2.83923 2.83447 2.83164 2.82791 2.82542 2.8226 2.82042 2.81681 2.80687 2.80153 2.80522 2.80661 2.80688 2.80827 2.80852 2.80867 2.80868 2.80837 2.80855 2.80836 2.80788 2.80776 2.80746 2.80747 2.80701 2.80685 2.80636 2.80644 2.80697 2.80627 2.80513 2.8021 2.81058 2.83276 2.81118 2.66163 2.21202 2.03187 2.00508 2.00083 2.00014 2.00002 2 2 2 2 2 2 2 2 2 2 2 2 2 2 2 2 2 2 2 2 2 2 2 2 2 2 2 2 2 2 2 2 2 2 2 2 2 2 2 2 2 2 2 2 2 2 2 2 2 2 2 2.5 2.5 2.5 2.5 2.5 2.5 2.5 2.5 2.5 2.5 2.5 2.5 2.5 2.5 2.5 2.5 2.5 2.5 2.5 2.5 2.5 2.5 2.5 2.5 2.5 2.5 2.5 2.5 2.5 2.5 2.5 2.5 2.5 2.5 2.5 2.5 2.5 2.5 2.5 2.5 2.5 2.5 2.5 2.5 2.5 2.5 2.5 2.5 2.5 2.5 2.5 2.5 2.5 2.5 2.5 2.5 2.5 2.49999 2.49998 2.49993 2.49983 2.49956 2.49891 2.49757 2.49511 2.49109 2.48508 2.4768 2.46609 2.45291 2.43738 2.41963 2.39986 2.37825 2.35498 2.33018 2.30401 2.27654 2.24788 2.21809 2.18724 2.15541 2.12267 2.08913 2.05496 2.02041 1.98584 1.95181 1.91913 1.88892 1.86257 1.8415 1.8267 1.81834 1.81556 1.8171 1.8222 1.83213 1.85619 1.9566 2.91921 2.8642 2.8682 2.86586 2.85833 2.84992 2.84417 2.83913 2.83441 2.83144 2.82795 2.82485 2.82299 2.82002 2.81626 2.80621 2.80239 2.8059 2.80684 2.80714 2.80803 2.80863 2.80869 2.80859 2.8084 2.80852 2.80823 2.80789 2.80743 2.80744 2.80732 2.80693 2.80666 2.80628 2.80652 2.80667 2.80652 2.80496 2.80246 2.80963 2.83128 2.81094 2.66486 2.21288 2.03183 2.00507 2.00083 2.00013 2.00002 2 2 2 2 2 2 2 2 2 2 2 2 2 2 2 2 2 2 2 2 2 2 2 2 2 2 2 2 2 2 2 2 2 2 2 2 2 2 2 2 2 2 2 2 2 2 2 2 2 2 2
				</DataArray>
				<DataArray Name="F1" type="Float32" format="ascii">
 1 1 1 1 1 1 1 1 1 1 1 1 1 1 1 1 1 1 1 1 1 1 1 1 1 1 1 1 1 1 1 1 1 1 1 1 1 1 1 1 1 1 1 1 1 1 1 1 1 1 1 1 1 1 1 1 1 1 1 1 1 1 1 1 1 1 1 1 1 1 1 1 1 1 1 1 1 1 1 1 1 1 1 1 1 1 1 1 1 1 1 1 1 1 1 1 1 1 1 1 0 0 0 0 0 0 0 0 0 0 0 0 0 0 0 0 0 0 0 0 0 0 0 0 0 0 0 0 0 0 0 0 0 0 0 0 0 0 0 0 0 0 0 0 0 0 0 0 0 0 0 0 0 0 0 0 0 0 0 0 0 0 0 0 0 0 0 0 0 0 0 0 0 0 0 0 0 0 0 0 0 0 0 0 0 0 0 0 0 0 0 0 0 0 0 0 0 0 0 0 1 1 1 1 1 1 1 1 1 1 1 1 1 1 1 1 1 1 1 1 1 1 1 1 1 1 1 1 1 1 1 1 1 1 1 1 1 1 1 1 1 1 1 1 1 1 1 1 1 1 1 1 1 1 1 1 1 1 1 1 1 1 1 1 1 1 1 1 1 1 1 1 1 1 1 1 1 1 1 1 1 1 1 1 1 1 1 1 1 1 1 1 1 1 1 1 1 1 1 1 0 0 0 0 0 0 0 0 0 0 0 0 0 0 0 0 0 0 0 0 0 0 0 0 0 0 0 0 0 0 0 0 0 0 0 0 0 0 0 0 0 0 0 0 0 0 0 0 0 0 0 0 0 0 0 0 0 0 0 0 0 0 0 0 0 0 0 0 0 0 0 0 0 0 0 0 0 0 0 0 0 0 0 0 0 0 0 0 0 0 0 0 0 0 0 0 0 0 0 0 1 1 1 1 1 1 1 1 1 1 1 1 1 1 1 1 1 1 1 1 1 1 1 1 1 1 1 1 1 1 1 1 1 1 1 1 1 1 1 1 1 1 1 1 1 1 1 1 1 1 1 1 1 1 1 1 1 1 1 1 1 1 1 1 1 1 1 1 1 1 1 1 1 1 1 1 1 1 1 1 1 1 1 1 1 1 1 1 1 1 1 1 1 1 1 1 1 1 1 1 0 0 0 0 0 0 0 0 0 0 0 0 0 0 0 0 0 0 0 0 0 0 0 0 0 0 0 0 0 0 0 0 0 0 0 0 0 0 0 0 0 0 0 0 0 0 0 0 0 0 0 0 0 0 0 0 0 0 0 0 0 0 0 0 0 0 0 0 0 0 0 0 0 0 0 0 0 0 0 0 0 0 0 0 0 0 0 0 0 0 0 0 0 0 0 0 0 0 0 0 1 1 1 1 1 1 1 1 1 1 1 1 1 1 1 1 1 1 1 1 1 1 1 1 1 1 1 1 1 1 1 1 1 1 1 1 1 1 1 1 1 1 1 1 1 1 1 1 1 1 1 1 1 1 1 1 1 1 1 1 1 1 1 1 1 1 1 1 1 1 1 1 1 1 1 1 1 1 1 1 1 1 1 1 1 1 1 1 1 1 1 1 1 1 1 1 1 1 1 1 0 0 0 0 0 0 0 0 0 0 0 0 0 0 0 0 0 0 0 0 0 0 0 0 0 0 0 0 0 0 0 0 0 0 0 0 0 0 0 0 0 0 0 0 0 0 0 0 0 0 0 0 0 0 0 0 0 0 0 0 0 0 0 0 0 0 0 0 0 0 0 0 0 0 0 0 0 0 0 0 0 0 0 0 0 0 0 0 0 0 0 0 0 0 0 0 0 0 0 0 1 1 1 1 1 1 1 1 1 1 1 1 1 1 1 1 1 1 1 1 1 1 1 1 1 1 1 1 1 1 1 1 1 1 1 1 1 1 1 1 1 1 1 1 1 1 1 1 1 1 1 1 1 1 1 1 1 1 1 1 1 1 1 1 1 1 1 1 1 1 1 1 1 1 1 1 1 1 1 1 1 1 1 1 1 1 1 1 1 1 1 1 1 1 1 1 1 1 1 1 0 0 0 0 0 0 0 0 0 0 0 0 0 0 0 0 0 0 0 0 0 0 0 0 0 0 0 0 0 0 0 0 0 0 0 0 0 0 0 0 0 0 0 0 0 0 0 0 0 0 0 0 0 0 0 0 0 0 0 0 0 0 0 0 0 0 0 0 0 0 0 0 0 0 0 0 0 0 0 0 0 0 0 0 0 0 0 0 0 0 0 0 0 0 0 0 0 0 0 0
				</DataArray>
				<DataArray Name="F2" type="Float32" format="ascii">
 0 0 0 0 0 0 0 0 0 0 0 0 0 0 0 0 0 0 0 0 0 0 0 0 0 0 0 0 0 0 0 0 0 0 0 0 0 0 0 0 0 0 0 0 0 0 0 0 0 0 0 0 0 0 0 0 0 0 0 0 0 0 0 0 0 0 0 0 0 0 0 0 0 0 0 0 0 0 0 0 0 0 0 0 0 0 0 0 0 0 0 0 0 0 0 0 0 0 0 0 1 1 1 1 1 1 1 1 1 1 1 1 1 1 1 1 1 1 1 1 1 1 1 1 1 1 1 1 1 1 1 1 1 1 1 1 1 1 1 1 1 1 1 1 1 1 1 1 1 1 1 1 1 1 1 1 1 1 1 1 1 1 1 1 1 1 1 1 1 1 1 1 1 1 1 1 1 1 1 1 1 1 1 1 1 1 1 1 1 1 1 1 1 1 1 1 1 1 1 1 0 0 0 0 0 0 0 0 0 0 0 0 0 0 0 0 0 0 0 0 0 0 0 0 0 0 0 0 0 0 0 0 0 0 0 0 0 0 0 0 0 0 0 0 0 0 0 0 0 0 0 0 0 0 0 0 0 0 0 0 0 0 0 0 0 0 0 0 0 0 0 0 0 0 0 0 0 0 0 0 0 0 0 0 0 0 0 0 0 0 0 0 0 0 0 0 0 0 0 0 1 1 1 1 1 1 1 1 1 1 1 1 1 1 1 1 1 1 1 1 1 1 1 1 1 1 1 1 1 1 1 1 1 1 1 1 1 1 1 1 1 1 1 1 1 1 1 1 1 1 1 1 1 1 1 1 1 1 1 1 1 1 1 1 1 1 1 1 1 1 1 1 1 1 1 1 1 1 1 1 1 1 1 1 1 1 1 1 1 1 1 1 1 1 1 1 1 1 1 1 0 0 0 0 0 0 0 0 0 0 0 0 0 0 0 0 0 0 0 0 0 0 0 0 0 0 0 0 0 0 0 0 0 0 0 0 0 0 0 0 0 0 0 0 0 0 0 0 0 0 0 0 0 0 0 0 0 0 0 0 0 0 0 0 0 0 0 0 0 0 0 0 0 0 0 0 0 0 0 0 0 0 0 0 0 0 0 0 0 0 0 0 0 0 0 0 0 0 0 0 1 1 1 1 1 1 1 1 1 1 1 1 1 1 1 1 1 1 1 1 1 1 1 1 1 1 1 1 1 1 1 1 1 1 1 1 1 1 1 1 1 1 1 1 1 1 1 1 1 1 1 1 1 1 1 1 1 1 1 1 1 1 1 1 1 1 1 1 1 1 1 1 1 1 1 1 1 1 1 1 1 1 1 1 1 1 1 1 1 1 1 1 1 1 1 1 1 1 1 1 0 0 0 0 0 0 0 0 0 0 0 0 0 0 0 0 0 0 0 0 0 0 0 0 0 0 0 0 0 0 0 0 0 0 0 0 0 0 0 0 0 0 0 0 0 0 0 0 0 0 0 0 0 0 0 0 0 0 0 0 0 0 0 0 0 0 0 0 0 0 0 0 0 0 0 0 0 0 0 0 0 0 0 0 0 0 0 0 0 0 0 0 0 0 0 0 0 0 0 0 1 1 1 1 1 1 1 1 1 1 1 1 1 1 1 1 1 1 1 1 1 1 1 1 1 1 1 1 1 1 1 1 1 1 1 1 1 1 1 1 1 1 1 1 1 1 1 1 1 1 1 1 1 1 1 1 1 1 1 1 1 1 1 1 1 1 1 1 1 1 1 1 1 1 1 1 1 1 1 1 1 1 1 1 1 1 1 1 1 1 1 1 1 1 1 1 1 1 1 1 0 0 0 0 0 0 0 0 0 0 0 0 0 0 0 0 0 0 0 0 0 0 0 0 0 0 0 0 0 0 0 0 0 0 0 0 0 0 0 0 0 0 0 0 0 0 0 0 0 0 0 0 0 0 0 0 0 0 0 0 0 0 0 0 0 0 0 0 0 0 0 0 0 0 0 0 0 0 0 0 0 0 0 0 0 0 0 0 0 0 0 0 0 0 0 0 0 0 0 0 1 1 1 1 1 1 1 1 1 1 1 1 1 1 1 1 1 1 1 1 1 1 1 1 1 1 1 1 1 1 1 1 1 1 1 1 1 1 1 1 1 1 1 1 1 1 1 1 1 1 1 1 1 1 1 1 1 1 1 1 1 1 1 1 1 1 1 1 1 1 1 1 1 1 1 1 1 1 1 1 1 1 1 1 1 1 1 1 1 1 1 1 1 1 1 1 1 1 1 1
				</DataArray>
				<DataArray Name="F3" type="Float32" format="ascii">
 0 0 0 0 0 0 0 0 0 0 0 0 0 0 0 0 0 0 0 0 0 0 0 0 0 0 0 0 0 0 0 0 0 0 0 0 0 0 0 0 0 0 0 0 0 0 0 0 0 0 0 0 0 0 0 0 0 0 0 0 0 0 0 0 0 0 0 0 0 0 0 0 0 0 0 0 0 0 0 0 0 0 0 0 0 0 0 0 0 0 0 0 0 0 0 0 0 0 0 0 0 0 0 0 0 0 0 0 0 0 0 0 0 0 0 0 0 0 0 0 0 0 0 0 0 0 0 0 0 0 0 0 0 0 0 0 0 0 0 0 0 0 0 0 0 0 0 0 0 0 0 0 0 0 0 0 0 0 0 0 0 0 0 0 0 0 0 0 0 0 0 0 0 0 0 0 0 0 0 0 0 0 0 0 0 0 0 0 0 0 0 0 0 0 0 0 0 0 0 0 0 0 0 0 0 0 0 0 0 0 0 0 0 0 0 0 0 0 0 0 0 0 0 0 0 0 0 0 0 0 0 0 0 0 0 0 0 0 0 0 0 0 0 0 0 0 0 0 0 0 0 0 0 0 0 0 0 0 0 0 0 0 0 0 0 0 0 0 0 0 0 0 0 0 0 0 0 0 0 0 0 0 0 0 0 0 0 0 0 0 0 0 0 0 0 0 0 0 0 0 0 0 0 0 0 0 0 0 0 0 0 0 0 0 0 0 0 0 0 0 0 0 0 0 0 0 0 0 0 0 0 0 0 0 0 0 0 0 0 0 0 0 0 0 0 0 0 0 0 0 0 0 0 0 0 0 0 0 0 0 0 0 0 0 0 0 0 0 0 0 0 0 0 0 0 0 0 0 0 0 0 0 0 0 0 0 0 0 0 0 0 0 0 0 0 0 0 0 0 0 0 0 0 0 0 0 0 0 0 0 0 0 0 0 0 0 0 0 0 0 0 0 0 0 0 0 0 0 0 0 0 0 0 0 0 0 0 0 0 0 0 0 0 0 0 0 0 0 0 0 0 0 0 0 0 0 0 0 0 0 0 0 0 0 0 0 0 0 0 0 0 0 0 0 0 0 0 0 0 0 0 0 0 0 0 0 0 0 0 0 0 0 0 0 0 0 0 0 0 0 0 0 0 0 0 0 0 0 0 0 0 0 0 0 0 0 0 0 0 0 0 0 0 0 0 0 0 0 0 0 0 0 0 0 0 0 0 0 0 0 0 0 0 0 0 0 0 0 0 0 0 0 0 0 0 0 0 0 0 0 0 0 0 0 0 0 0 0 0 0 0 0 0 0 0 0 0 0 0 0 0 0 0 0 0 0 0 0 0 0 0 0 0 0 0 0 0 0 0 0 0 0 0 0 0 0 0 0 0 0 0 0 0 0 0 0 0 0 0 0 0 0 0 0 0 0 0 0 0 0 0 0 0 0 0 0 0 0 0 0 0 0 0 0 0 0 0 0 0 0 0 0 0 0 0 0 0 0 0 0 0 0 0 0 0 0 0 0 0 0 0 0 0 0 0 0 0 0 0 0 0 0 0 0 0 0 0 0 0 0 0 0 0 0 0 0 0 0 0 0 0 0 0 0 0 0 0 0 0 0 0 0 0 0 0 0 0 0 0 0 0 0 0 0 0 0 0 0 0 0 0 0 0 0 0 0 0 0 0 0 0 0 0 0 0 0 0 0 0 0 0 0 0 0 0 0 0 0 0 0 0 0 0 0 0 0 0 0 0 0 0 0 0 0 0 0 0 0 0 0 0 0 0 0 0 0 0 0 0 0 0 0 0 0 0 0 0 0 0 0 0 0 0 0 0 0 0 0 0 0 0 0 0 0 0 0 0 0 0 0 0 0 0 0 0 0 0 0 0 0 0 0 0 0 0 0 0 0 0 0 0 0 0 0 0 0 0 0 0 0 0 0 0 0 0 0 0 0 0 0 0 0 0 0 0 0 0 0 0 0 0 0 0 0 0 0 0 0 0 0 0 0 0 0 0 0 0 0 0 0 0 0 0 0 0 0 0 0 0 0 0 0 0 0 0 0 0 0 0 0 0 0 0 0 0 0 0 0 0 0 0 0 0 0 0 0 0 0 0 0 0 0 0 0 0 0 0 0 0 0 0 0 0 0 0 0 0 0 0 0 0 0 0 0 0 0 0 0 0 0 0 0 0 0 0 0 0 0 0 0 0 0 0 0 0 0 0 0 0 0 0 0 0 0 0 0 0 0 0 0 0 0 0 0 0 0 0 0 0 0
				</DataArray>
				<DataArray Name="Pressure" type="Float32" format="ascii">