<?xml version="1.0"?>
<VTKFile type="PolyData">
	<PolyData>
		<Piece NumberOfPoints="1206" NumberOfPolys="1000">
			<Points>
				<DataArray type="Float32" NumberOfComponents="3" format="ascii">
 0 0 0 0.005 0 0 0.01 0 0 0.015 0 0 0.02 0 0 0.025 0 0 0.03 0 0 0.035 0 0 0.04 0 0 0.045 0 0 0.05 0 0 0.055 0 0 0.06 0 0 0.065 0 0 0.07 0 0 0.075 0 0 0.08 0 0 0.085 0 0 0.09 0 0 0.095 0 0 0.1 0 0 0.105 0 0 0.11 0 0 0.115 0 0 0.12 0 0 0.125 0 0 0.13 0 0 0.135 0 0 0.14 0 0 0.145 0 0 0.15 0 0 0.155 0 0 0.16 0 0 0.165 0 0 0.17 0 0 0.175 0 0 0.18 0 0 0.185 0 0 0.19 0 0 0.195 0 0 0.2 0 0 0.205 0 0 0.21 0 0 0.215 0 0 0.22 0 0 0.225 0 0 0.23 0 0 0.235 0 0 0.24 0 0 0.245 0 0 0.25 0 0 0.255 0 0 0.26 0 0 0.265 0 0 0.27 0 0 0.275 0 0 0.28 0 0 0.285 0 0 0.29 0 0 0.295 0 0 0.3 0 0 0.305 0 0 0.31 0 0 0.315001 0 0 0.320002 0 0 0.325004 0 0 0.330011 0 0 0.335027 0 0 0.340058 0 0 0.345115 0 0 0.35021 0 0 0.355358 0 0 0.360576 0 0 0.365879 0 0 0.371285 0 0 0.376812 0 0 0.382477 0 0 0.388297 0 0 0.394292 0 0 0.400481 0 0 0.406883 0 0 0.413522 0 0 0.420421 0 0 0.427607 0 0 0.435107 0 0 0.442953 0 0 0.451178 0 0 0.459816 0 0 0.4689 0 0 0.478461 0 0 0.488515 0 0 0.499058 0 0 0.510057 0 0 0.521442 0 0 0.533113 0 0 0.544971 0 0 0.556936 0 0 0.56897 0 0 0.581079 0 0 0.593347 0 0 0.60628 0 0 0.608692 0 0 0.611059 0 0 0.613428 0 0 0.615795 0 0 0.618154 0 0 0.620507 0 0 0.622853 0 0 0.625199 0 0 0.627541 0 0 0.629888 0 0 0.632217 0 0 0.63457 0 0 0.636906 0 0 0.639344 0 0 0.641876 0 0 0.644409 0 0 0.646814 0 0 0.649109 0 0 0.651394 0 0 0.653697 0 0 0.656013 0 0 0.658332 0 0 0.660655 0 0 0.662972 0 0 0.665287 0 0 0.667604 0 0 0.669925 0 0 0.672247 0 0 0.674566 0 0 0.676881 0 0 0.679198 0 0 0.681519 0 0 0.683836 0 0 0.686148 0 0 0.688468 0 0 0.690767 0 0 0.693028 0 0 0.695191 0 0 0.697413 0 0 0.700507 0 0 0.705089 0 0 0.710015 0 0 0.715002 0 0 0.72 0 0 0.725 0 0 0.73 0 0 0.735 0 0 0.74 0 0 0.745 0 0 0.75 0 0 0.755 0 0 0.76 0 0 0.765 0 0 0.77 0 0 0.775 0 0 0.78 0 0 0.785 0 0 0.79 0 0 0.795 0 0 0.8 0 0 0.805 0 0 0.81 0 0 0.815 0 0 0.82 0 0 0.825 0 0 0.83 0 0 0.835 0 0 0.84 0 0 0.845 0 0 0.85 0 0 0.855 0 0 0.86 0 0 0.865 0 0 0.87 0 0 0.875 0 0 0.88 0 0 0.885 0 0 0.89 0 0 0.895 0 0 0.9 0 0 0.905 0 0 0.91 0 0 0.915 0 0 0.92 0 0 0.925 0 0 0.93 0 0 0.935 0 0 0.94 0 0 0.945 0 0 0.95 0 0 0.955 0 0 0.96 0 0 0.965 0 0 0.97 0 0 0.975 0 0 0.98 0 0 0.985 0 0 0.99 0 0 0.995 0 0 1 0 0 0 0.02 0 0.005 0.02 0 0.01 0.02 0 0.015 0.02 0 0.02 0.02 0 0.025 0.02 0 0.03 0.02 0 0.035 0.02 0 0.04 0.02 0 0.045 0.02 0 0.05 0.02 0 0.055 0.02 0 0.06 0.02 0 0.065 0.02 0 0.07 0.02 0 0.075 0.02 0 0.08 0.02 0 0.085 0.02 0 0.09 0.02 0 0.095 0.02 0 0.1 0.02 0 0.105 0.02 0 0.11 0.02 0 0.115 0.02 0 0.12 0.02 0 0.125 0.02 0 0.13 0.02 0 0.135 0.02 0 0.14 0.02 0 0.145 0.02 0 0.15 0.02 0 0.155 0.02 0 0.16 0.02 0 0.165 0.02 0 0.17 0.02 0 0.175 0.02 0 0.18 0.02 0 0.185 0.02 0 0.19 0.02 0 0.195 0.02 0 0.2 0.02 0 0.205 0.02 0 0.21 0.02 0 0.215 0.02 0 0.22 0.02 0 0.225 0.02 0 0.23 0.02 0 0.235 0.02 0 0.24 0.02 0 0.245 0.02 0 0.25 0.02 0 0.255 0.02 0 0.26 0.02 0 0.265 0.02 0 0.27 0.02 0 0.275 0.02 0 0.28 0.02 0 0.285 0.02 0 0.29 0.02 0 0.295 0.02 0 0.3 0.02 0 0.305 0.02 0 0.31 0.02 0 0.315001 0.02 0 0.320002 0.02 0 0.325004 0.02 0 0.330011 0.02 0 0.335027 0.02 0 0.340058 0.02 0 0.345115 0.02 0 0.35021 0.02 0 0.355358 0.02 0 0.360576 0.02 0 0.365879 0.02 0 0.371285 0.02 0 0.376812 0.02 0 0.382477 0.02 0 0.388297 0.02 0 0.394292 0.02 0 0.400481 0.02 0 0.406883 0.02 0 0.413522 0.02 0 0.420421 0.02 0 0.427607 0.02 0 0.435107 0.02 0 0.442953 0.02 0 0.451178 0.02 0 0.459816 0.02 0 0.4689 0.02 0 0.478461 0.02 0 0.488515 0.02 0 0.499058 0.02 0 0.510057 0.02 0 0.521442 0.02 0 0.533113 0.02 0 0.544971 0.02 0 0.556936 0.02 0 0.56897 0.02 0 0.581079 0.0199999 0 0.593347 0.0199998 0 0.606279 0.0199981 0 0.608691 0.019997 0 0.611058 0.0199978 0 0.613428 0.0200004 0 0.615796 0.0200027 0 0.618157 0.0200047 0 0.62051 0.0200057 0 0.622859 0.0200054 0 0.6252 0.0200066 0 0.627536 0.0200124 0 0.62986 0.020016 0 0.632194 0.02002 0 0.634496 0.0200256 0 0.636811 0.0200278 0 0.639018 0.0200201 0 0.641132 0.0200149 0 0.643231 0.0200104 0 0.645452 0.0200052 0 0.64779 0.0200008 0 0.650142 0.0199971 0 0.652479 0.0199954 0 0.654806 0.0199937 0 0.657129 0.0199942 0 0.65945 0.0199915 0 0.661777 0.0199907 0 0.664105 0.0199932 0 0.66643 0.019995 0 0.66875 0.0199949 0 0.671067 0.0199931 0 0.673388 0.0199917 0 0.675713 0.0199927 0 0.678033 0.0199928 0 0.680347 0.0199935 0 0.682665 0.0199917 0 0.684989 0.0199907 0 0.687323 0.0199899 0 0.689666 0.0199907 0 0.691959 0.019993 0 0.694303 0.0199957 0 0.696989 0.0199986 0 0.700508 0.0199998 0 0.705089 0.02 0 0.710015 0.02 0 0.715002 0.02 0 0.72 0.02 0 0.725 0.02 0 0.73 0.02 0 0.735 0.02 0 0.74 0.02 0 0.745 0.02 0 0.75 0.02 0 0.755 0.02 0 0.76 0.02 0 0.765 0.02 0 0.77 0.02 0 0.775 0.02 0 0.78 0.02 0 0.785 0.02 0 0.79 0.02 0 0.795 0.02 0 0.8 0.02 0 0.805 0.02 0 0.81 0.02 0 0.815 0.02 0 0.82 0.02 0 0.825 0.02 0 0.83 0.02 0 0.835 0.02 0 0.84 0.02 0 0.845 0.02 0 0.85 0.02 0 0.855 0.02 0 0.86 0.02 0 0.865 0.02 0 0.87 0.02 0 0.875 0.02 0 0.88 0.02 0 0.885 0.02 0 0.89 0.02 0 0.895 0.02 0 0.9 0.02 0 0.905 0.02 0 0.91 0.02 0 0.915 0.02 0 0.92 0.02 0 0.925 0.02 0 0.93 0.02 0 0.935 0.02 0 0.94 0.02 0 0.945 0.02 0 0.95 0.02 0 0.955 0.02 0 0.96 0.02 0 0.965 0.02 0 0.97 0.02 0 0.975 0.02 0 0.98 0.02 0 0.985 0.02 0 0.99 0.02 0 0.995 0.02 0 1 0.02 0 0 0.04 0 0.005 0.04 0 0.01 0.04 0 0.015 0.04 0 0.02 0.04 0 0.025 0.04 0 0.03 0.04 0 0.035 0.04 0 0.04 0.04 0 0.045 0.04 0 0.05 0.04 0 0.055 0.04 0 0.06 0.04 0 0.065 0.04 0 0.07 0.04 0 0.075 0.04 0 0.08 0.04 0 0.085 0.04 0 0.09 0.04 0 0.095 0.04 0 0.1 0.04 0 0.105 0.04 0 0.11 0.04 0 0.115 0.04 0 0.12 0.04 0 0.125 0.04 0 0.13 0.04 0 0.135 0.04 0 0.14 0.04 0 0.145 0.04 0 0.15 0.04 0 0.155 0.04 0 0.16 0.04 0 0.165 0.04 0 0.17 0.04 0 0.175 0.04 0 0.18 0.04 0 0.185 0.04 0 0.19 0.04 0 0.195 0.04 0 0.2 0.04 0 0.205 0.04 0 0.21 0.04 0 0.215 0.04 0 0.22 0.04 0 0.225 0.04 0 0.23 0.04 0 0.235 0.04 0 0.24 0.04 0 0.245 0.04 0 0.25 0.04 0 0.255 0.04 0 0.26 0.04 0 0.265 0.04 0 0.27 0.04 0 0.275 0.04 0 0.28 0.04 0 0.285 0.04 0 0.29 0.04 0 0.295 0.04 0 0.3 0.04 0 0.305 0.04 0 0.31 0.04 0 0.315001 0.04 0 0.320002 0.04 0 0.325004 0.04 0 0.330011 0.04 0 0.335027 0.04 0 0.340058 0.04 0 0.345115 0.04 0 0.35021 0.04 0 0.355358 0.04 0 0.360576 0.04 0 0.365879 0.04 0 0.371285 0.04 0 0.376812 0.04 0 0.382477 0.04 0 0.388297 0.04 0 0.394292 0.04 0 0.400481 0.04 0 0.406883 0.04 0 0.413522 0.04 0 0.420421 0.04 0 0.427607 0.04 0 0.435107 0.04 0 0.442953 0.04 0 0.451178 0.04 0 0.459816 0.04 0 0.4689 0.04 0 0.478461 0.04 0 0.488515 0.04 0 0.499058 0.04 0 0.510057 0.04 0 0.521442 0.04 0 0.533113 0.04 0 0.544971 0.04 0 0.556936 0.04 0 0.56897 0.04 0 0.581079 0.0400003 0 0.593347 0.0400006 0 0.606276 0.0400029 0 0.608685 0.0400024 0 0.611048 0.0400026 0 0.613414 0.0400025 0 0.615782 0.0400017 0 0.618144 0.0400009 0 0.620503 0.0399996 0 0.622855 0.0399985 0 0.625208 0.0400017 0 0.627558 0.0400051 0 0.629915 0.0400088 0 0.632256 0.0400149 0 0.634621 0.0400217 0 0.636975 0.0400184 0 0.639435 0.0399949 0 0.641988 0.039987 0 0.644539 0.0399966 0 0.64695 0.0400042 0 0.649246 0.0400005 0 0.651531 0.0399943 0 0.653832 0.0399946 0 0.656145 0.0399951 0 0.65846 0.0399958 0 0.660777 0.0399971 0 0.663086 0.0399945 0 0.665396 0.0399935 0 0.66771 0.0399935 0 0.670029 0.0399942 0 0.672347 0.0399953 0 0.674661 0.0399951 0 0.676971 0.0399933 0 0.679285 0.039993 0 0.681604 0.0399937 0 0.683915 0.039993 0 0.686222 0.0399935 0 0.688538 0.0399943 0 0.690828 0.0399976 0 0.693086 0.0400031 0 0.695244 0.0400029 0 0.697446 0.040001 0 0.700514 0.04 0 0.705089 0.04 0 0.710015 0.04 0 0.715002 0.04 0 0.72 0.04 0 0.725 0.04 0 0.73 0.04 0 0.735 0.04 0 0.74 0.04 0 0.745 0.04 0 0.75 0.04 0 0.755 0.04 0 0.76 0.04 0 0.765 0.04 0 0.77 0.04 0 0.775 0.04 0 0.78 0.04 0 0.785 0.04 0 0.79 0.04 0 0.795 0.04 0 0.8 0.04 0 0.805 0.04 0 0.81 0.04 0 0.815 0.04 0 0.82 0.04 0 0.825 0.04 0 0.83 0.04 0 0.835 0.04 0 0.84 0.04 0 0.845 0.04 0 0.85 0.04 0 0.855 0.04 0 0.86 0.04 0 0.865 0.04 0 0.87 0.04 0 0.875 0.04 0 0.88 0.04 0 0.885 0.04 0 0.89 0.04 0 0.895 0.04 0 0.9 0.04 0 0.905 0.04 0 0.91 0.04 0 0.915 0.04 0 0.92 0.04 0 0.925 0.04 0 0.93 0.04 0 0.935 0.04 0 0.94 0.04 0 0.945 0.04 0 0.95 0.04 0 0.955 0.04 0 0.96 0.04 0 0.965 0.04 0 0.97 0.04 0 0.975 0.04 0 0.98 0.04 0 0.985 0.04 0 0.99 0.04 0 0.995 0.04 0 1 0.04 0 0 0.06 0 0.005 0.06 0 0.01 0.06 0 0.015 0.06 0 0.02 0.06 0 0.025 0.06 0 0.03 0.06 0 0.035 0.06 0 0.04 0.06 0 0.045 0.06 0 0.05 0.06 0 0.055 0.06 0 0.06 0.06 0 0.065 0.06 0 0.07 0.06 0 0.075 0.06 0 0.08 0.06 0 0.085 0.06 0 0.09 0.06 0 0.095 0.06 0 0.1 0.06 0 0.105 0.06 0 0.11 0.06 0 0.115 0.06 0 0.12 0.06 0 0.125 0.06 0 0.13 0.06 0 0.135 0.06 0 0.14 0.06 0 0.145 0.06 0 0.15 0.06 0 0.155 0.06 0 0.16 0.06 0 0.165 0.06 0 0.17 0.06 0 0.175 0.06 0 0.18 0.06 0 0.185 0.06 0 0.19 0.06 0 0.195 0.06 0 0.2 0.06 0 0.205 0.06 0 0.21 0.06 0 0.215 0.06 0 0.22 0.06 0 0.225 0.06 0 0.23 0.06 0 0.235 0.06 0 0.24 0.06 0 0.245 0.06 0 0.25 0.06 0 0.255 0.06 0 0.26 0.06 0 0.265 0.06 0 0.27 0.06 0 0.275 0.06 0 0.28 0.06 0 0.285 0.06 0 0.29 0.06 0 0.295 0.06 0 0.3 0.06 0 0.305 0.06 0 0.31 0.06 0 0.315001 0.06 0 0.320002 0.06 0 0.325004 0.06 0 0.330011 0.06 0 0.335027 0.06 0 0.340058 0.06 0 0.345115 0.06 0 0.35021 0.06 0 0.355358 0.06 0 0.360576 0.06 0 0.365879 0.06 0 0.371285 0.06 0 0.376812 0.06 0 0.382477 0.06 0 0.388297 0.06 0 0.394292 0.06 0 0.400481 0.06 0 0.406883 0.06 0 0.413522 0.06 0 0.420421 0.06 0 0.427607 0.06 0 0.435107 0.06 0 0.442953 0.06 0 0.451178 0.06 0 0.459816 0.06 0 0.4689 0.06 0 0.478461 0.06 0 0.488515 0.06 0 0.499058 0.06 0 0.510057 0.06 0 0.521442 0.06 0 0.533113 0.06 0 0.544971 0.06 0 0.556936 0.06 0 0.568971 0.06 0 0.58108 0.0600005 0 0.593349 0.060001 0 0.606282 0.0600071 0 0.608693 0.06001 0 0.611058 0.0600114 0 0.613427 0.0600108 0 0.615791 0.0600083 0 0.618149 0.0600055 0 0.620496 0.0600063 0 0.62284 0.0600064 0 0.625175 0.0600076 0 0.627506 0.0600058 0 0.629829 0.0600016 0 0.632165 0.0599975 0 0.634478 0.0599925 0 0.636802 0.0599896
[...]
			<CellData Scalars="Density">
				<DataArray Name="Density" type="Float32" format="ascii">
 1 1 1 1 1 1 1 1 1 1 1 1 1 1 1 1 1 1 1 1 1 1 1 1 1 1 1 1 1 1 1 1 1 1 1 1 1 1 1 1 1 1 1 1 1 1 1 1 1 1 1 1 1 1 1 1 1 1 0.999999 0.999996 0.999989 0.99997 0.99992 0.99979 0.999457 0.998636 0.996929 0.993809 0.988753 0.981303 0.971191 0.958327 0.942805 0.924836 0.904687 0.882665 0.859028 0.834064 0.807955 0.780936 0.753135 0.724732 0.695853 0.666643 0.637269 0.607913 0.578835 0.550368 0.522987 0.497331 0.474221 0.454581 0.439202 0.428392 0.421678 0.417876 0.41548 0.412935 0.407544 0.386642 0.259146 0.264133 0.263776 0.264005 0.264703 0.265491 0.266032 0.266512 0.266955 0.267216 0.267564 0.26784 0.26807 0.268318 0.268576 0.269518 0.269996 0.269697 0.269578 0.269501 0.269442 0.269385 0.269401 0.269423 0.269444 0.269467 0.269518 0.269573 0.26964 0.269645 0.269721 0.26985 0.269948 0.269861 0.268916 0.269532 0.27474 0.277459 0.254756 0.189017 0.136426 0.126889 0.125309 0.12505 0.125008 0.125001 0.125 0.125 0.125 0.125 0.125 0.125 0.125 0.125 0.125 0.125 0.125 0.125 0.125 0.125 0.125 0.125 0.125 0.125 0.125 0.125 0.125 0.125 0.125 0.125 0.125 0.125 0.125 0.125 0.125 0.125 0.125 0.125 0.125 0.125 0.125 0.125 0.125 0.125 0.125 0.125 0.125 0.125 0.125 0.125 0.125 0.125 0.125 0.125 0.125 0.125 0.125 0.125 0.125 0.125 1 1 1 1 1 1 1 1 1 1 1 1 1 1 1 1 1 1 1 1 1 1 1 1 1 1 1 1 1 1 1 1 1 1 1 1 1 1 1 1 1 1 1 1 1 1 1 1 1 1 1 1 1 1 1 1 1 1 0.999999 0.999996 0.999989 0.99997 0.99992 0.99979 0.999457 0.998636 0.996929 0.993809 0.988753 0.981303 0.971191 0.958327 0.942805 0.924836 0.904687 0.882665 0.859028 0.834064 0.807955 0.780936 0.753135 0.724732 0.695853 0.666643 0.637269 0.607913 0.578835 0.550368 0.522987 0.497331 0.474221 0.454581 0.439202 0.428391 0.421676 0.417874 0.415479 0.412934 0.407549 0.386662 0.259157 0.264132 0.263786 0.263985 0.264696 0.265458 0.266025 0.266477 0.266947 0.267249 0.267553 0.267917 0.267983 0.268291 0.268602 0.269474 0.270065 0.269747 0.26959 0.269568 0.269427 0.26945 0.269438 0.269478 0.269484 0.269497 0.269507 0.269611 0.269658 0.269636 0.269675 0.269857 0.270065 0.269814 0.268755 0.269631 0.27443 0.277386 0.255632 0.189723 0.136517 0.126894 0.125309 0.12505 0.125008 0.125001 0.125 0.125 0.125 0.125 0.125 0.125 0.125 0.125 0.125 0.125 0.125 0.125 0.125 0.125 0.125 0.125 0.125 0.125 0.125 0.125 0.125 0.125 0.125 0.125 0.125 0.125 0.125 0.125 0.125 0.125 0.125 0.125 0.125 0.125 0.125 0.125 0.125 0.125 0.125 0.125 0.125 0.125 0.125 0.125 0.125 0.125 0.125 0.125 0.125 0.125 0.125 0.125 0.125 0.125 1 1 1 1 1 1 1 1 1 1 1 1 1 1 1 1 1 1 1 1 1 1 1 1 1 1 1 1 1 1 1 1 1 1 1 1 1 1 1 1 1 1 1 1 1 1 1 1 1 1 1 1 1 1 1 1 1 1 0.999999 0.999996 0.999989 0.99997 0.99992 0.99979 0.999457 0.998636 0.996929 0.993809 0.988753 0.981303 0.971191 0.958327 0.942805 0.924836 0.904687 0.882665 0.859028 0.834064 0.807955 0.780936 0.753135 0.724732 0.695853 0.666643 0.637269 0.607913 0.578835 0.550368 0.522987 0.497331 0.474221 0.454581 0.439202 0.428391 0.421675 0.417871 0.415472 0.412925 0.407536 0.386655 0.259187 0.264141 0.263744 0.263973 0.264672 0.265439 0.265968 0.266486 0.266929 0.267187 0.267609 0.267818 0.268114 0.268284 0.268696 0.269554 0.270016 0.269684 0.269507 0.269535 0.269436 0.269439 0.269419 0.269428 0.269476 0.269436 0.269487 0.269531 0.269582 0.269648 0.269617 0.269886 0.269914 0.269545 0.268646 0.269629 0.274695 0.277926 0.255473 0.18901 0.136473 0.126891 0.125309 0.12505 0.125008 0.125001 0.125 0.125 0.125 0.125 0.125 0.125 0.125 0.125 0.125 0.125 0.125 0.125 0.125 0.125 0.125 0.125 0.125 0.125 0.125 0.125 0.125 0.125 0.125 0.125 0.125 0.125 0.125 0.125 0.125 0.125 0.125 0.125 0.125 0.125 0.125 0.125 0.125 0.125 0.125 0.125 0.125 0.125 0.125 0.125 0.125 0.125 0.125 0.125 0.125 0.125 0.125 0.125 0.125 0.125 1 1 1 1 1 1 1 1 1 1 1 1 1 1 1 1 1 1 1 1 1 1 1 1 1 1 1 1 1 1 1 1 1 1 1 1 1 1 1 1 1 1 1 1 1 1 1 1 1 1 1 1 1 1 1 1 1 1 0.999999 0.999996 0.999989 0.99997 0.99992 0.99979 0.999457 0.998636 0.996929 0.993809 0.988753 0.981303 0.971191 0.958327 0.942805 0.924836 0.904687 0.882665 0.859028 0.834064 0.807955 0.780936 0.753135 0.724732 0.695853 0.666643 0.637269 0.607913 0.578835 0.550368 0.522987 0.497331 0.474221 0.454581 0.439202 0.428391 0.421674 0.417868 0.415466 0.412911 0.407505 0.386629 0.25919 0.264133 0.263751 0.263985 0.264668 0.265474 0.265963 0.266532 0.266918 0.267238 0.267524 0.267875 0.268035 0.268296 0.268613 0.269632 0.269994 0.269732 0.269572 0.26952 0.269486 0.269396 0.269443 0.269443 0.269446 0.269466 0.269493 0.269522 0.269575 0.269579 0.269551 0.269789 0.269845 0.26971 0.268974 0.269492 0.274823 0.277887 0.255627 0.188962 0.136438 0.126887 0.125309 0.12505 0.125008 0.125001 0.125 0.125 0.125 0.125 0.125 0.125 0.125 0.125 0.125 0.125 0.125 0.125 0.125 0.125 0.125 0.125 0.125 0.125 0.125 0.125 0.125 0.125 0.125 0.125 0.125 0.125 0.125 0.125 0.125 0.125 0.125 0.125 0.125 0.125 0.125 0.125 0.125 0.125 0.125 0.125 0.125 0.125 0.125 0.125 0.125 0.125 0.125 0.125 0.125 0.125 0.125 0.125 0.125 0.125 1 1 1 1 1 1 1 1 1 1 1 1 1 1 1 1 1 1 1 1 1 1 1 1 1 1 1 1 1 1 1 1 1 1 1 1 1 1 1 1 1 1 1 1 1 1 1 1 1 1 1 1 1 1 1 1 1 1 0.999999 0.999996 0.999989 0.99997 0.99992 0.99979 0.999457 0.998636 0.996929 0.993809 0.988753 0.981303 0.971191 0.958327 0.942805 0.924836 0.904687 0.882665 0.859028 0.834064 0.807955 0.780936 0.753135 0.724732 0.695853 0.666643 0.637269 0.607913 0.578835 0.550368 0.522987 0.497331 0.474221 0.454581 0.439202 0.428391 0.421675 0.417868 0.415464 0.412904 0.407483 0.386567 0.259119 0.264117 0.26378 0.263999 0.2647 0.265467 0.26601 0.266457 0.266929 0.267203 0.267582 0.267833 0.268055 0.268297 0.268653 0.269607 0.270028 0.269669 0.269587 0.269549 0.269429 0.26941 0.269413 0.269421 0.269448 0.26943 0.269481 0.269532 0.269575 0.269547 0.269606 0.269725 0.269917 0.26986 0.269075 0.26952 0.274424 0.277863 0.256021 0.189315 0.13644 0.126883 0.125308 0.12505 0.125008 0.125001 0.125 0.125 0.125 0.125 0.125 0.125 0.125 0.125 0.125 0.125 0.125 0.125 0.125 0.125 0.125 0.125 0.125 0.125 0.125 0.125 0.125 0.125 0.125 0.125 0.125 0.125 0.125 0.125 0.125 0.125 0.125 0.125 0.125 0.125 0.125 0.125 0.125 0.125 0.125 0.125 0.125 0.125 0.125 0.125 0.125 0.125 0.125 0.125 0.125 0.125 0.125 0.125 0.125 0.125
				</DataArray>
				<DataArray Name="Energy" type="Float32" format="ascii">
 2.5 2.5 2.5 2.5 2.5 2.5 2.5 2.5 2.5 2.5 2.5 2.5 2.5 2.5 2.5 2.5 2.5 2.5 2.5 2.5 2.5 2.5 2.5 2.5 2.5 2.5 2.5 2.5 2.5 2.5 2.5 2.5 2.5 2.5 2.5 2.5 2.5 2.5 2.5 2.5 2.5 2.5 2.5 2.5 2.5 2.5 2.5 2.5 2.5 2.5 2.5 2.5 2.5 2.5 2.5 2.5 2.5 2.5 2.5 2.5 2.49999 2.49997 2.49992 2.49979 2.49947 2.49866 2.49697 2.49389 2.4889 2.48152 2.47146 2.45861 2.443 2.42477 2.40412 2.38129 2.35646 2.32985 2.30158 2.27182 2.24065 2.20818 2.17449 2.13968 2.1039 2.06731 2.0302 1.993 1.95637 1.92128 1.88909 1.86148 1.8401 1.82601 1.81914 1.81838 1.82254 1.83224 1.85628 1.95668 2.91924 2.86433 2.86831 2.86603 2.85847 2.85013 2.84438 2.83931 2.83453 2.8315 2.82795 2.82507 2.82298 2.82019 2.8171 2.80757 2.80234 2.8054 2.80656 2.80709 2.80802 2.80839 2.8086 2.80857 2.80872 2.80888 2.80878 2.80844 2.80799 2.80818 2.8082 2.80822 2.80801 2.80752 2.80384 2.80597 2.82584 2.83561 2.74147 2.3978 2.06717 2.01054 2.00171 2.00028 2.00005 2.00001 2 2 2 2 2 2 2 2 2 2 2 2 2 2 2 2 2 2 2 2 2 2 2 2 2 2 2 2 2 2 2 2 2 2 2 2 2 2 2 2 2 2 2 2 2 2 2 2 2 2 2 2 2 2 2.5 2.5 2.5 2.5 2.5 2.5 2.5 2.5 2.5 2.5 2.5 2.5 2.5 2.5 2.5 2.5 2.5 2.5 2.5 2.5 2.5 2.5 2.5 2.5 2.5 2.5 2.5 2.5 2.5 2.5 2.5 2.5 2.5 2.5 2.5 2.5 2.5 2.5 2.5 2.5 2.5 2.5 2.5 2.5 2.5 2.5 2.5 2.5 2.5 2.5 2.5 2.5 2.5 2.5 2.5 2.5 2.5 2.5 2.5 2.5 2.49999 2.49997 2.49992 2.49979 2.49947 2.49866 2.49697 2.49389 2.4889 2.48152 2.47146 2.45861 2.443 2.42477 2.40412 2.38129 2.35646 2.32985 2.30158 2.27182 2.24065 2.20818 2.17449 2.13968 2.1039 2.06731 2.0302 1.993 1.95637 1.92128 1.88909 1.86148 1.8401 1.82601 1.81914 1.81837 1.82254 1.83224 1.85629 1.95672 2.91929 2.86432 2.86835 2.86594 2.85844 2.84999 2.84435 2.83917 2.8345 2.83164 2.82791 2.82538 2.82266 2.82023 2.81752 2.80747 2.80197 2.80508 2.80602 2.80674 2.80749 2.80821 2.8083 2.80842 2.80843 2.80855 2.80824 2.80806 2.80761 2.80762 2.80747 2.80763 2.80792 2.80669 2.80248 2.8056 2.82383 2.83458 2.74462 2.40154 2.06776 2.01057 2.00171 2.00028 2.00005 2.00001 2 2 2 2 2 2 2 2 2 2 2 2 2 2 2 2 2 2 2 2 2 2 2 2 2 2 2 2 2 2 2 2 2 2 2 2 2 2 2 2 2 2 2 2 2 2 2 2 2 2 2 2 2 2 2.5 2.5 2.5 2.5 2.5 2.5 2.5 2.5 2.5 2.5 2.5 2.5 2.5 2.5 2.5 2.5 2.5 2.5 2.5 2.5 2.5 2.5 2.5 2.5 2.5 2.5 2.5 2.5 2.5 2.5 2.5 2.5 2.5 2.5 2.5 2.5 2.5 2.5 2.5 2.5 2.5 2.5 2.5 2.5 2.5 2.5 2.5 2.5 2.5 2.5 2.5 2.5 2.5 2.5 2.5 2.5 2.5 2.5 2.5 2.5 2.49999 2.49997 2.49992 2.49979 2.49947 2.49866 2.49697 2.49389 2.4889 2.48152 2.47146 2.45861 2.443 2.42477 2.40412 2.38129 2.35646 2.32985 2.30158 2.27182 2.24065 2.20818 2.17449 2.13968 2.1039 2.06731 2.0302 1.993 1.95637 1.92128 1.88909 1.86148 1.8401 1.82601 1.81914 1.81837 1.82253 1.83222 1.85626 1.95671 2.91942 2.86436 2.86818 2.86589 2.85834 2.84991 2.84412 2.83921 2.83443 2.83138 2.82813 2.82498 2.82312 2.82002 2.81709 2.80725 2.80302 2.80592 2.80658 2.807 2.8078 2.80845 2.80859 2.80873 2.80868 2.8087 2.80856 2.80825 2.80795 2.80799 2.8077 2.80822 2.80808 2.80612 2.80269 2.80618 2.82577 2.83763 2.74444 2.39798 2.06748 2.01055 2.00171 2.00028 2.00005 2.00001 2 2 2 2 2 2 2 2 2 2 2 2 2 2 2 2 2 2 2 2 2 2 2 2 2 2 2 2 2 2 2 2 2 2 2 2 2 2 2 2 2 2 2 2 2 2 2 2 2 2 2 2 2 2 2.5 2.5 2.5 2.5 2.5 2.5 2.5 2.5 2.5 2.5 2.5 2.5 2.5 2.5 2.5 2.5 2.5 2.5 2.5 2.5 2.5 2.5 2.5 2.5 2.5 2.5 2.5 2.5 2.5 2.5 2.5 2.5 2.5 2.5 2.5 2.5 2.5 2.5 2.5 2.5 2.5 2.5 2.5 2.5 2.5 2.5 2.5 2.5 2.5 2.5 2.5 2.5 2.5 2.5 2.5 2.5 2.5 2.5 2.5 2.5 2.49999 2.49997 2.49992 2.49979 2.49947 2.49866 2.49697 2.49389 2.4889 2.48152 2.47146 2.45861 2.443 2.42477 2.40412 2.38129 2.35646 2.32985 2.30158 2.27182 2.24065 2.20818 2.17449 2.13968 2.1039 2.06731 2.0302 1.993 1.95637 1.92128 1.88909 1.86148 1.8401 1.82601 1.81914 1.81837 1.82251 1.8322 1.85621 1.95666 2.91943 2.86432 2.86821 2.86594 2.85833 2.85006 2.8441 2.83939 2.83438 2.83159 2.82779 2.8252 2.82286 2.82024 2.81689 2.80687 2.80139 2.80513 2.80623 2.80677 2.8081 2.80842 2.80877 2.80881 2.8086 2.80878 2.80856 2.80819 2.80787 2.80767 2.80731 2.80774 2.80768 2.80662 2.80382 2.80548 2.82607 2.83733 2.74489 2.39773 2.06727 2.01053 2.0017 2.00028 2.00005 2.00001 2 2 2 2 2 2 2 2 2 2 2 2 2 2 2 2 2 2 2 2 2 2 2 2 2 2 2 2 2 2 2 2 2 2 2 2 2 2 2 2 2 2 2 2 2 2 2 2 2 2 2 2 2 2 2.5 2.5 2.5 2.5 2.5 2.5 2.5 2.5 2.5 2.5 2.5 2.5 2.5 2.5 2.5 2.5 2.5 2.5 2.5 2.5 2.5 2.5 2.5 2.5 2.5 2.5 2.5 2.5 2.5 2.5 2.5 2.5 2.5 2.5 2.5 2.5 2.5 2.5 2.5 2.5 2.5 2.5 2.5 2.5 2.5 2.5 2.5 2.5 2.5 2.5 2.5 2.5 2.5 2.5 2.5 2.5 2.5 2.5 2.5 2.5 2.49999 2.49997 2.49992 2.49979 2.49947 2.49866 2.49697 2.49389 2.4889 2.48152 2.47146 2.45861 2.443 2.42477 2.40412 2.38129 2.35646 2.32985 2.30158 2.27182 2.24065 2.20818 2.17449 2.13968 2.1039 2.06731 2.0302 1.993 1.95637 1.92128 1.88909 1.86148 1.8401 1.82601 1.81914 1.81837 1.82251 1.83219 1.85617 1.95654 2.91912 2.86426 2.86833 2.866 2.85846 2.85003 2.84429 2.83909 2.83443 2.83145 2.82802 2.82504 2.82289 2.82006 2.81621 2.8061 2.80243 2.80582 2.80682 2.80702 2.80786 2.80846 2.80867 2.80873 2.80862 2.8087 2.80846 2.8081 2.80769 2.80748 2.8075 2.80733 2.80772 2.80709 2.80411 2.80544 2.82427 2.83691 2.74633 2.39962 2.06729 2.0105 2.0017 2.00028 2.00005 2.00001 2 2 2 2 2 2 2 2 2 2 2 2 2 2 2 2 2 2 2 2 2 2 2 2 2 2 2 2 2 2 2 2 2 2 2 2 2 2 2 2 2 2 2 2 2 2 2 2 2 2 2 2 2 2
				</DataArray>
				<DataArray Name="F1" type="Float32" format="ascii">
 1 1 1 1 1 1 1 1 1 1 1 1 1 1 1 1 1 1 1 1 1 1 1 1 1 1 1 1 1 1 1 1 1 1 1 1 1 1 1 1 1 1 1 1 1 1 1 1 1 1 1 1 1 1 1 1 1 1 1 1 1 1 1 1 1 1 1 1 1 1 1 1 1 1 1 1 1 1 1 1 1 1 1 1 1 1 1 1 1 1 1 1 1 1 1 1 1 1 1 1 0 0 0 0 0 0 0 0 0 0 0 0 0 0 0 0 0 0 0 0 0 0 0 0 0 0 0 0 0 0 0 0 0 0 0 0 0 0 0 0 0 0 0 0 0 0 0 0 0 0 0 0 0 0 0 0 0 0 0 0 0 0 0 0 0 0 0 0 0 0 0 0 0 0 0 0 0 0 0 0 0 0 0 0 0 0 0 0 0 0 0 0 0 0 0 0 0 0 0 0 1 1 1 1 1 1 1 1 1 1 1 1 1 1 1 1 1 1 1 1 1 1 1 1 1 1 1 1 1 1 1 1 1 1 1 1 1 1 1 1 1 1 1 1 1 1 1 1 1 1 1 1 1 1 1 1 1 1 1 1 1 1 1 1 1 1 1 1 1 1 1 1 1 1 1 1 1 1 1 1 1 1 1 1 1 1 1 1 1 1 1 1 1 1 1 1 1 1 1 1 0 0 0 0 0 0 0 0 0 0 0 0 0 0 0 0 0 0 0 0 0 0 0 0 0 0 0 0 0 0 0 0 0 0 0 0 0 0 0 0 0 0 0 0 0 0 0 0 0 0 0 0 0 0 0 0 0 0 0 0 0 0 0 0 0 0 0 0 0 0 0 0 0 0 0 0 0 0 0 0 0 0 0 0 0 0 0 0 0 0 0 0 0 0 0 0 0 0 0 0 1 1 1 1 1 1 1 1 1 1 1 1 1 1 1 1 1 1 1 1 1 1 1 1 1 1 1 1 1 1 1 1 1 1 1 1 1 1 1 1 1 1 1 1 1 1 1 1 1 1 1 1 1 1 1 1 1 1 1 1 1 1 1 1 1 1 1 1 1 1 1 1 1 1 1 1 1 1 1 1 1 1 1 1 1 1 1 1 1 1 1 1 1 1 1 1 1 1 1 1 0 0 0 0 0 0 0 0 0 0 0 0 0 0 0 0 0 0 0 0 0 0 0 0 0 0 0 0 0 0 0 0 0 0 0 0 0 0 0 0 0 0 0 0 0 0 0 0 0 0 0 0 0 0 0 0 0 0 0 0 0 0 0 0 0 0 0 0 0 0 0 0 0 0 0 0 0 0 0 0 0 0 0 0 0 0 0 0 0 0 0 0 0 0 0 0 0 0 0 0 1 1 1 1 1 1 1 1 1 1 1 1 1 1 1 1 1 1 1 1 1 1 1 1 1 1 1 1 1 1 1 1 1 1 1 1 1 1 1 1 1 1 1 1 1 1 1 1 1 1 1 1 1 1 1 1 1 1 1 1 1 1 1 1 1 1 1 1 1 1 1 1 1 1 1 1 1 1 1 1 1 1 1 1 1 1 1 1 1 1 1 1 1 1 1 1 1 1 1 1 0 0 0 0 0 0 0 0 0 0 0 0 0 0 0 0 0 0 0 0 0 0 0 0 0 0 0 0 0 0 0 0 0 0 0 0 0 0 0 0 0 0 0 0 0 0 0 0 0 0 0 0 0 0 0 0 0 0 0 0 0 0 0 0 0 0 0 0 0 0 0 0 0 0 0 0 0 0 0 0 0 0 0 0 0 0 0 0 0 0 0 0 0 0 0 0 0 0 0 0 1 1 1 1 1 1 1 1 1 1 1 1 1 1 1 1 1 1 1 1 1 1 1 1 1 1 1 1 1 1 1 1 1 1 1 1 1 1 1 1 1 1 1 1 1 1 1 1 1 1 1 1 1 1 1 1 1 1 1 1 1 1 1 1 1 1 1 1 1 1 1 1 1 1 1 1 1 1 1 1 1 1 1 1 1 1 1 1 1 1 1 1 1 1 1 1 1 1 1 1 0 0 0 0 0 0 0 0 0 0 0 0 0 0 0 0 0 0 0 0 0 0 0 0 0 0 0 0 0 0 0 0 0 0 0 0 0 0 0 0 0 0 0 0 0 0 0 0 0 0 0 0 0 0 0 0 0 0 0 0 0 0 0 0 0 0 0 0 0 0 0 0 0 0 0 0 0 0 0 0 0 0 0 0 0 0 0 0 0 0 0 0 0 0 0 0 0 0 0 0
				</DataArray>
				<DataArray Name="F2" type="Float32" format="ascii">
 0 0 0 0 0 0 0 0 0 0 0 0 0 0 0 0 0 0 0 0 0 0 0 0 0 0 0 0 0 0 0 0 0 0 0 0 0 0 0 0 0 0 0 0 0 0 0 0 0 0 0 0 0 0 0 0 0 0 0 0 0 0 0 0 0 0 0 0 0 0 0 0 0 0 0 0 0 0 0 0 0 0 0 0 0 0 0 0 0 0 0 0 0 0 0 0 0 0 0 0 1 1 1 1 1 1 1 1 1 1 1 1 1 1 1 1 1 1 1 1 1 1 1 1 1 1 1 1 1 1 1 1 1 1 1 1 1 1 1 1 1 1 1 1 1 1 1 1 1 1 1 1 1 1 1 1 1 1 1 1 1 1 1 1 1 1 1 1 1 1 1 1 1 1 1 1 1 1 1 1 1 1 1 1 1 1 1 1 1 1 1 1 1 1 1 1 1 1 1 1 0 0 0 0 0 0 0 0 0 0 0 0 0 0 0 0 0 0 0 0 0 0 0 0 0 0 0 0 0 0 0 0 0 0 0 0 0 0 0 0 0 0 0 0 0 0 0 0 0 0 0 0 0 0 0 0 0 0 0 0 0 0 0 0 0 0 0 0 0 0 0 0 0 0 0 0 0 0 0 0 0 0 0 0 0 0 0 0 0 0 0 0 0 0 0 0 0 0 0 0 1 1 1 1 1 1 1 1 1 1 1 1 1 1 1 1 1 1 1 1 1 1 1 1 1 1 1 1 1 1 1 1 1 1 1 1 1 1 1 1 1 1 1 1 1 1 1 1 1 1 1 1 1 1 1 1 1 1 1 1 1 1 1 1 1 1 1 1 1 1 1 1 1 1 1 1 1 1 1 1 1 1 1 1 1 1 1 1 1 1 1 1 1 1 1 1 1 1 1 1 0 0 0 0 0 0 0 0 0 0 0 0 0 0 0 0 0 0 0 0 0 0 0 0 0 0 0 0 0 0 0 0 0 0 0 0 0 0 0 0 0 0 0 0 0 0 0 0 0 0 0 0 0 0 0 0 0 0 0 0 0 0 0 0 0 0 0 0 0 0 0 0 0 0 0 0 0 0 0 0 0 0 0 0 0 0 0 0 0 0 0 0 0 0 0 0 0 0 0 0 1 1 1 1 1 1 1 1 1 1 1 1 1 1 1 1 1 1 1 1 1 1 1 1 1 1 1 1 1 1 1 1 1 1 1 1 1 1 1 1 1 1 1 1 1 1 1 1 1 1 1 1 1 1 1 1 1 1 1 1 1 1 1 1 1 1 1 1 1 1 1 1 1 1 1 1 1 1 1 1 1 1 1 1 1 1 1 1 1 1 1 1 1 1 1 1 1 1 1 1 0 0 0 0 0 0 0 0 0 0 0 0 0 0 0 0 0 0 0 0 0 0 0 0 0 0 0 0 0 0 0 0 0 0 0 0 0 0 0 0 0 0 0 0 0 0 0 0 0 0 0 0 0 0 0 0 0 0 0 0 0 0 0 0 0 0 0 0 0 0 0 0 0 0 0 0 0 0 0 0 0 0 0 0 0 0 0 0 0 0 0 0 0 0 0 0 0 0 0 0 1 1 1 1 1 1 1 1 1 1 1 1 1 1 1 1 1 1 1 1 1 1 1 1 1 1 1 1 1 1 1 1 1 1 1 1 1 1 1 1 1 1 1 1 1 1 1 1 1 1 1 1 1 1 1 1 1 1 1 1 1 1 1 1 1 1 1 1 1 1 1 1 1 1 1 1 1 1 1 1 1 1 1 1 1 1 1 1 1 1 1 1 1 1 1 1 1 1 1 1 0 0 0 0 0 0 0 0 0 0 0 0 0 0 0 0 0 0 0 0 0 0 0 0 0 0 0 0 0 0 0 0 0 0 0 0 0 0 0 0 0 0 0 0 0 0 0 0 0 0 0 0 0 0 0 0 0 0 0 0 0 0 0 0 0 0 0 0 0 0 0 0 0 0 0 0 0 0 0 0 0 0 0 0 0 0 0 0 0 0 0 0 0 0 0 0 0 0 0 0 1 1 1 1 1 1 1 1 1 1 1 1 1 1 1 1 1 1 1 1 1 1 1 1 1 1 1 1 1 1 1 1 1 1 1 1 1 1 1 1 1 1 1 1 1 1 1 1 1 1 1 1 1 1 1 1 1 1 1 1 1 1 1 1 1 1 1 1 1 1 1 1 1 1 1 1 1 1 1 1 1 1 1 1 1 1 1 1 1 1 1 1 1 1 1 1 1 1 1 1
				</DataArray>
				<DataArray Name="F3" type="Float32" format="ascii">
 0 0 0 0 0 0 0 0 0 0 0 0 0 0 0 0 0 0 0 0 0 0 0 0 0 0 0 0 0 0 0 0 0 0 0 0 0 0 0 0 0 0 0 0 0 0 0 0 0 0 0 0 0 0 0 0 0 0 0 0 0 0 0 0 0 0 0 0 0 0 0 0 0 0 0 0 0 0 0 0 0 0 0 0 0 0 0 0 0 0 0 0 0 0 0 0 0 0 0 0 0 0 0 0 0 0 0 0 0 0 0 0 0 0 0 0 0 0 0 0 0 0 0 0 0 0 0 0 0 0 0 0 0 0 0 0 0 0 0 0 0 0 0 0 0 0 0 0 0 0 0 0 0 0 0 0 0 0 0 0 0 0 0 0 0 0 0 0 0 0 0 0 0 0 0 0 0 0 0 0 0 0 0 0 0 0 0 0 0 0 0 0 0 0 0 0 0 0 0 0 0 0 0 0 0 0 0 0 0 0 0 0 0 0 0 0 0 0 0 0 0 0 0 0 0 0 0 0 0 0 0 0 0 0 0 0 0 0 0 0 0 0 0 0 0 0 0 0 0 0 0 0 0 0 0 0 0 0 0 0 0 0 0 0 0 0 0 0 0 0 0 0 0 0 0 0 0 0 0 0 0 0 0 0 0 0 0 0 0 0 0 0 0 0 0 0 0 0 0 0 0 0 0 0 0 0 0 0 0 0 0 0 0 0 0 0 0 0 0 0 0 0 0 0 0 0 0 0 0 0 0 0 0 0 0 0 0 0 0 0 0 0 0 0 0 0 0 0 0 0 0 0 0 0 0 0 0 0 0 0 0 0 0 0 0 0 0 0 0 0 0 0 0 0 0 0 0 0 0 0 0 0 0 0 0 0 0 0 0 0 0 0 0 0 0 0 0 0 0 0 0 0 0 0 0 0 0 0 0 0 0 0 0 0 0 0 0 0 0 0 0 0 0 0 0 0 0 0 0 0 0 0 0 0 0 0 0 0 0 0 0 0 0 0 0 0 0 0 0 0 0 0 0 0 0 0 0 0 0 0 0 0 0 0 0 0 0 0 0 0 0 0 0 0 0 0 0 0 0 0 0 0 0 0 0 0 0 0 0 0 0 0 0 0 0 0 0 0 0 0 0 0 0 0 0 0 0 0 0 0 0 0 0 0 0 0 0 0 0 0 0 0 0 0 0 0 0 0 0 0 0 0 0 0 0 0 0 0 0 0 0 0 0 0 0 0 0 0 0 0 0 0 0 0 0 0 0 0 0 0 0 0 0 0 0 0 0 0 0 0 0 0 0 0 0 0 0 0 0 0 0 0 0 0 0 0 0 0 0 0 0 0 0 0 0 0 0 0 0 0 0 0 0 0 0 0 0 0 0 0 0 0 0 0 0 0 0 0 0 0 0 0 0 0 0 0 0 0 0 0 0 0 0 0 0 0 0 0 0 0 0 0 0 0 0 0 0 0 0 0 0 0 0 0 0 0 0 0 0 0 0 0 0 0 0 0 0 0 0 0 0 0 0 0 0 0 0 0 0 0 0 0 0 0 0 0 0 0 0 0 0 0 0 0 0 0 0 0 0 0 0 0 0 0 0 0 0 0 0 0 0 0 0 0 0 0 0 0 0 0 0 0 0 0 0 0 0 0 0 0 0 0 0 0 0 0 0 0 0 0 0 0 0 0 0 0 0 0 0 0 0 0 0 0 0 0 0 0 0 0 0 0 0 0 0 0 0 0 0 0 0 0 0 0 0 0 0 0 0 0 0 0 0 0 0 0 0 0 0 0 0 0 0 0 0 0 0 0 0 0 0 0 0 0 0 0 0 0 0 0 0 0 0 0 0 0 0 0 0 0 0 0 0 0 0 0 0 0 0 0 0 0 0 0 0 0 0 0 0 0 0 0 0 0 0 0 0 0 0 0 0 0 0 0 0 0 0 0 0 0 0 0 0 0 0 0 0 0 0 0 0 0 0 0 0 0 0 0 0 0 0 0 0 0 0 0 0 0 0 0 0 0 0 0 0 0 0 0 0 0 0 0 0 0 0 0 0 0 0 0 0 0 0 0 0 0 0 0 0 0 0 0 0 0 0 0 0 0 0 0 0 0 0 0 0 0 0 0 0 0 0 0 0 0 0 0 0 0 0 0 0 0 0 0 0 0 0 0 0 0 0 0 0 0 0 0 0 0 0 0 0 0 0 0 0 0 0 0 0 0 0 0 0 0 0 0 0 0 0 0 0 0 0 0 0 0 0 0 0 0
				</DataArray>
				<DataArray Name="Pressure" type="Float32" format="ascii">