<?xml version="1.0"?>
<VTKFile type="PolyData">
	<PolyData>
		<Piece NumberOfPoints="1206" NumberOfPolys="1000">
			<Points>
				<DataArray type="Float32" NumberOfComponents="3" format="ascii">
 0 0 0 0.005 0 0 0.01 0 0 0.015 0 0 0.02 0 0 0.025 0 0 0.03 0 0 0.035 0 0 0.04 0 0 0.045 0 0 0.05 0 0 0.055 0 0 0.06 0 0 0.065 0 0 0.07 0 0 0.075 0 0 0.08 0 0 0.085 0 0 0.09 0 0 0.095 0 0 0.1 0 0 0.105 0 0 0.11 0 0 0.115 0 0 0.12 0 0 0.125 0 0 0.13 0 0 0.135 0 0 0.14 0 0 0.145 0 0 0.15 0 0 0.155 0 0 0.16 0 0 0.165 0 0 0.17 0 0 0.175 0 0 0.18 0 0 0.185 0 0 0.19 0 0 0.195 0 0 0.2 0 0 0.205 0 0 0.21 0 0 0.215 0 0 0.22 0 0 0.225 0 0 0.23 0 0 0.235 0 0 0.24 0 0 0.245 0 0 0.25 0 0 0.255 0 0 0.26 0 0 0.265 0 0 0.27 0 0 0.275 0 0 0.28 0 0 0.285 0 0 0.290001 0 0 0.295003 0 0 0.300007 0 0 0.305017 0 0 0.310037 0 0 0.315074 0 0 0.320136 0 0 0.325234 0 0 0.330379 0 0 0.335584 0 0 0.340862 0 0 0.346225 0 0 0.351687 0 0 0.357261 0 0 0.36296 0 0 0.368797 0 0 0.374786 0 0 0.38094 0 0 0.387276 0 0 0.393808 0 0 0.400553 0 0 0.40753 0 0 0.414758 0 0 0.422259 0 0 0.430055 0 0 0.438172 0 0 0.446633 0 0 0.455467 0 0 0.464697 0 0 0.474345 0 0 0.484422 0 0 0.494928 0 0 0.505838 0 0 0.517104 0 0 0.528655 0 0 0.540407 0 0 0.552284 0 0 0.564234 0 0 0.57623 0 0 0.588272 0 0 0.600381 0 0 0.61265 0 0 0.625582 0 0 0.627994 0 0 0.63036 0 0 0.632729 0 0 0.635095 0 0 0.637454 0 0 0.639807 0 0 0.642153 0 0 0.644499 0 0 0.646841 0 0 0.649187 0 0 0.651514 0 0 0.653865 0 0 0.656197 0 0 0.658633 0 0 0.661161 0 0 0.663691 0 0 0.666094 0 0 0.668387 0 0 0.670672 0 0 0.672974 0 0 0.67529 0 0 0.677609 0 0 0.679931 0 0 0.682249 0 0 0.684564 0 0 0.686881 0 0 0.689202 0 0 0.691523 0 0 0.693842 0 0 0.696157 0 0 0.698476 0 0 0.700798 0 0 0.703118 0 0 0.705435 0 0 0.707751 0 0 0.710072 0 0 0.712395 0 0 0.714712 0 0 0.717025 0 0 0.719341 0 0 0.72166 0 0 0.723984 0 0 0.726285 0 0 0.728548 0 0 0.730744 0 0 0.73293 0 0 0.735717 0 0 0.740127 0 0 0.745021 0 0 0.750003 0 0 0.755001 0 0 0.76 0 0 0.765 0 0 0.77 0 0 0.775 0 0 0.78 0 0 0.785 0 0 0.79 0 0 0.795 0 0 0.8 0 0 0.805 0 0 0.81 0 0 0.815 0 0 0.82 0 0 0.825 0 0 0.83 0 0 0.835 0 0 0.84 0 0 0.845 0 0 0.85 0 0 0.855 0 0 0.86 0 0 0.865 0 0 0.87 0 0 0.875 0 0 0.88 0 0 0.885 0 0 0.89 0 0 0.895 0 0 0.9 0 0 0.905 0 0 0.91 0 0 0.915 0 0 0.92 0 0 0.925 0 0 0.93 0 0 0.935 0 0 0.94 0 0 0.945 0 0 0.95 0 0 0.955 0 0 0.96 0 0 0.965 0 0 0.97 0 0 0.975 0 0 0.98 0 0 0.985 0 0 0.99 0 0 0.995 0 0 1 0 0 0 0.02 0 0.005 0.02 0 0.01 0.02 0 0.015 0.02 0 0.02 0.02 0 0.025 0.02 0 0.03 0.02 0 0.035 0.02 0 0.04 0.02 0 0.045 0.02 0 0.05 0.02 0 0.055 0.02 0 0.06 0.02 0 0.065 0.02 0 0.07 0.02 0 0.075 0.02 0 0.08 0.02 0 0.085 0.02 0 0.09 0.02 0 0.095 0.02 0 0.1 0.02 0 0.105 0.02 0 0.11 0.02 0 0.115 0.02 0 0.12 0.02 0 0.125 0.02 0 0.13 0.02 0 0.135 0.02 0 0.14 0.02 0 0.145 0.02 0 0.15 0.02 0 0.155 0.02 0 0.16 0.02 0 0.165 0.02 0 0.17 0.02 0 0.175 0.02 0 0.18 0.02 0 0.185 0.02 0 0.19 0.02 0 0.195 0.02 0 0.2 0.02 0 0.205 0.02 0 0.21 0.02 0 0.215 0.02 0 0.22 0.02 0 0.225 0.02 0 0.23 0.02 0 0.235 0.02 0 0.24 0.02 0 0.245 0.02 0 0.25 0.02 0 0.255 0.02 0 0.26 0.02 0 0.265 0.02 0 0.27 0.02 0 0.275 0.02 0 0.28 0.02 0 0.285 0.02 0 0.290001 0.02 0 0.295003 0.02 0 0.300007 0.02 0 0.305017 0.02 0 0.310037 0.02 0 0.315074 0.02 0 0.320136 0.02 0 0.325234 0.02 0 0.330379 0.02 0 0.335584 0.02 0 0.340862 0.02 0 0.346225 0.02 0 0.351687 0.02 0 0.357261 0.02 0 0.36296 0.02 0 0.368797 0.02 0 0.374786 0.02 0 0.38094 0.02 0 0.387276 0.02 0 0.393808 0.02 0 0.400553 0.02 0 0.40753 0.02 0 0.414758 0.02 0 0.422259 0.02 0 0.430055 0.02 0 0.438172 0.02 0 0.446633 0.02 0 0.455467 0.02 0 0.464697 0.02 0 0.474345 0.02 0 0.484422 0.02 0 0.494928 0.02 0 0.505838 0.02 0 0.517104 0.02 0 0.528655 0.02 0 0.540407 0.02 0 0.552284 0.02 0 0.564234 0.02 0 0.576231 0.0200001 0 0.588272 0.0200001 0 0.600381 0.0199999 0 0.61265 0.0199995 0 0.625582 0.0199981 0 0.627994 0.0199969 0 0.630361 0.019998 0 0.632731 0.0200016 0 0.635098 0.0200046 0 0.637459 0.0200064 0 0.639811 0.0200077 0 0.642159 0.0200076 0 0.6445 0.0200095 0 0.646835 0.020016 0 0.649158 0.0200217 0 0.651489 0.0200279 0 0.653789 0.0200358 0 0.656101 0.0200397 0 0.658305 0.020031 0 0.660417 0.0200224 0 0.662514 0.0200173 0 0.664733 0.0200101 0 0.66707 0.0200036 0 0.669421 0.019998 0 0.671757 0.0199951 0 0.674083 0.0199933 0 0.676406 0.0199934 0 0.678727 0.0199906 0 0.681053 0.0199896 0 0.683382 0.0199928 0 0.685707 0.0199978 0 0.688025 0.0199987 0 0.690343 0.0199962 0 0.692663 0.0199954 0 0.694988 0.0199952 0 0.697308 0.0199964 0 0.699624 0.0199962 0 0.701942 0.0199928 0 0.704264 0.019992 0 0.706587 0.0199917 0 0.708903 0.0199924 0 0.711218 0.019992 0 0.713539 0.0199884 0 0.715863 0.0199863 0 0.718182 0.0199867 0 0.720501 0.0199855 0 0.72283 0.0199838 0 0.725179 0.0199842 0 0.727497 0.0199881 0 0.729804 0.0199921 0 0.732429 0.019997 0 0.735694 0.0199995 0 0.740129 0.02 0 0.745021 0.02 0 0.750004 0.02 0 0.755001 0.02 0 0.76 0.02 0 0.765 0.02 0 0.77 0.02 0 0.775 0.02 0 0.78 0.02 0 0.785 0.02 0 0.79 0.02 0 0.795 0.02 0 0.8 0.02 0 0.805 0.02 0 0.81 0.02 0 0.815 0.02 0 0.82 0.02 0 0.825 0.02 0 0.83 0.02 0 0.835 0.02 0 0.84 0.02 0 0.845 0.02 0 0.85 0.02 0 0.855 0.02 0 0.86 0.02 0 0.865 0.02 0 0.87 0.02 0 0.875 0.02 0 0.88 0.02 0 0.885 0.02 0 0.89 0.02 0 0.895 0.02 0 0.9 0.02 0 0.905 0.02 0 0.91 0.02 0 0.915 0.02 0 0.92 0.02 0 0.925 0.02 0 0.93 0.02 0 0.935 0.02 0 0.94 0.02 0 0.945 0.02 0 0.95 0.02 0 0.955 0.02 0 0.96 0.02 0 0.965 0.02 0 0.97 0.02 0 0.975 0.02 0 0.98 0.02 0 0.985 0.02 0 0.99 0.02 0 0.995 0.02 0 1 0.02 0 0 0.04 0 0.005 0.04 0 0.01 0.04 0 0.015 0.04 0 0.02 0.04 0 0.025 0.04 0 0.03 0.04 0 0.035 0.04 0 0.04 0.04 0 0.045 0.04 0 0.05 0.04 0 0.055 0.04 0 0.06 0.04 0 0.065 0.04 0 0.07 0.04 0 0.075 0.04 0 0.08 0.04 0 0.085 0.04 0 0.09 0.04 0 0.095 0.04 0 0.1 0.04 0 0.105 0.04 0 0.11 0.04 0 0.115 0.04 0 0.12 0.04 0 0.125 0.04 0 0.13 0.04 0 0.135 0.04 0 0.14 0.04 0 0.145 0.04 0 0.15 0.04 0 0.155 0.04 0 0.16 0.04 0 0.165 0.04 0 0.17 0.04 0 0.175 0.04 0 0.18 0.04 0 0.185 0.04 0 0.19 0.04 0 0.195 0.04 0 0.2 0.04 0 0.205 0.04 0 0.21 0.04 0 0.215 0.04 0 0.22 0.04 0 0.225 0.04 0 0.23 0.04 0 0.235 0.04 0 0.24 0.04 0 0.245 0.04 0 0.25 0.04 0 0.255 0.04 0 0.26 0.04 0 0.265 0.04 0 0.27 0.04 0 0.275 0.04 0 0.28 0.04 0 0.285 0.04 0 0.290001 0.04 0 0.295003 0.04 0 0.300007 0.04 0 0.305017 0.04 0 0.310037 0.04 0 0.315074 0.04 0 0.320136 0.04 0 0.325234 0.04 0 0.330379 0.04 0 0.335584 0.04 0 0.340862 0.04 0 0.346225 0.04 0 0.351687 0.04 0 0.357261 0.04 0 0.36296 0.04 0 0.368797 0.04 0 0.374786 0.04 0 0.38094 0.04 0 0.387276 0.04 0 0.393808 0.04 0 0.400553 0.04 0 0.40753 0.04 0 0.414758 0.04 0 0.422259 0.04 0 0.430055 0.04 0 0.438172 0.04 0 0.446633 0.04 0 0.455467 0.04 0 0.464697 0.04 0 0.474345 0.04 0 0.484422 0.04 0 0.494928 0.04 0 0.505838 0.04 0 0.517104 0.04 0 0.528655 0.04 0 0.540407 0.04 0 0.552284 0.04 0 0.564235 0.0400001 0 0.576231 0.0400001 0 0.588272 0.0400003 0 0.600381 0.0400007 0 0.612649 0.0400008 0 0.625579 0.0400018 0 0.627988 0.0399999 0 0.630352 0.0400008 0 0.632719 0.0400041 0 0.635087 0.0400056 0 0.637448 0.0400054 0 0.639806 0.0400037 0 0.642159 0.0400022 0 0.644511 0.0400054 0 0.646861 0.0400105 0 0.649219 0.0400161 0 0.651562 0.0400228 0 0.653932 0.0400305 0 0.656286 0.0400262 0 0.658752 0.0399991 0 0.661312 0.0399874 0 0.663865 0.0399979 0 0.66628 0.0400067 0 0.668576 0.0400036 0 0.670861 0.0399958 0 0.673161 0.0399939 0 0.675474 0.0399937 0 0.677789 0.0399954 0 0.680105 0.0399968 0 0.682415 0.0399935 0 0.684724 0.0399933 0 0.687038 0.0399938 0 0.689361 0.0399949 0 0.691681 0.0399954 0 0.693999 0.0399941 0 0.696311 0.0399925 0 0.69863 0.0399923 0 0.700952 0.0399929 0 0.703271 0.0399919 0 0.705584 0.0399908 0 0.707896 0.0399892 0 0.710215 0.0399898 0 0.712535 0.0399916 0 0.714849 0.0399893 0 0.717156 0.0399873 0 0.719465 0.0399872 0 0.721776 0.0399884 0 0.724097 0.0399911 0 0.726385 0.0399947 0 0.728643 0.0400017 0 0.730832 0.0400048 0 0.732987 0.0400023 0 0.735738 0.0400001 0 0.740128 0.04 0 0.745021 0.04 0 0.750004 0.04 0 0.755001 0.04 0 0.76 0.04 0 0.765 0.04 0 0.77 0.04 0 0.775 0.04 0 0.78 0.04 0 0.785 0.04 0 0.79 0.04 0 0.795 0.04 0 0.8 0.04 0 0.805 0.04 0 0.81 0.04 0 0.815 0.04 0 0.82 0.04 0 0.825 0.04 0 0.83 0.04 0 0.835 0.04 0 0.84 0.04 0 0.845 0.04 0 0.85 0.04 0 0.855 0.04 0 0.86 0.04 0 0.865 0.04 0 0.87 0.04 0 0.875 0.04 0 0.88 0.04 0 0.885 0.04 0 0.89 0.04 0 0.895 0.04 0 0.9 0.04 0 0.905 0.04 0 0.91 0.04 0 0.915 0.04 0 0.92 0.04 0 0.925 0.04 0 0.93 0.04 0 0.935 0.04 0 0.94 0.04 0 0.945 0.04 0 0.95 0.04 0 0.955 0.04 0 0.96 0.04 0 0.965 0.04 0 0.97 0.04 0 0.975 0.04 0 0.98 0.04 0 0.985 0.04 0 0.99 0.04 0 0.995 0.04 0 1 0.04 0 0 0.06 0 0.005 0.06 0 0.01 0.06 0 0.015 0.06 0 0.02 0.06 0 0.025 0.06 0 0.03 0.06 0 0.035 0.06 0 0.04 0.06 0 0.045 0.06 0 0.05 0.06 0 0.055 0.06 0 0.06 0.06 0 0.065 0.06 0 0.07 0.06 0 0.075 0.06 0 0.08 0.06 0 0.085 0.06 0 0.09 0.06 0 0.095 0.06 0 0.1 0.06 0 0.105 0.06 0 0.11 0.06 0 0.115 0.06 0 0.12 0.06 0 0.125 0.06 0 0.13 0.06 0 0.135 0.06 0 0.14 0.06 0 0.145 0.06 0 0.15 0.06 0 0.155 0.06 0 0.16 0.06 0 0.165 0.06 0 0.17 0.06 0 0.175 0.06 0 0.18 0.06 0 0.185 0.06 0 0.19 0.06 0 0.195 0.06 0 0.2 0.06 0 0.205 0.06 0 0.21 0.06 0 0.215 0.06 0 0.22 0.06 0 0.225 0.06 0 0.23 0.06 0 0.235 0.06 0 0.24 0.06 0 0.245 0.06 0 0.25 0.06 0 0.255 0.06 0 0.26 0.06 0 0.265 0.06 0 0.27 0.06 0 0.275 0.06 0 0.28 0.06 0 0.285 0.06 0 0.290001 0.06 0 0.295003 0.06 0 0.300007 0.06 0 0.305017 0.06 0 0.310037 0.06 0 0.315074 0.06 0 0.320136 0.06 0 0.325234 0.06 0 0.330379 0.06 0 0.335584 0.06 0 0.340862 0.06 0 0.346225 0.06 0 0.351687 0.06 0 0.357261 0.06 0 0.36296 0.06 0 0.368797 0.06 0 0.374786 0.06 0 0.38094 0.06 0 0.387276 0.06 0 0.393808 0.06 0 0.400553 0.06 0 0.40753 0.06 0 0.414758 0.06 0 0.422259 0.06 0 0.430055 0.06 0 0.438172 0.06 0 0.446633 0.06 0 0.455467 0.06 0 0.464697 0.06 0 0.474345 0.06 0 0.484422 0.06 0 0.494928 0.06 0 0.505838 0.06 0 0.517104 0.06 0 0.528655 0.06 0 0.540407 0.06 0 0.552284 0.06 0 0.564235 0.06 0 0.576232 0.0600001 0 0.588274 0.0600004 0 0.600383 0.0600014 0 0.612652 0.060002 0 0.625583 0.
[...]
			<CellData Scalars="Density">
				<DataArray Name="Density" type="Float32" format="ascii">
 1 1 1 1 1 1 1 1 1 1 1 1 1 1 1 1 1 1 1 1 1 1 1 1 1 1 1 1 1 1 1 1 1 1 1 1 1 1 1 1 1 1 1 1 1 1 1 1 1 1 1 1 0.999999 0.999997 0.999992 0.999979 0.999945 0.999857 0.999635 0.999103 0.998012 0.996009 0.992711 0.987747 0.980831 0.971803 0.960629 0.947392 0.932243 0.915383 0.897023 0.877365 0.856603 0.834896 0.812393 0.789216 0.765469 0.741253 0.716643 0.691733 0.666596 0.641334 0.61605 0.590886 0.566023 0.541705 0.518268 0.496157 0.475943 0.458279 0.443794 0.432878 0.425469 0.420967 0.418411 0.41679 0.415242 0.412906 0.40754 0.386647 0.259179 0.264153 0.263782 0.264002 0.264698 0.265477 0.26602 0.266486 0.266934 0.267223 0.267568 0.267855 0.268059 0.268367 0.268656 0.26958 0.270057 0.269746 0.269637 0.26956 0.269501 0.269459 0.269437 0.269449 0.269438 0.269434 0.269482 0.2695 0.269567 0.269541 0.26958 0.26962 0.269666 0.269686 0.269702 0.269732 0.269761 0.269837 0.269928 0.270031 0.269906 0.269118 0.269246 0.273212 0.277938 0.259927 0.206577 0.141331 0.127724 0.125448 0.125073 0.125012 0.125002 0.125 0.125 0.125 0.125 0.125 0.125 0.125 0.125 0.125 0.125 0.125 0.125 0.125 0.125 0.125 0.125 0.125 0.125 0.125 0.125 0.125 0.125 0.125 0.125 0.125 0.125 0.125 0.125 0.125 0.125 0.125 0.125 0.125 0.125 0.125 0.125 0.125 0.125 0.125 0.125 0.125 0.125 0.125 0.125 0.125 0.125 0.125 1 1 1 1 1 1 1 1 1 1 1 1 1 1 1 1 1 1 1 1 1 1 1 1 1 1 1 1 1 1 1 1 1 1 1 1 1 1 1 1 1 1 1 1 1 1 1 1 1 1 1 1 0.999999 0.999997 0.999992 0.999979 0.999945 0.999857 0.999635 0.999103 0.998012 0.996009 0.992711 0.987747 0.980831 0.971803 0.960629 0.947392 0.932243 0.915383 0.897023 0.877365 0.856603 0.834896 0.812393 0.789216 0.765469 0.741253 0.716643 0.691733 0.666596 0.641334 0.61605 0.590886 0.566023 0.541705 0.518268 0.496157 0.475943 0.458279 0.443794 0.432878 0.425467 0.420964 0.418407 0.416786 0.415241 0.412911 0.407547 0.386651 0.259168 0.264135 0.263781 0.264011 0.264696 0.265485 0.266005 0.266492 0.266943 0.26722 0.267557 0.267839 0.268125 0.268297 0.268583 0.2696 0.270077 0.269839 0.269688 0.269638 0.269517 0.269473 0.269476 0.269457 0.269484 0.269494 0.269462 0.269559 0.269578 0.269601 0.269589 0.269615 0.269664 0.269726 0.269739 0.269732 0.269736 0.269755 0.269881 0.270081 0.269953 0.268697 0.269279 0.272855 0.277616 0.261289 0.207725 0.141644 0.127737 0.125448 0.125073 0.125012 0.125002 0.125 0.125 0.125 0.125 0.125 0.125 0.125 0.125 0.125 0.125 0.125 0.125 0.125 0.125 0.125 0.125 0.125 0.125 0.125 0.125 0.125 0.125 0.125 0.125 0.125 0.125 0.125 0.125 0.125 0.125 0.125 0.125 0.125 0.125 0.125 0.125 0.125 0.125 0.125 0.125 0.125 0.125 0.125 0.125 0.125 0.125 0.125 1 1 1 1 1 1 1 1 1 1 1 1 1 1 1 1 1 1 1 1 1 1 1 1 1 1 1 1 1 1 1 1 1 1 1 1 1 1 1 1 1 1 1 1 1 1 1 1 1 1 1 1 0.999999 0.999997 0.999992 0.999979 0.999945 0.999857 0.999635 0.999103 0.998012 0.996009 0.992711 0.987747 0.980831 0.971803 0.960629 0.947392 0.932243 0.915383 0.897023 0.877365 0.856603 0.834896 0.812393 0.789216 0.765469 0.741253 0.716643 0.691733 0.666596 0.641334 0.61605 0.590886 0.566023 0.541705 0.518268 0.496157 0.475943 0.458279 0.443794 0.432878 0.425467 0.420962 0.418402 0.416776 0.415231 0.412906 0.407549 0.386649 0.259161 0.264147 0.263771 0.26398 0.264707 0.265468 0.265995 0.266478 0.266942 0.267198 0.267607 0.267799 0.268134 0.268328 0.268539 0.269581 0.270103 0.269726 0.269594 0.269581 0.269473 0.26944 0.269426 0.269409 0.269445 0.269439 0.269491 0.269488 0.269517 0.269549 0.269537 0.269595 0.26957 0.269677 0.269688 0.269712 0.269691 0.269747 0.269828 0.269858 0.269558 0.268497 0.269281 0.273104 0.278704 0.261325 0.206273 0.141538 0.127731 0.125448 0.125073 0.125012 0.125002 0.125 0.125 0.125 0.125 0.125 0.125 0.125 0.125 0.125 0.125 0.125 0.125 0.125 0.125 0.125 0.125 0.125 0.125 0.125 0.125 0.125 0.125 0.125 0.125 0.125 0.125 0.125 0.125 0.125 0.125 0.125 0.125 0.125 0.125 0.125 0.125 0.125 0.125 0.125 0.125 0.125 0.125 0.125 0.125 0.125 0.125 0.125 1 1 1 1 1 1 1 1 1 1 1 1 1 1 1 1 1 1 1 1 1 1 1 1 1 1 1 1 1 1 1 1 1 1 1 1 1 1 1 1 1 1 1 1 1 1 1 1 1 1 1 1 0.999999 0.999997 0.999992 0.999979 0.999945 0.999857 0.999635 0.999103 0.998012 0.996009 0.992711 0.987747 0.980831 0.971803 0.960629 0.947392 0.932243 0.915383 0.897023 0.877365 0.856603 0.834896 0.812393 0.789216 0.765469 0.741253 0.716643 0.691733 0.666596 0.641334 0.61605 0.590886 0.566023 0.541705 0.518268 0.496157 0.475943 0.458279 0.443794 0.432878 0.425466 0.420961 0.418397 0.416765 0.415215 0.412886 0.407533 0.386659 0.25916 0.264174 0.263791 0.264004 0.264694 0.265465 0.266008 0.266493 0.266924 0.267231 0.267561 0.267916 0.267904 0.268371 0.268583 0.26961 0.270163 0.269766 0.269634 0.26958 0.269483 0.269446 0.269406 0.269444 0.269415 0.269441 0.269494 0.269458 0.269553 0.269509 0.269541 0.269544 0.269602 0.269621 0.269681 0.269658 0.269638 0.269658 0.269754 0.269857 0.269696 0.269137 0.269088 0.273232 0.278648 0.261481 0.206264 0.141474 0.12772 0.125447 0.125073 0.125012 0.125002 0.125 0.125 0.125 0.125 0.125 0.125 0.125 0.125 0.125 0.125 0.125 0.125 0.125 0.125 0.125 0.125 0.125 0.125 0.125 0.125 0.125 0.125 0.125 0.125 0.125 0.125 0.125 0.125 0.125 0.125 0.125 0.125 0.125 0.125 0.125 0.125 0.125 0.125 0.125 0.125 0.125 0.125 0.125 0.125 0.125 0.125 0.125 1 1 1 1 1 1 1 1 1 1 1 1 1 1 1 1 1 1 1 1 1 1 1 1 1 1 1 1 1 1 1 1 1 1 1 1 1 1 1 1 1 1 1 1 1 1 1 1 1 1 1 1 0.999999 0.999997 0.999992 0.999979 0.999945 0.999857 0.999635 0.999103 0.998012 0.996009 0.992711 0.987747 0.980831 0.971803 0.960629 0.947392 0.932243 0.915383 0.897023 0.877365 0.856603 0.834896 0.812393 0.789216 0.765469 0.741253 0.716643 0.691733 0.666596 0.641334 0.61605 0.590886 0.566023 0.541705 0.518268 0.496157 0.475943 0.458279 0.443794 0.432878 0.425466 0.420961 0.418396 0.416761 0.415204 0.41287 0.407507 0.386627 0.259181 0.264128 0.263775 0.263985 0.264686 0.265461 0.266004 0.266471 0.266912 0.267168 0.267535 0.267759 0.268131 0.268261 0.268746 0.269667 0.27002 0.269693 0.269594 0.269568 0.269473 0.269413 0.269412 0.26941 0.269444 0.269423 0.269436 0.26949 0.269484 0.269519 0.269512 0.269575 0.269608 0.269651 0.269625 0.269681 0.269704 0.269698 0.269753 0.269879 0.269815 0.269125 0.26913 0.272695 0.278465 0.261917 0.207078 0.141498 0.127714 0.125446 0.125073 0.125012 0.125002 0.125 0.125 0.125 0.125 0.125 0.125 0.125 0.125 0.125 0.125 0.125 0.125 0.125 0.125 0.125 0.125 0.125 0.125 0.125 0.125 0.125 0.125 0.125 0.125 0.125 0.125 0.125 0.125 0.125 0.125 0.125 0.125 0.125 0.125 0.125 0.125 0.125 0.125 0.125 0.125 0.125 0.125 0.125 0.125 0.125 0.125 0.125
				</DataArray>
				<DataArray Name="Energy" type="Float32" format="ascii">
 2.5 2.5 2.5 2.5 2.5 2.5 2.5 2.5 2.5 2.5 2.5 2.5 2.5 2.5 2.5 2.5 2.5 2.5 2.5 2.5 2.5 2.5 2.5 2.5 2.5 2.5 2.5 2.5 2.5 2.5 2.5 2.5 2.5 2.5 2.5 2.5 2.5 2.5 2.5 2.5 2.5 2.5 2.5 2.5 2.5 2.5 2.5 2.5 2.5 2.5 2.5 2.5 2.5 2.5 2.49999 2.49998 2.49995 2.49986 2.49964 2.49912 2.49804 2.49606 2.49281 2.4879 2.48104 2.47206 2.4609 2.44759 2.43225 2.41503 2.3961 2.3756 2.35369 2.33048 2.30609 2.28059 2.25405 2.22654 2.19809 2.16878 2.13864 2.10775 2.07621 2.04417 2.01184 1.97954 1.94775 1.91716 1.88871 1.86354 1.84288 1.82769 1.81825 1.81399 1.81378 1.81658 1.82214 1.83219 1.85627 1.95669 2.91938 2.86441 2.86834 2.86601 2.85845 2.85007 2.84434 2.83921 2.83445 2.83153 2.82797 2.82513 2.82293 2.82039 2.81742 2.80782 2.80258 2.8056 2.80679 2.80732 2.80825 2.80868 2.80874 2.80867 2.8087 2.80875 2.80864 2.80815 2.8077 2.80776 2.80764 2.8073 2.80689 2.80683 2.80698 2.80678 2.80638 2.80629 2.807 2.80732 2.80654 2.80289 2.80362 2.8194 2.8373 2.76375 2.49436 2.0979 2.01528 2.00247 2.0004 2.00007 2.00001 2 2 2 2 2 2 2 2 2 2 2 2 2 2 2 2 2 2 2 2 2 2 2 2 2 2 2 2 2 2 2 2 2 2 2 2 2 2 2 2 2 2 2 2 2 2 2 2.5 2.5 2.5 2.5 2.5 2.5 2.5 2.5 2.5 2.5 2.5 2.5 2.5 2.5 2.5 2.5 2.5 2.5 2.5 2.5 2.5 2.5 2.5 2.5 2.5 2.5 2.5 2.5 2.5 2.5 2.5 2.5 2.5 2.5 2.5 2.5 2.5 2.5 2.5 2.5 2.5 2.5 2.5 2.5 2.5 2.5 2.5 2.5 2.5 2.5 2.5 2.5 2.5 2.5 2.49999 2.49998 2.49995 2.49986 2.49964 2.49912 2.49804 2.49606 2.49281 2.4879 2.48104 2.47206 2.4609 2.44759 2.43225 2.41503 2.3961 2.3756 2.35369 2.33048 2.30609 2.28059 2.25405 2.22654 2.19809 2.16878 2.13864 2.10775 2.07621 2.04417 2.01184 1.97954 1.94775 1.91716 1.88871 1.86354 1.84288 1.82769 1.81825 1.81398 1.81377 1.81657 1.82214 1.8322 1.85628 1.9567 2.91934 2.86433 2.86833 2.86605 2.85844 2.8501 2.84428 2.83923 2.83448 2.83152 2.82793 2.82507 2.82323 2.82025 2.81745 2.80797 2.80201 2.80544 2.8064 2.80702 2.80785 2.8083 2.80845 2.80834 2.80843 2.80854 2.80806 2.80785 2.80729 2.80748 2.80713 2.80667 2.80634 2.80634 2.80639 2.806 2.80547 2.80519 2.80596 2.80657 2.80565 2.80032 2.80263 2.81678 2.83476 2.76817 2.50032 2.09999 2.01536 2.00248 2.0004 2.00007 2.00001 2 2 2 2 2 2 2 2 2 2 2 2 2 2 2 2 2 2 2 2 2 2 2 2 2 2 2 2 2 2 2 2 2 2 2 2 2 2 2 2 2 2 2 2 2 2 2 2.5 2.5 2.5 2.5 2.5 2.5 2.5 2.5 2.5 2.5 2.5 2.5 2.5 2.5 2.5 2.5 2.5 2.5 2.5 2.5 2.5 2.5 2.5 2.5 2.5 2.5 2.5 2.5 2.5 2.5 2.5 2.5 2.5 2.5 2.5 2.5 2.5 2.5 2.5 2.5 2.5 2.5 2.5 2.5 2.5 2.5 2.5 2.5 2.5 2.5 2.5 2.5 2.5 2.5 2.49999 2.49998 2.49995 2.49986 2.49964 2.49912 2.49804 2.49606 2.49281 2.4879 2.48104 2.47206 2.4609 2.44759 2.43225 2.41503 2.3961 2.3756 2.35369 2.33048 2.30609 2.28059 2.25405 2.22654 2.19809 2.16878 2.13864 2.10775 2.07621 2.04417 2.01184 1.97954 1.94775 1.91716 1.88871 1.86354 1.84288 1.82769 1.81825 1.81398 1.81376 1.81655 1.82212 1.83219 1.85629 1.9567 2.91931 2.86438 2.86829 2.86592 2.85849 2.85003 2.84423 2.83918 2.83448 2.83143 2.82812 2.82491 2.8232 2.8202 2.81646 2.80736 2.80336 2.80609 2.80693 2.80719 2.80795 2.80845 2.80861 2.80865 2.80856 2.80871 2.80857 2.80808 2.80769 2.8076 2.80738 2.80707 2.80671 2.80665 2.80684 2.80651 2.80619 2.80614 2.80633 2.8065 2.80506 2.80078 2.80361 2.81873 2.83996 2.76967 2.49416 2.09935 2.01533 2.00247 2.0004 2.00007 2.00001 2 2 2 2 2 2 2 2 2 2 2 2 2 2 2 2 2 2 2 2 2 2 2 2 2 2 2 2 2 2 2 2 2 2 2 2 2 2 2 2 2 2 2 2 2 2 2 2.5 2.5 2.5 2.5 2.5 2.5 2.5 2.5 2.5 2.5 2.5 2.5 2.5 2.5 2.5 2.5 2.5 2.5 2.5 2.5 2.5 2.5 2.5 2.5 2.5 2.5 2.5 2.5 2.5 2.5 2.5 2.5 2.5 2.5 2.5 2.5 2.5 2.5 2.5 2.5 2.5 2.5 2.5 2.5 2.5 2.5 2.5 2.5 2.5 2.5 2.5 2.5 2.5 2.5 2.49999 2.49998 2.49995 2.49986 2.49964 2.49912 2.49804 2.49606 2.49281 2.4879 2.48104 2.47206 2.4609 2.44759 2.43225 2.41503 2.3961 2.3756 2.35369 2.33048 2.30609 2.28059 2.25405 2.22654 2.19809 2.16878 2.13864 2.10775 2.07621 2.04417 2.01184 1.97954 1.94775 1.91716 1.88871 1.86354 1.84288 1.82769 1.81824 1.81398 1.81376 1.81654 1.82209 1.83216 1.85626 1.95671 2.9193 2.8645 2.86837 2.86602 2.85843 2.85002 2.84428 2.83923 2.8344 2.83156 2.82794 2.82537 2.82233 2.82054 2.81677 2.80679 2.80205 2.80527 2.80648 2.80701 2.80809 2.80862 2.80863 2.80882 2.80848 2.80868 2.80857 2.80794 2.80778 2.80739 2.80727 2.80676 2.80671 2.80627 2.80664 2.80615 2.80579 2.80567 2.80591 2.80627 2.80538 2.80316 2.80265 2.81898 2.83949 2.76994 2.49406 2.09895 2.01526 2.00247 2.0004 2.00007 2.00001 2 2 2 2 2 2 2 2 2 2 2 2 2 2 2 2 2 2 2 2 2 2 2 2 2 2 2 2 2 2 2 2 2 2 2 2 2 2 2 2 2 2 2 2 2 2 2 2.5 2.5 2.5 2.5 2.5 2.5 2.5 2.5 2.5 2.5 2.5 2.5 2.5 2.5 2.5 2.5 2.5 2.5 2.5 2.5 2.5 2.5 2.5 2.5 2.5 2.5 2.5 2.5 2.5 2.5 2.5 2.5 2.5 2.5 2.5 2.5 2.5 2.5 2.5 2.5 2.5 2.5 2.5 2.5 2.5 2.5 2.5 2.5 2.5 2.5 2.5 2.5 2.5 2.5 2.49999 2.49998 2.49995 2.49986 2.49964 2.49912 2.49804 2.49606 2.49281 2.4879 2.48104 2.47206 2.4609 2.44759 2.43225 2.41503 2.3961 2.3756 2.35369 2.33048 2.30609 2.28059 2.25405 2.22654 2.19809 2.16878 2.13864 2.10775 2.07621 2.04417 2.01184 1.97954 1.94775 1.91716 1.88871 1.86354 1.84288 1.82769 1.81824 1.81398 1.81376 1.81653 1.82208 1.83213 1.85621 1.95665 2.91939 2.8643 2.86831 2.86594 2.8584 2.85 2.84427 2.83915 2.83436 2.83131 2.82783 2.82474 2.8232 2.81992 2.81658 2.80634 2.8024 2.80591 2.80685 2.8071 2.80804 2.80847 2.80866 2.80868 2.8086 2.80867 2.80828 2.80794 2.80733 2.80737 2.80713 2.80674 2.8065 2.80627 2.8063 2.80609 2.8058 2.80548 2.80577 2.80622 2.80557 2.80271 2.8024 2.81674 2.83849 2.7712 2.49784 2.09911 2.01523 2.00246 2.0004 2.00007 2.00001 2 2 2 2 2 2 2 2 2 2 2 2 2 2 2 2 2 2 2 2 2 2 2 2 2 2 2 2 2 2 2 2 2 2 2 2 2 2 2 2 2 2 2 2 2 2 2
				</DataArray>
				<DataArray Name="F1" type="Float32" format="ascii">
 1 1 1 1 1 1 1 1 1 1 1 1 1 1 1 1 1 1 1 1 1 1 1 1 1 1 1 1 1 1 1 1 1 1 1 1 1 1 1 1 1 1 1 1 1 1 1 1 1 1 1 1 1 1 1 1 1 1 1 1 1 1 1 1 1 1 1 1 1 1 1 1 1 1 1 1 1 1 1 1 1 1 1 1 1 1 1 1 1 1 1 1 1 1 1 1 1 1 1 1 0 0 0 0 0 0 0 0 0 0 0 0 0 0 0 0 0 0 0 0 0 0 0 0 0 0 0 0 0 0 0 0 0 0 0 0 0 0 0 0 0 0 0 0 0 0 0 0 0 0 0 0 0 0 0 0 0 0 0 0 0 0 0 0 0 0 0 0 0 0 0 0 0 0 0 0 0 0 0 0 0 0 0 0 0 0 0 0 0 0 0 0 0 0 0 0 0 0 0 0 1 1 1 1 1 1 1 1 1 1 1 1 1 1 1 1 1 1 1 1 1 1 1 1 1 1 1 1 1 1 1 1 1 1 1 1 1 1 1 1 1 1 1 1 1 1 1 1 1 1 1 1 1 1 1 1 1 1 1 1 1 1 1 1 1 1 1 1 1 1 1 1 1 1 1 1 1 1 1 1 1 1 1 1 1 1 1 1 1 1 1 1 1 1 1 1 1 1 1 1 0 0 0 0 0 0 0 0 0 0 0 0 0 0 0 0 0 0 0 0 0 0 0 0 0 0 0 0 0 0 0 0 0 0 0 0 0 0 0 0 0 0 0 0 0 0 0 0 0 0 0 0 0 0 0 0 0 0 0 0 0 0 0 0 0 0 0 0 0 0 0 0 0 0 0 0 0 0 0 0 0 0 0 0 0 0 0 0 0 0 0 0 0 0 0 0 0 0 0 0 1 1 1 1 1 1 1 1 1 1 1 1 1 1 1 1 1 1 1 1 1 1 1 1 1 1 1 1 1 1 1 1 1 1 1 1 1 1 1 1 1 1 1 1 1 1 1 1 1 1 1 1 1 1 1 1 1 1 1 1 1 1 1 1 1 1 1 1 1 1 1 1 1 1 1 1 1 1 1 1 1 1 1 1 1 1 1 1 1 1 1 1 1 1 1 1 1 1 1 1 0 0 0 0 0 0 0 0 0 0 0 0 0 0 0 0 0 0 0 0 0 0 0 0 0 0 0 0 0 0 0 0 0 0 0 0 0 0 0 0 0 0 0 0 0 0 0 0 0 0 0 0 0 0 0 0 0 0 0 0 0 0 0 0 0 0 0 0 0 0 0 0 0 0 0 0 0 0 0 0 0 0 0 0 0 0 0 0 0 0 0 0 0 0 0 0 0 0 0 0 1 1 1 1 1 1 1 1 1 1 1 1 1 1 1 1 1 1 1 1 1 1 1 1 1 1 1 1 1 1 1 1 1 1 1 1 1 1 1 1 1 1 1 1 1 1 1 1 1 1 1 1 1 1 1 1 1 1 1 1 1 1 1 1 1 1 1 1 1 1 1 1 1 1 1 1 1 1 1 1 1 1 1 1 1 1 1 1 1 1 1 1 1 1 1 1 1 1 1 1 0 0 0 0 0 0 0 0 0 0 0 0 0 0 0 0 0 0 0 0 0 0 0 0 0 0 0 0 0 0 0 0 0 0 0 0 0 0 0 0 0 0 0 0 0 0 0 0 0 0 0 0 0 0 0 0 0 0 0 0 0 0 0 0 0 0 0 0 0 0 0 0 0 0 0 0 0 0 0 0 0 0 0 0 0 0 0 0 0 0 0 0 0 0 0 0 0 0 0 0 1 1 1 1 1 1 1 1 1 1 1 1 1 1 1 1 1 1 1 1 1 1 1 1 1 1 1 1 1 1 1 1 1 1 1 1 1 1 1 1 1 1 1 1 1 1 1 1 1 1 1 1 1 1 1 1 1 1 1 1 1 1 1 1 1 1 1 1 1 1 1 1 1 1 1 1 1 1 1 1 1 1 1 1 1 1 1 1 1 1 1 1 1 1 1 1 1 1 1 1 0 0 0 0 0 0 0 0 0 0 0 0 0 0 0 0 0 0 0 0 0 0 0 0 0 0 0 0 0 0 0 0 0 0 0 0 0 0 0 0 0 0 0 0 0 0 0 0 0 0 0 0 0 0 0 0 0 0 0 0 0 0 0 0 0 0 0 0 0 0 0 0 0 0 0 0 0 0 0 0 0 0 0 0 0 0 0 0 0 0 0 0 0 0 0 0 0 0 0 0
				</DataArray>
				<DataArray Name="F2" type="Float32" format="ascii">
 0 0 0 0 0 0 0 0 0 0 0 0 0 0 0 0 0 0 0 0 0 0 0 0 0 0 0 0 0 0 0 0 0 0 0 0 0 0 0 0 0 0 0 0 0 0 0 0 0 0 0 0 0 0 0 0 0 0 0 0 0 0 0 0 0 0 0 0 0 0 0 0 0 0 0 0 0 0 0 0 0 0 0 0 0 0 0 0 0 0 0 0 0 0 0 0 0 0 0 0 1 1 1 1 1 1 1 1 1 1 1 1 1 1 1 1 1 1 1 1 1 1 1 1 1 1 1 1 1 1 1 1 1 1 1 1 1 1 1 1 1 1 1 1 1 1 1 1 1 1 1 1 1 1 1 1 1 1 1 1 1 1 1 1 1 1 1 1 1 1 1 1 1 1 1 1 1 1 1 1 1 1 1 1 1 1 1 1 1 1 1 1 1 1 1 1 1 1 1 1 0 0 0 0 0 0 0 0 0 0 0 0 0 0 0 0 0 0 0 0 0 0 0 0 0 0 0 0 0 0 0 0 0 0 0 0 0 0 0 0 0 0 0 0 0 0 0 0 0 0 0 0 0 0 0 0 0 0 0 0 0 0 0 0 0 0 0 0 0 0 0 0 0 0 0 0 0 0 0 0 0 0 0 0 0 0 0 0 0 0 0 0 0 0 0 0 0 0 0 0 1 1 1 1 1 1 1 1 1 1 1 1 1 1 1 1 1 1 1 1 1 1 1 1 1 1 1 1 1 1 1 1 1 1 1 1 1 1 1 1 1 1 1 1 1 1 1 1 1 1 1 1 1 1 1 1 1 1 1 1 1 1 1 1 1 1 1 1 1 1 1 1 1 1 1 1 1 1 1 1 1 1 1 1 1 1 1 1 1 1 1 1 1 1 1 1 1 1 1 1 0 0 0 0 0 0 0 0 0 0 0 0 0 0 0 0 0 0 0 0 0 0 0 0 0 0 0 0 0 0 0 0 0 0 0 0 0 0 0 0 0 0 0 0 0 0 0 0 0 0 0 0 0 0 0 0 0 0 0 0 0 0 0 0 0 0 0 0 0 0 0 0 0 0 0 0 0 0 0 0 0 0 0 0 0 0 0 0 0 0 0 0 0 0 0 0 0 0 0 0 1 1 1 1 1 1 1 1 1 1 1 1 1 1 1 1 1 1 1 1 1 1 1 1 1 1 1 1 1 1 1 1 1 1 1 1 1 1 1 1 1 1 1 1 1 1 1 1 1 1 1 1 1 1 1 1 1 1 1 1 1 1 1 1 1 1 1 1 1 1 1 1 1 1 1 1 1 1 1 1 1 1 1 1 1 1 1 1 1 1 1 1 1 1 1 1 1 1 1 1 0 0 0 0 0 0 0 0 0 0 0 0 0 0 0 0 0 0 0 0 0 0 0 0 0 0 0 0 0 0 0 0 0 0 0 0 0 0 0 0 0 0 0 0 0 0 0 0 0 0 0 0 0 0 0 0 0 0 0 0 0 0 0 0 0 0 0 0 0 0 0 0 0 0 0 0 0 0 0 0 0 0 0 0 0 0 0 0 0 0 0 0 0 0 0 0 0 0 0 0 1 1 1 1 1 1 1 1 1 1 1 1 1 1 1 1 1 1 1 1 1 1 1 1 1 1 1 1 1 1 1 1 1 1 1 1 1 1 1 1 1 1 1 1 1 1 1 1 1 1 1 1 1 1 1 1 1 1 1 1 1 1 1 1 1 1 1 1 1 1 1 1 1 1 1 1 1 1 1 1 1 1 1 1 1 1 1 1 1 1 1 1 1 1 1 1 1 1 1 1 0 0 0 0 0 0 0 0 0 0 0 0 0 0 0 0 0 0 0 0 0 0 0 0 0 0 0 0 0 0 0 0 0 0 0 0 0 0 0 0 0 0 0 0 0 0 0 0 0 0 0 0 0 0 0 0 0 0 0 0 0 0 0 0 0 0 0 0 0 0 0 0 0 0 0 0 0 0 0 0 0 0 0 0 0 0 0 0 0 0 0 0 0 0 0 0 0 0 0 0 1 1 1 1 1 1 1 1 1 1 1 1 1 1 1 1 1 1 1 1 1 1 1 1 1 1 1 1 1 1 1 1 1 1 1 1 1 1 1 1 1 1 1 1 1 1 1 1 1 1 1 1 1 1 1 1 1 1 1 1 1 1 1 1 1 1 1 1 1 1 1 1 1 1 1 1 1 1 1 1 1 1 1 1 1 1 1 1 1 1 1 1 1 1 1 1 1 1 1 1
				</DataArray>
				<DataArray Name="F3" type="Float32" format="ascii">
 0 0 0 0 0 0 0 0 0 0 0 0 0 0 0 0 0 0 0 0 0 0 0 0 0 0 0 0 0 0 0 0 0 0 0 0 0 0 0 0 0 0 0 0 0 0 0 0 0 0 0 0 0 0 0 0 0 0 0 0 0 0 0 0 0 0 0 0 0 0 0 0 0 0 0 0 0 0 0 0 0 0 0 0 0 0 0 0 0 0 0 0 0 0 0 0 0 0 0 0 0 0 0 0 0 0 0 0 0 0 0 0 0 0 0 0 0 0 0 0 0 0 0 0 0 0 0 0 0 0 0 0 0 0 0 0 0 0 0 0 0 0 0 0 0 0 0 0 0 0 0 0 0 0 0 0 0 0 0 0 0 0 0 0 0 0 0 0 0 0 0 0 0 0 0 0 0 0 0 0 0 0 0 0 0 0 0 0 0 0 0 0 0 0 0 0 0 0 0 0 0 0 0 0 0 0 0 0 0 0 0 0 0 0 0 0 0 0 0 0 0 0 0 0 0 0 0 0 0 0 0 0 0 0 0 0 0 0 0 0 0 0 0 0 0 0 0 0 0 0 0 0 0 0 0 0 0 0 0 0 0 0 0 0 0 0 0 0 0 0 0 0 0 0 0 0 0 0 0 0 0 0 0 0 0 0 0 0 0 0 0 0 0 0 0 0 0 0 0 0 0 0 0 0 0 0 0 0 0 0 0 0 0 0 0 0 0 0 0 0 0 0 0 0 0 0 0 0 0 0 0 0 0 0 0 0 0 0 0 0 0 0 0 0 0 0 0 0 0 0 0 0 0 0 0 0 0 0 0 0 0 0 0 0 0 0 0 0 0 0 0 0 0 0 0 0 0 0 0 0 0 0 0 0 0 0 0 0 0 0 0 0 0 0 0 0 0 0 0 0 0 0 0 0 0 0 0 0 0 0 0 0 0 0 0 0 0 0 0 0 0 0 0 0 0 0 0 0 0 0 0 0 0 0 0 0 0 0 0 0 0 0 0 0 0 0 0 0 0 0 0 0 0 0 0 0 0 0 0 0 0 0 0 0 0 0 0 0 0 0 0 0 0 0 0 0 0 0 0 0 0 0 0 0 0 0 0 0 0 0 0 0 0 0 0 0 0 0 0 0 0 0 0 0 0 0 0 0 0 0 0 0 0 0 0 0 0 0 0 0 0 0 0 0 0 0 0 0 0 0 0 0 0 0 0 0 0 0 0 0 0 0 0 0 0 0 0 0 0 0 0 0 0 0 0 0 0 0 0 0 0 0 0 0 0 0 0 0 0 0 0 0 0 0 0 0 0 0 0 0 0 0 0 0 0 0 0 0 0 0 0 0 0 0 0 0 0 0 0 0 0 0 0 0 0 0 0 0 0 0 0 0 0 0 0 0 0 0 0 0 0 0 0 0 0 0 0 0 0 0 0 0 0 0 0 0 0 0 0 0 0 0 0 0 0 0 0 0 0 0 0 0 0 0 0 0 0 0 0 0 0 0 0 0 0 0 0 0 0 0 0 0 0 0 0 0 0 0 0 0 0 0 0 0 0 0 0 0 0 0 0 0 0 0 0 0 0 0 0 0 0 0 0 0 0 0 0 0 0 0 0 0 0 0 0 0 0 0 0 0 0 0 0 0 0 0 0 0 0 0 0 0 0 0 0 0 0 0 0 0 0 0 0 0 0 0 0 0 0 0 0 0 0 0 0 0 0 0 0 0 0 0 0 0 0 0 0 0 0 0 0 0 0 0 0 0 0 0 0 0 0 0 0 0 0 0 0 0 0 0 0 0 0 0 0 0 0 0 0 0 0 0 0 0 0 0 0 0 0 0 0 0 0 0 0 0 0 0 0 0 0 0 0 0 0 0 0 0 0 0 0 0 0 0 0 0 0 0 0 0 0 0 0 0 0 0 0 0 0 0 0 0 0 0 0 0 0 0 0 0 0 0 0 0 0 0 0 0 0 0 0 0 0 0 0 0 0 0 0 0 0 0 0 0 0 0 0 0 0 0 0 0 0 0 0 0 0 0 0 0 0 0 0 0 0 0 0 0 0 0 0 0 0 0 0 0 0 0 0 0 0 0 0 0 0 0 0 0 0 0 0 0 0 0 0 0 0 0 0 0 0 0 0 0 0 0 0 0 0 0 0 0 0 0 0 0 0 0 0 0 0 0 0 0 0 0 0 0 0 0 0 0 0 0 0 0 0 0 0 0 0 0 0 0 0 0 0 0 0 0 0 0 0 0 0 0 0 0 0 0
				</DataArray>
				<DataArray Name="Pressure" type="Float32" format="ascii">