<?xml version="1.0"?>
<VTKFile type="PolyData">
	<PolyData>
		<Piece NumberOfPoints="1206" NumberOfPolys="1000">
			<Points>
				<DataArray type="Float32" NumberOfComponents="3" format="ascii">
 0 0 0 0.005 0 0 0.01 0 0 0.015 0 0 0.02 0 0 0.025 0 0 0.03 0 0 0.035 0 0 0.04 0 0 0.045 0 0 0.05 0 0 0.055 0 0 0.06 0 0 0.065 0 0 0.07 0 0 0.075 0 0 0.08 0 0 0.085 0 0 0.09 0 0 0.095 0 0 0.1 0 0 0.105 0 0 0.11 0 0 0.115 0 0 0.12 0 0 0.125 0 0 0.13 0 0 0.135 0 0 0.14 0 0 0.145 0 0 0.15 0 0 0.155 0 0 0.16 0 0 0.165 0 0 0.17 0 0 0.175 0 0 0.18 0 0 0.185 0 0 0.19 0 0 0.195 0 0 0.2 0 0 0.205001 0 0 0.210002 0 0 0.215005 0 0 0.22001 0 0 0.225021 0 0 0.230039 0 0 0.235068 0 0 0.240114 0 0 0.245183 0 0 0.250279 0 0 0.255411 0 0 0.260585 0 0 0.265808 0 0 0.271088 0 0 0.27643 0 0 0.281843 0 0 0.287332 0 0 0.292905 0 0 0.298567 0 0 0.304325 0 0 0.310187 0 0 0.316158 0 0 0.322245 0 0 0.328455 0 0 0.334797 0 0 0.341276 0 0 0.347903 0 0 0.354684 0 0 0.361629 0 0 0.368748 0 0 0.376051 0 0 0.383548 0 0 0.391252 0 0 0.399173 0 0 0.407326 0 0 0.415723 0 0 0.424379 0 0 0.433306 0 0 0.442519 0 0 0.45203 0 0 0.461848 0 0 0.47198 0 0 0.482426 0 0 0.493177 0 0 0.504213 0 0 0.515503 0 0 0.527005 0 0 0.538669 0 0 0.550447 0 0 0.562299 0 0 0.574194 0 0 0.586116 0 0 0.598056 0 0 0.610013 0 0 0.621989 0 0 0.633991 0 0 0.646032 0 0 0.65814 0 0 0.670406 0 0 0.683334 0 0 0.685746 0 0 0.68811 0 0 0.690476 0 0 0.692841 0 0 0.695198 0 0 0.69755 0 0 0.699895 0 0 0.70224 0 0 0.704581 0 0 0.706924 0 0 0.709248 0 0 0.711592 0 0 0.713913 0 0 0.716337 0 0 0.718852 0 0 0.721371 0 0 0.723763 0 0 0.726049 0 0 0.72833 0 0 0.73063 0 0 0.732946 0 0 0.735263 0 0 0.737584 0 0 0.739897 0 0 0.742211 0 0 0.744523 0 0 0.746841 0 0 0.749158 0 0 0.751474 0 0 0.753785 0 0 0.7561 0 0 0.758416 0 0 0.76073 0 0 0.76304 0 0 0.765352 0 0 0.767669 0 0 0.769987 0 0 0.772301 0 0 0.774611 0 0 0.776926 0 0 0.779245 0 0 0.781562 0 0 0.783872 0 0 0.786185 0 0 0.788504 0 0 0.790826 0 0 0.793142 0 0 0.795454 0 0 0.797771 0 0 0.800092 0 0 0.802412 0 0 0.804726 0 0 0.807043 0 0 0.809364 0 0 0.811687 0 0 0.81401 0 0 0.816329 0 0 0.818649 0 0 0.820972 0 0 0.823295 0 0 0.825616 0 0 0.827933 0 0 0.830252 0 0 0.832573 0 0 0.834855 0 0 0.837103 0 0 0.839244 0 0 0.841635 0 0 0.845318 0 0 0.850057 0 0 0.855009 0 0 0.860002 0 0 0.865 0 0 0.87 0 0 0.875 0 0 0.88 0 0 0.885 0 0 0.89 0 0 0.895 0 0 0.9 0 0 0.905 0 0 0.91 0 0 0.915 0 0 0.92 0 0 0.925 0 0 0.93 0 0 0.935 0 0 0.94 0 0 0.945 0 0 0.95 0 0 0.955 0 0 0.96 0 0 0.965 0 0 0.97 0 0 0.975 0 0 0.98 0 0 0.985 0 0 0.99 0 0 0.995 0 0 1 0 0 0 0.02 0 0.005 0.02 0 0.01 0.02 0 0.015 0.02 0 0.02 0.02 0 0.025 0.02 0 0.03 0.02 0 0.035 0.02 0 0.04 0.02 0 0.045 0.02 0 0.05 0.02 0 0.055 0.02 0 0.06 0.02 0 0.065 0.02 0 0.07 0.02 0 0.075 0.02 0 0.08 0.02 0 0.085 0.02 0 0.09 0.02 0 0.095 0.02 0 0.1 0.02 0 0.105 0.02 0 0.11 0.02 0 0.115 0.02 0 0.12 0.02 0 0.125 0.02 0 0.13 0.02 0 0.135 0.02 0 0.14 0.02 0 0.145 0.02 0 0.15 0.02 0 0.155 0.02 0 0.16 0.02 0 0.165 0.02 0 0.17 0.02 0 0.175 0.02 0 0.18 0.02 0 0.185 0.02 0 0.19 0.02 0 0.195 0.02 0 0.2 0.02 0 0.205001 0.02 0 0.210002 0.02 0 0.215005 0.02 0 0.22001 0.02 0 0.225021 0.02 0 0.230039 0.02 0 0.235068 0.02 0 0.240114 0.02 0 0.245183 0.02 0 0.250279 0.02 0 0.255411 0.02 0 0.260585 0.02 0 0.265808 0.02 0 0.271088 0.02 0 0.27643 0.02 0 0.281843 0.02 0 0.287332 0.02 0 0.292905 0.02 0 0.298567 0.02 0 0.304325 0.02 0 0.310187 0.02 0 0.316158 0.02 0 0.322245 0.02 0 0.328455 0.02 0 0.334797 0.02 0 0.341276 0.02 0 0.347903 0.02 0 0.354684 0.02 0 0.361629 0.02 0 0.368748 0.02 0 0.376051 0.02 0 0.383548 0.02 0 0.391252 0.02 0 0.399173 0.02 0 0.407326 0.02 0 0.415723 0.02 0 0.424379 0.02 0 0.433306 0.02 0 0.442519 0.02 0 0.45203 0.02 0 0.461848 0.02 0 0.47198 0.02 0 0.482426 0.02 0 0.493177 0.02 0 0.504213 0.02 0 0.515503 0.02 0 0.527005 0.02 0 0.538669 0.02 0 0.550448 0.02 0 0.562299 0.0200001 0 0.574195 0.0200001 0 0.586117 0.0200002 0 0.598057 0.0200003 0 0.610013 0.0200004 0 0.621989 0.0200005 0 0.633992 0.0200004 0 0.646032 0.0200004 0 0.65814 0.02 0 0.670406 0.0199996 0 0.683335 0.0200029 0 0.685743 0.0200012 0 0.688109 0.0200031 0 0.690479 0.0200078 0 0.692843 0.0200094 0 0.695203 0.0200105 0 0.697553 0.02001 0 0.699902 0.0200094 0 0.702241 0.0200117 0 0.704574 0.0200234 0 0.706891 0.0200394 0 0.709214 0.0200558 0 0.711504 0.0200756 0 0.713806 0.020083 0 0.715999 0.0200749 0 0.718101 0.0200658 0 0.720187 0.0200576 0 0.722399 0.0200438 0 0.72473 0.0200223 0 0.727079 0.0200044 0 0.729415 0.0199972 0 0.731739 0.0199961 0 0.734062 0.0200005 0 0.73638 0.0200013 0 0.738705 0.0200012 0 0.741029 0.0200033 0 0.743352 0.0200114 0 0.745666 0.0200148 0 0.74798 0.0200123 0 0.750296 0.0200119 0 0.752617 0.0200112 0 0.754932 0.0200164 0 0.757242 0.0200191 0 0.759555 0.0200161 0 0.761873 0.0200133 0 0.76419 0.0200121 0 0.766503 0.0200123 0 0.768813 0.0200122 0 0.771128 0.0200078 0 0.773449 0.0200049 0 0.775767 0.0200034 0 0.778078 0.0200084 0 0.78039 0.0200085 0 0.782709 0.0200011 0 0.785031 0.0199951 0 0.787347 0.0199924 0 0.789661 0.0199954 0 0.79198 0.019993 0 0.794304 0.0199901 0 0.796625 0.0199886 0 0.798942 0.0199892 0 0.80126 0.0199901 0 0.803581 0.01999 0 0.805903 0.0199828 0 0.808224 0.0199766 0 0.810545 0.0199693 0 0.812868 0.0199698 0 0.815194 0.0199724 0 0.817519 0.0199707 0 0.819843 0.0199626 0 0.82217 0.0199512 0 0.824494 0.0199494 0 0.826821 0.0199539 0 0.829159 0.0199517 0 0.831509 0.0199494 0 0.833865 0.0199519 0 0.836168 0.0199617 0 0.838644 0.0199786 0 0.84146 0.0199943 0 0.845338 0.0199994 0 0.850058 0.02 0 0.85501 0.02 0 0.860002 0.02 0 0.865 0.02 0 0.87 0.02 0 0.875 0.02 0 0.88 0.02 0 0.885 0.02 0 0.89 0.02 0 0.895 0.02 0 0.9 0.02 0 0.905 0.02 0 0.91 0.02 0 0.915 0.02 0 0.92 0.02 0 0.925 0.02 0 0.93 0.02 0 0.935 0.02 0 0.94 0.02 0 0.945 0.02 0 0.95 0.02 0 0.955 0.02 0 0.96 0.02 0 0.965 0.02 0 0.97 0.02 0 0.975 0.02 0 0.98 0.02 0 0.985 0.02 0 0.99 0.02 0 0.995 0.02 0 1 0.02 0 0 0.04 0 0.005 0.04 0 0.01 0.04 0 0.015 0.04 0 0.02 0.04 0 0.025 0.04 0 0.03 0.04 0 0.035 0.04 0 0.04 0.04 0 0.045 0.04 0 0.05 0.04 0 0.055 0.04 0 0.06 0.04 0 0.065 0.04 0 0.07 0.04 0 0.075 0.04 0 0.08 0.04 0 0.085 0.04 0 0.09 0.04 0 0.095 0.04 0 0.1 0.04 0 0.105 0.04 0 0.11 0.04 0 0.115 0.04 0 0.12 0.04 0 0.125 0.04 0 0.13 0.04 0 0.135 0.04 0 0.14 0.04 0 0.145 0.04 0 0.15 0.04 0 0.155 0.04 0 0.16 0.04 0 0.165 0.04 0 0.17 0.04 0 0.175 0.04 0 0.18 0.04 0 0.185 0.04 0 0.19 0.04 0 0.195 0.04 0 0.2 0.04 0 0.205001 0.04 0 0.210002 0.04 0 0.215005 0.04 0 0.22001 0.04 0 0.225021 0.04 0 0.230039 0.04 0 0.235068 0.04 0 0.240114 0.04 0 0.245183 0.04 0 0.250279 0.04 0 0.255411 0.04 0 0.260585 0.04 0 0.265808 0.04 0 0.271088 0.04 0 0.27643 0.04 0 0.281843 0.04 0 0.287332 0.04 0 0.292905 0.04 0 0.298567 0.04 0 0.304325 0.04 0 0.310187 0.04 0 0.316158 0.04 0 0.322245 0.04 0 0.328455 0.04 0 0.334797 0.04 0 0.341276 0.04 0 0.347903 0.04 0 0.354684 0.04 0 0.361629 0.04 0 0.368748 0.04 0 0.376051 0.04 0 0.383548 0.04 0 0.391252 0.04 0 0.399173 0.04 0 0.407326 0.04 0 0.415723 0.04 0 0.424379 0.04 0 0.433306 0.04 0 0.442519 0.04 0 0.45203 0.04 0 0.461848 0.04 0 0.47198 0.04 0 0.482426 0.04 0 0.493177 0.04 0 0.504213 0.04 0 0.515503 0.04 0 0.527005 0.04 0 0.538669 0.04 0 0.550448 0.04 0 0.562299 0.0400001 0 0.574195 0.0400001 0 0.586117 0.0400003 0 0.598057 0.0400005 0 0.610014 0.0400007 0 0.621991 0.040001 0 0.633993 0.0400013 0 0.646033 0.0400017 0 0.65814 0.0400017 0 0.670406 0.0400013 0 0.683335 0.0399979 0 0.685752 0.0399947 0 0.688121 0.0400001 0 0.690489 0.0400129 0 0.692854 0.0400196 0 0.69521 0.0400208 0 0.697563 0.0400171 0 0.69991 0.0400129 0 0.702259 0.0400149 0 0.704608 0.0400223 0 0.706969 0.0400352 0 0.709319 0.0400523 0 0.711699 0.0400667 0 0.714069 0.0400585 0 0.716551 0.0400294 0 0.719129 0.0400103 0 0.721704 0.0400171 0 0.724134 0.0400279 0 0.72644 0.0400212 0 0.728725 0.04001 0 0.731022 0.0400073 0 0.73333 0.0400057 0 0.735643 0.0400067 0 0.73796 0.040009 0 0.74027 0.0400048 0 0.742584 0.0400021 0 0.744902 0.0400032 0 0.747231 0.0400062 0 0.749557 0.0400081 0 0.751881 0.040008 0 0.754198 0.0400067 0 0.756523 0.0400079 0 0.758852 0.0400099 0 0.76118 0.040008 0 0.763502 0.0400046 0 0.765824 0.0400014 0 0.768152 0.0399991 0 0.770482 0.0399986 0 0.772807 0.0399923 0 0.775126 0.039991 0 0.777451 0.0399891 0 0.779779 0.0399913 0 0.782107 0.0399927 0 0.784429 0.0399849 0 0.786746 0.0399821 0 0.78907 0.0399803 0 0.791392 0.0399839 0 0.79371 0.0399828 0 0.796023 0.0399776 0 0.79834 0.0399787 0 0.800657 0.0399773 0 0.802976 0.0399732 0 0.805295 0.0399681 0 0.807615 0.0399662 0 0.809933 0.0399725 0 0.812242 0.0399717 0 0.814548 0.0399628 0 0.816855 0.0399576 0 0.819167 0.0399559 0 0.821482 0.0399602 0 0.823788 0.0399546 0 0.826084 0.0399491 0 0.82838 0.0399433 0 0.830682 0.0399501 0 0.832989 0.0399647 0 0.835243 0.0399877 0 0.837465 0.0400157 0 0.839553 0.0400148 0 0.841815 0.0400034 0 0.845339 0.04 0 0.850058 0.04 0 0.85501 0.04 0 0.860002 0.04 0 0.865 0.04 0 0.87 0.04 0 0.875 0.04 0 0.88 0.04 0 0.885 0.04 0 0.89 0.04 0 0.895 0.04 0 0.9 0.04 0 0.905 0.04 0 0.91 0.04 0 0.915 0.04 0 0.92 0.04 0 0.925 0.04 0 0.93 0.04 0 0.935 0.04 0 0.94 0.04 0 0.945 0.04 0 0.95 0.04 0 0.955 0.04 0 0.96 0.04 0 0.965 0.04 0 0.97 0.04 0 0.975 0.04 0 0.98 0.04 0 0.985 0.04 0 0.99 0.04 0 0.995 0.04 0 1 0.04 0 0 0.06 0 0.005 0.06 0 0.01 0.06 0 0.015 0.06 0 0.02 0.06 0 0.025 0.06 0 0.03 0.06 0 0.035 0.06 0 0.04 0.06 0 0.045 0.06 0 0.05 0.06 0 0.055 0.06 0 0.06 0.06 0 0.065 0.06 0 0.07 0.06 0 0.075 0.06 0 0.08 0.06 0 0.085 0.06 0 0.09 0.06 0 0.095 0.06 0 0.1 0.06 0 0.105 0.06 0 0.11 0.06 0 0.115 0.06 0 0.12 0.06 0 0.125 0.06 0 0.13 0.06 0 0.135 0.06 0 0.14 0.06 0 0.145 0.06 0 0.15 0.06 0 0.155 0.06 0 0.16 0.06 0 0.165 0.06 0 0.17 0.06 0 0.175 0.06 0 0.18 0.06 0 0.185 0.06 0 0.19 0.06 0 0.195 0.06 0 0.2 0.06 0 0.205001 0.06 0 0.210002 0.06 0 0.215005 0.06 0 0.22001 0.06 0 0.225021 0.06 0 0.230039 0.06 0 0.235068 0.06 0 0.240114 0.06 0 0.245183 0.06 0 0.250279 0.06 0 0.255411 0.06 0 0.260585 0.06 0 0.265808 0.06 0 0.271088 0.06 0 0.27643 0.06 0 0.281843 0.06 0 0.287332 0.06 0 0.2929
[...]
			<CellData Scalars="Density">
				<DataArray Name="Density" type="Float32" format="ascii">
 1 1 1 1 1 1 1 1 1 1 1 1 1 1 1 1 1 1 1 1 1 1 1 1 1 1 1 1 1 1 1 1 1 1 1 0.999999 0.999997 0.999993 0.999983 0.999958 0.999894 0.999751 0.999456 0.998901 0.997942 0.996404 0.994103 0.990863 0.986542 0.981041 0.974319 0.96638 0.957272 0.94707 0.935868 0.923766 0.910866 0.897261 0.88304 0.868279 0.853048 0.837405 0.8214 0.805081 0.788481 0.771638 0.754577 0.737328 0.719912 0.702355 0.684677 0.666904 0.649061 0.631178 0.613289 0.595437 0.577676 0.560073 0.542718 0.525727 0.509249 0.493479 0.47866 0.465078 0.453047 0.442861 0.434722 0.428664 0.424507 0.421883 0.420329 0.419401 0.418757 0.41817 0.417489 0.416581 0.415249 0.41297 0.407626 0.386734 0.259279 0.264206 0.263824 0.264036 0.264742 0.265524 0.266065 0.266546 0.266988 0.267264 0.267607 0.267888 0.268124 0.268397 0.26869 0.269608 0.270054 0.269755 0.26963 0.269576 0.269491 0.269457 0.269445 0.269455 0.269452 0.269441 0.269474 0.269501 0.269544 0.269535 0.269582 0.269624 0.269687 0.269679 0.26964 0.269664 0.269698 0.269717 0.2697 0.269747 0.269747 0.269825 0.269834 0.26978 0.269824 0.269833 0.269857 0.269834 0.269839 0.269788 0.269857 0.269886 0.269846 0.269871 0.269883 0.26994 0.269968 0.269884 0.269942 0.270023 0.270487 0.270519 0.269798 0.269038 0.270887 0.275904 0.271538 0.240383 0.165345 0.132157 0.126208 0.125199 0.125033 0.125005 0.125001 0.125 0.125 0.125 0.125 0.125 0.125 0.125 0.125 0.125 0.125 0.125 0.125 0.125 0.125 0.125 0.125 0.125 0.125 0.125 0.125 0.125 0.125 0.125 0.125 0.125 1 1 1 1 1 1 1 1 1 1 1 1 1 1 1 1 1 1 1 1 1 1 1 1 1 1 1 1 1 1 1 1 1 1 1 0.999999 0.999997 0.999993 0.999983 0.999958 0.999894 0.999751 0.999456 0.998901 0.997942 0.996404 0.994103 0.990863 0.986542 0.981041 0.974319 0.96638 0.957272 0.94707 0.935868 0.923766 0.910866 0.897261 0.88304 0.868279 0.853048 0.837405 0.8214 0.805081 0.788481 0.771638 0.754577 0.737328 0.719912 0.702355 0.684677 0.666904 0.649061 0.631178 0.613289 0.595437 0.577676 0.560073 0.542718 0.525727 0.509249 0.493479 0.47866 0.465078 0.453047 0.442861 0.434721 0.428662 0.424504 0.421879 0.420323 0.419397 0.418756 0.418171 0.41749 0.416581 0.415251 0.412971 0.407623 0.386731 0.259241 0.264103 0.263848 0.264058 0.26476 0.265513 0.266081 0.26652 0.266975 0.267261 0.267573 0.267909 0.268046 0.268312 0.268615 0.269532 0.270111 0.269805 0.269699 0.269613 0.269537 0.26947 0.269459 0.269509 0.26946 0.269527 0.269459 0.269542 0.269588 0.269611 0.269589 0.269681 0.269651 0.269662 0.269722 0.26974 0.269745 0.26982 0.26981 0.269734 0.26986 0.269889 0.269817 0.26989 0.269824 0.269953 0.269925 0.269895 0.269904 0.270064 0.270028 0.269958 0.269879 0.26984 0.26999 0.27014 0.270155 0.270067 0.269738 0.269869 0.270482 0.270594 0.269643 0.268347 0.270444 0.274955 0.272649 0.245623 0.168806 0.132434 0.126222 0.1252 0.125033 0.125005 0.125001 0.125 0.125 0.125 0.125 0.125 0.125 0.125 0.125 0.125 0.125 0.125 0.125 0.125 0.125 0.125 0.125 0.125 0.125 0.125 0.125 0.125 0.125 0.125 0.125 0.125 1 1 1 1 1 1 1 1 1 1 1 1 1 1 1 1 1 1 1 1 1 1 1 1 1 1 1 1 1 1 1 1 1 1 1 0.999999 0.999997 0.999993 0.999983 0.999958 0.999894 0.999751 0.999456 0.998901 0.997942 0.996404 0.994103 0.990863 0.986542 0.981041 0.974319 0.96638 0.957272 0.94707 0.935868 0.923766 0.910866 0.897261 0.88304 0.868279 0.853048 0.837405 0.8214 0.805081 0.788481 0.771638 0.754577 0.737328 0.719912 0.702355 0.684677 0.666904 0.649061 0.631178 0.613289 0.595437 0.577676 0.560073 0.542718 0.525727 0.509249 0.493479 0.47866 0.465078 0.453047 0.442861 0.434721 0.428662 0.424502 0.421874 0.420317 0.41939 0.418749 0.418167 0.417488 0.416581 0.415251 0.412975 0.407632 0.38673 0.259229 0.264171 0.263787 0.264023 0.264763 0.265496 0.266037 0.266573 0.266979 0.267257 0.26757 0.267906 0.268132 0.26831 0.268642 0.269541 0.270076 0.269779 0.269653 0.269594 0.269532 0.269473 0.269425 0.26944 0.269474 0.269405 0.269519 0.269471 0.269565 0.269598 0.269526 0.26967 0.269615 0.269633 0.269676 0.269712 0.269693 0.269716 0.269757 0.269687 0.269731 0.269773 0.269704 0.269831 0.269711 0.269828 0.269857 0.269802 0.269845 0.269854 0.269833 0.269777 0.269688 0.269649 0.269733 0.269781 0.269893 0.269824 0.269395 0.269512 0.269438 0.269177 0.268636 0.267904 0.270408 0.277357 0.275153 0.240582 0.166573 0.132327 0.126216 0.1252 0.125033 0.125005 0.125001 0.125 0.125 0.125 0.125 0.125 0.125 0.125 0.125 0.125 0.125 0.125 0.125 0.125 0.125 0.125 0.125 0.125 0.125 0.125 0.125 0.125 0.125 0.125 0.125 0.125 1 1 1 1 1 1 1 1 1 1 1 1 1 1 1 1 1 1 1 1 1 1 1 1 1 1 1 1 1 1 1 1 1 1 1 0.999999 0.999997 0.999993 0.999983 0.999958 0.999894 0.999751 0.999456 0.998901 0.997942 0.996404 0.994103 0.990863 0.986542 0.981041 0.974319 0.96638 0.957272 0.94707 0.935868 0.923766 0.910866 0.897261 0.88304 0.868279 0.853048 0.837405 0.8214 0.805081 0.788481 0.771638 0.754577 0.737328 0.719912 0.702355 0.684677 0.666904 0.649061 0.631178 0.613289 0.595437 0.577676 0.560073 0.542718 0.525727 0.509249 0.493479 0.47866 0.465078 0.453047 0.442861 0.434721 0.428661 0.4245 0.421871 0.420313 0.419384 0.418743 0.41816 0.417482 0.416578 0.415249 0.412969 0.407625 0.386732 0.25923 0.264216 0.263803 0.264043 0.264728 0.265532 0.266048 0.266563 0.267014 0.267223 0.267569 0.267829 0.268035 0.268338 0.268645 0.269642 0.270106 0.269782 0.269657 0.269612 0.269507 0.269465 0.269438 0.269425 0.269466 0.269419 0.269527 0.269487 0.269561 0.269547 0.269587 0.269589 0.269664 0.269642 0.269664 0.269687 0.269721 0.269716 0.269736 0.269759 0.269737 0.269741 0.269747 0.269728 0.269821 0.26973 0.269826 0.269801 0.269855 0.269764 0.26982 0.269793 0.269788 0.269797 0.269757 0.269799 0.269797 0.269725 0.269619 0.269707 0.269614 0.269649 0.269584 0.26891 0.270536 0.27747 0.274791 0.241305 0.16601 0.132186 0.126202 0.125199 0.125033 0.125005 0.125001 0.125 0.125 0.125 0.125 0.125 0.125 0.125 0.125 0.125 0.125 0.125 0.125 0.125 0.125 0.125 0.125 0.125 0.125 0.125 0.125 0.125 0.125 0.125 0.125 0.125 1 1 1 1 1 1 1 1 1 1 1 1 1 1 1 1 1 1 1 1 1 1 1 1 1 1 1 1 1 1 1 1 1 1 1 0.999999 0.999997 0.999993 0.999983 0.999958 0.999894 0.999751 0.999456 0.998901 0.997942 0.996404 0.994103 0.990863 0.986542 0.981041 0.974319 0.96638 0.957272 0.94707 0.935868 0.923766 0.910866 0.897261 0.88304 0.868279 0.853048 0.837405 0.8214 0.805081 0.788481 0.771638 0.754577 0.737328 0.719912 0.702355 0.684677 0.666904 0.649061 0.631178 0.613289 0.595437 0.577676 0.560073 0.542718 0.525727 0.509249 0.493479 0.47866 0.465078 0.453047 0.442861 0.434721 0.428661 0.4245 0.42187 0.420311 0.419381 0.418739 0.418156 0.417476 0.41657 0.41524 0.412959 0.407609 0.386679 0.259178 0.264154 0.263843 0.264073 0.264763 0.265528 0.266071 0.266543 0.266983 0.267273 0.267599 0.267869 0.268086 0.268352 0.268724 0.269677 0.270052 0.26971 0.269622 0.269596 0.269496 0.269443 0.269426 0.269426 0.269448 0.269452 0.26947 0.269521 0.26954 0.26954 0.26956 0.269602 0.269629 0.269684 0.269674 0.269709 0.269729 0.269746 0.269729 0.269705 0.26976 0.269746 0.269795 0.269759 0.269792 0.269809 0.269812 0.269835 0.269811 0.269819 0.269787 0.2698 0.269803 0.269788 0.269785 0.269769 0.269766 0.26977 0.269762 0.269731 0.269894 0.269845 0.269756 0.268706 0.269727 0.275693 0.274824 0.245333 0.166974 0.132143 0.126187 0.125197 0.125032 0.125005 0.125001 0.125 0.125 0.125 0.125 0.125 0.125 0.125 0.125 0.125 0.125 0.125 0.125 0.125 0.125 0.125 0.125 0.125 0.125 0.125 0.125 0.125 0.125 0.125 0.125 0.125
				</DataArray>
				<DataArray Name="Energy" type="Float32" format="ascii">
 2.5 2.5 2.5 2.5 2.5 2.5 2.5 2.5 2.5 2.5 2.5 2.5 2.5 2.5 2.5 2.5 2.5 2.5 2.5 2.5 2.5 2.5 2.5 2.5 2.5 2.5 2.5 2.5 2.5 2.5 2.5 2.5 2.5 2.5 2.5 2.5 2.5 2.49999 2.49998 2.49996 2.4999 2.49975 2.49946 2.49892 2.49797 2.49645 2.49418 2.49098 2.4867 2.48124 2.47455 2.46662 2.45749 2.4472 2.43584 2.42349 2.41023 2.39613 2.38127 2.36572 2.34951 2.3327 2.31533 2.29742 2.27901 2.2601 2.24072 2.22089 2.20061 2.17989 2.15875 2.1372 2.11525 2.09294 2.07028 2.04732 2.02411 2.00075 1.97735 1.95406 1.93113 1.90883 1.88758 1.86786 1.85023 1.83524 1.82335 1.81474 1.80925 1.80638 1.80549 1.80595 1.80731 1.80939 1.81226 1.81623 1.82215 1.8323 1.85642 1.95686 2.91981 2.86463 2.86851 2.86615 2.85863 2.85026 2.84452 2.83945 2.83466 2.8317 2.82813 2.82526 2.82319 2.82051 2.81756 2.80793 2.80257 2.80563 2.80676 2.80739 2.80821 2.80867 2.80878 2.8087 2.80875 2.80878 2.80861 2.80815 2.8076 2.80774 2.80765 2.80732 2.80698 2.8068 2.80673 2.80651 2.80613 2.80582 2.8061 2.80619 2.8059 2.80571 2.80597 2.80595 2.806 2.80573 2.80557 2.80584 2.80592 2.80561 2.80559 2.80571 2.80581 2.80589 2.80593 2.80587 2.80613 2.806 2.80629 2.80666 2.80831 2.80852 2.80586 2.80293 2.81032 2.82976 2.81206 2.67031 2.25393 2.04121 2.00671 2.0011 2.00018 2.00003 2 2 2 2 2 2 2 2 2 2 2 2 2 2 2 2 2 2 2 2 2 2 2 2 2 2 2.5 2.5 2.5 2.5 2.5 2.5 2.5 2.5 2.5 2.5 2.5 2.5 2.5 2.5 2.5 2.5 2.5 2.5 2.5 2.5 2.5 2.5 2.5 2.5 2.5 2.5 2.5 2.5 2.5 2.5 2.5 2.5 2.5 2.5 2.5 2.5 2.5 2.49999 2.49998 2.49996 2.4999 2.49975 2.49946 2.49892 2.49797 2.49645 2.49418 2.49098 2.4867 2.48124 2.47455 2.46662 2.45749 2.4472 2.43584 2.42349 2.41023 2.39613 2.38127 2.36572 2.34951 2.3327 2.31533 2.29742 2.27901 2.2601 2.24072 2.22089 2.20061 2.17989 2.15875 2.1372 2.11525 2.09294 2.07028 2.04732 2.02411 2.00075 1.97735 1.95406 1.93113 1.90883 1.88758 1.86786 1.85023 1.83524 1.82335 1.81474 1.80924 1.80638 1.80548 1.80594 1.80731 1.8094 1.81226 1.81623 1.82215 1.8323 1.85641 1.95685 2.91965 2.8642 2.86861 2.86625 2.85871 2.85022 2.84458 2.83935 2.83461 2.83169 2.82799 2.82535 2.82291 2.82031 2.81757 2.8077 2.80214 2.8053 2.80644 2.80692 2.80792 2.80829 2.80838 2.80854 2.80833 2.80866 2.80804 2.80778 2.80733 2.80752 2.80713 2.80693 2.80628 2.80608 2.80632 2.80602 2.8055 2.80544 2.80567 2.80519 2.80527 2.80504 2.80475 2.80519 2.80469 2.80479 2.80444 2.80458 2.80457 2.8049 2.80444 2.80395 2.80389 2.80355 2.80386 2.80412 2.80411 2.80387 2.80232 2.80266 2.80475 2.80504 2.80125 2.7958 2.80386 2.82097 2.81144 2.69247 2.27487 2.04288 2.00678 2.0011 2.00018 2.00003 2 2 2 2 2 2 2 2 2 2 2 2 2 2 2 2 2 2 2 2 2 2 2 2 2 2 2.5 2.5 2.5 2.5 2.5 2.5 2.5 2.5 2.5 2.5 2.5 2.5 2.5 2.5 2.5 2.5 2.5 2.5 2.5 2.5 2.5 2.5 2.5 2.5 2.5 2.5 2.5 2.5 2.5 2.5 2.5 2.5 2.5 2.5 2.5 2.5 2.5 2.49999 2.49998 2.49996 2.4999 2.49975 2.49946 2.49892 2.49797 2.49645 2.49418 2.49098 2.4867 2.48124 2.47455 2.46662 2.45749 2.4472 2.43584 2.42349 2.41023 2.39613 2.38127 2.36572 2.34951 2.3327 2.31533 2.29742 2.27901 2.2601 2.24072 2.22089 2.20061 2.17989 2.15875 2.1372 2.11525 2.09294 2.07028 2.04732 2.02411 2.00075 1.97735 1.95406 1.93113 1.90883 1.88758 1.86786 1.85023 1.83524 1.82335 1.81474 1.80924 1.80637 1.80547 1.80593 1.8073 1.80939 1.81225 1.81623 1.82215 1.83231 1.85643 1.95685 2.9196 2.86448 2.86836 2.8661 2.85871 2.85015 2.8444 2.83956 2.83463 2.83167 2.82797 2.82534 2.82319 2.82013 2.81687 2.8072 2.80326 2.8063 2.80716 2.80724 2.80819 2.80858 2.80861 2.80878 2.80867 2.80857 2.80868 2.80801 2.80788 2.80779 2.80733 2.80736 2.80688 2.80647 2.80679 2.80651 2.8062 2.80602 2.80605 2.80582 2.80574 2.80586 2.80528 2.80593 2.80527 2.80584 2.80586 2.80526 2.80567 2.80582 2.8058 2.80534 2.8046 2.80475 2.80538 2.8056 2.80588 2.8053 2.80367 2.80455 2.80445 2.80339 2.80103 2.79825 2.80862 2.83541 2.8262 2.67681 2.2621 2.04223 2.00675 2.0011 2.00018 2.00003 2 2 2 2 2 2 2 2 2 2 2 2 2 2 2 2 2 2 2 2 2 2 2 2 2 2 2.5 2.5 2.5 2.5 2.5 2.5 2.5 2.5 2.5 2.5 2.5 2.5 2.5 2.5 2.5 2.5 2.5 2.5 2.5 2.5 2.5 2.5 2.5 2.5 2.5 2.5 2.5 2.5 2.5 2.5 2.5 2.5 2.5 2.5 2.5 2.5 2.5 2.49999 2.49998 2.49996 2.4999 2.49975 2.49946 2.49892 2.49797 2.49645 2.49418 2.49098 2.4867 2.48124 2.47455 2.46662 2.45749 2.4472 2.43584 2.42349 2.41023 2.39613 2.38127 2.36572 2.34951 2.3327 2.31533 2.29742 2.27901 2.2601 2.24072 2.22089 2.20061 2.17989 2.15875 2.1372 2.11525 2.09294 2.07028 2.04732 2.02411 2.00075 1.97735 1.95406 1.93113 1.90883 1.88758 1.86786 1.85023 1.83524 1.82335 1.81474 1.80924 1.80636 1.80547 1.80592 1.80729 1.80938 1.81224 1.81622 1.82215 1.8323 1.85642 1.95686 2.9196 2.86467 2.86842 2.86618 2.85857 2.85029 2.84445 2.83952 2.83477 2.83153 2.82797 2.82502 2.82286 2.8204 2.81701 2.80691 2.80183 2.80533 2.80657 2.80714 2.80818 2.80869 2.80875 2.80874 2.80868 2.80859 2.8087 2.80805 2.80781 2.80754 2.80745 2.80694 2.80695 2.80635 2.80657 2.80627 2.80612 2.8059 2.80584 2.80588 2.80554 2.80556 2.80529 2.80524 2.80545 2.80518 2.80544 2.80507 2.80529 2.80511 2.80538 2.80506 2.80465 2.80489 2.8051 2.80517 2.80508 2.80452 2.80406 2.80479 2.80446 2.80469 2.80422 2.80161 2.80826 2.83513 2.82375 2.67857 2.25835 2.04138 2.00668 2.00109 2.00018 2.00003 2 2 2 2 2 2 2 2 2 2 2 2 2 2 2 2 2 2 2 2 2 2 2 2 2 2 2.5 2.5 2.5 2.5 2.5 2.5 2.5 2.5 2.5 2.5 2.5 2.5 2.5 2.5 2.5 2.5 2.5 2.5 2.5 2.5 2.5 2.5 2.5 2.5 2.5 2.5 2.5 2.5 2.5 2.5 2.5 2.5 2.5 2.5 2.5 2.5 2.5 2.49999 2.49998 2.49996 2.4999 2.49975 2.49946 2.49892 2.49797 2.49645 2.49418 2.49098 2.4867 2.48124 2.47455 2.46662 2.45749 2.4472 2.43584 2.42349 2.41023 2.39613 2.38127 2.36572 2.34951 2.3327 2.31533 2.29742 2.27901 2.2601 2.24072 2.22089 2.20061 2.17989 2.15875 2.1372 2.11525 2.09294 2.07028 2.04732 2.02411 2.00075 1.97735 1.95406 1.93113 1.90883 1.88758 1.86786 1.85023 1.83524 1.82335 1.81474 1.80924 1.80636 1.80546 1.80591 1.80728 1.80937 1.81224 1.81621 1.82214 1.83228 1.85639 1.95675 2.91938 2.86441 2.86859 2.86631 2.85872 2.85028 2.84454 2.83944 2.83464 2.83173 2.82809 2.82518 2.82301 2.82028 2.81649 2.80638 2.80253 2.80598 2.80696 2.80721 2.80813 2.80859 2.80872 2.80874 2.80861 2.80878 2.80841 2.80806 2.80755 2.80745 2.80732 2.80685 2.80658 2.8064 2.80649 2.8062 2.8059 2.80567 2.80568 2.80553 2.80535 2.80517 2.80505 2.80524 2.80503 2.80501 2.80482 2.80478 2.80484 2.80469 2.80454 2.80428 2.80427 2.80423 2.80429 2.80408 2.80373 2.80356 2.80384 2.80378 2.8042 2.80369 2.80307 2.79886 2.80328 2.82627 2.82152 2.69305 2.26423 2.04113 2.00659 2.00108 2.00018 2.00003 2 2 2 2 2 2 2 2 2 2 2 2 2 2 2 2 2 2 2 2 2 2 2 2 2 2
				</DataArray>
				<DataArray Name="F1" type="Float32" format="ascii">
 1 1 1 1 1 1 1 1 1 1 1 1 1 1 1 1 1 1 1 1 1 1 1 1 1 1 1 1 1 1 1 1 1 1 1 1 1 1 1 1 1 1 1 1 1 1 1 1 1 1 1 1 1 1 1 1 1 1 1 1 1 1 1 1 1 1 1 1 1 1 1 1 1 1 1 1 1 1 1 1 1 1 1 1 1 1 1 1 1 1 1 1 1 1 1 1 1 1 1 1 0 0 0 0 0 0 0 0 0 0 0 0 0 0 0 0 0 0 0 0 0 0 0 0 0 0 0 0 0 0 0 0 0 0 0 0 0 0 0 0 0 0 0 0 0 0 0 0 0 0 0 0 0 0 0 0 0 0 0 0 0 0 0 0 0 0 0 0 0 0 0 0 0 0 0 0 0 0 0 0 0 0 0 0 0 0 0 0 0 0 0 0 0 0 0 0 0 0 0 0 1 1 1 1 1 1 1 1 1 1 1 1 1 1 1 1 1 1 1 1 1 1 1 1 1 1 1 1 1 1 1 1 1 1 1 1 1 1 1 1 1 1 1 1 1 1 1 1 1 1 1 1 1 1 1 1 1 1 1 1 1 1 1 1 1 1 1 1 1 1 1 1 1 1 1 1 1 1 1 1 1 1 1 1 1 1 1 1 1 1 1 1 1 1 1 1 1 1 1 1 0 0 0 0 0 0 0 0 0 0 0 0 0 0 0 0 0 0 0 0 0 0 0 0 0 0 0 0 0 0 0 0 0 0 0 0 0 0 0 0 0 0 0 0 0 0 0 0 0 0 0 0 0 0 0 0 0 0 0 0 0 0 0 0 0 0 0 0 0 0 0 0 0 0 0 0 0 0 0 0 0 0 0 0 0 0 0 0 0 0 0 0 0 0 0 0 0 0 0 0 1 1 1 1 1 1 1 1 1 1 1 1 1 1 1 1 1 1 1 1 1 1 1 1 1 1 1 1 1 1 1 1 1 1 1 1 1 1 1 1 1 1 1 1 1 1 1 1 1 1 1 1 1 1 1 1 1 1 1 1 1 1 1 1 1 1 1 1 1 1 1 1 1 1 1 1 1 1 1 1 1 1 1 1 1 1 1 1 1 1 1 1 1 1 1 1 1 1 1 1 0 0 0 0 0 0 0 0 0 0 0 0 0 0 0 0 0 0 0 0 0 0 0 0 0 0 0 0 0 0 0 0 0 0 0 0 0 0 0 0 0 0 0 0 0 0 0 0 0 0 0 0 0 0 0 0 0 0 0 0 0 0 0 0 0 0 0 0 0 0 0 0 0 0 0 0 0 0 0 0 0 0 0 0 0 0 0 0 0 0 0 0 0 0 0 0 0 0 0 0 1 1 1 1 1 1 1 1 1 1 1 1 1 1 1 1 1 1 1 1 1 1 1 1 1 1 1 1 1 1 1 1 1 1 1 1 1 1 1 1 1 1 1 1 1 1 1 1 1 1 1 1 1 1 1 1 1 1 1 1 1 1 1 1 1 1 1 1 1 1 1 1 1 1 1 1 1 1 1 1 1 1 1 1 1 1 1 1 1 1 1 1 1 1 1 1 1 1 1 1 0 0 0 0 0 0 0 0 0 0 0 0 0 0 0 0 0 0 0 0 0 0 0 0 0 0 0 0 0 0 0 0 0 0 0 0 0 0 0 0 0 0 0 0 0 0 0 0 0 0 0 0 0 0 0 0 0 0 0 0 0 0 0 0 0 0 0 0 0 0 0 0 0 0 0 0 0 0 0 0 0 0 0 0 0 0 0 0 0 0 0 0 0 0 0 0 0 0 0 0 1 1 1 1 1 1 1 1 1 1 1 1 1 1 1 1 1 1 1 1 1 1 1 1 1 1 1 1 1 1 1 1 1 1 1 1 1 1 1 1 1 1 1 1 1 1 1 1 1 1 1 1 1 1 1 1 1 1 1 1 1 1 1 1 1 1 1 1 1 1 1 1 1 1 1 1 1 1 1 1 1 1 1 1 1 1 1 1 1 1 1 1 1 1 1 1 1 1 1 1 0 0 0 0 0 0 0 0 0 0 0 0 0 0 0 0 0 0 0 0 0 0 0 0 0 0 0 0 0 0 0 0 0 0 0 0 0 0 0 0 0 0 0 0 0 0 0 0 0 0 0 0 0 0 0 0 0 0 0 0 0 0 0 0 0 0 0 0 0 0 0 0 0 0 0 0 0 0 0 0 0 0 0 0 0 0 0 0 0 0 0 0 0 0 0 0 0 0 0 0
				</DataArray>
				<DataArray Name="F2" type="Float32" format="ascii">
 0 0 0 0 0 0 0 0 0 0 0 0 0 0 0 0 0 0 0 0 0 0 0 0 0 0 0 0 0 0 0 0 0 0 0 0 0 0 0 0 0 0 0 0 0 0 0 0 0 0 0 0 0 0 0 0 0 0 0 0 0 0 0 0 0 0 0 0 0 0 0 0 0 0 0 0 0 0 0 0 0 0 0 0 0 0 0 0 0 0 0 0 0 0 0 0 0 0 0 0 1 1 1 1 1 1 1 1 1 1 1 1 1 1 1 1 1 1 1 1 1 1 1 1 1 1 1 1 1 1 1 1 1 1 1 1 1 1 1 1 1 1 1 1 1 1 1 1 1 1 1 1 1 1 1 1 1 1 1 1 1 1 1 1 1 1 1 1 1 1 1 1 1 1 1 1 1 1 1 1 1 1 1 1 1 1 1 1 1 1 1 1 1 1 1 1 1 1 1 1 0 0 0 0 0 0 0 0 0 0 0 0 0 0 0 0 0 0 0 0 0 0 0 0 0 0 0 0 0 0 0 0 0 0 0 0 0 0 0 0 0 0 0 0 0 0 0 0 0 0 0 0 0 0 0 0 0 0 0 0 0 0 0 0 0 0 0 0 0 0 0 0 0 0 0 0 0 0 0 0 0 0 0 0 0 0 0 0 0 0 0 0 0 0 0 0 0 0 0 0 1 1 1 1 1 1 1 1 1 1 1 1 1 1 1 1 1 1 1 1 1 1 1 1 1 1 1 1 1 1 1 1 1 1 1 1 1 1 1 1 1 1 1 1 1 1 1 1 1 1 1 1 1 1 1 1 1 1 1 1 1 1 1 1 1 1 1 1 1 1 1 1 1 1 1 1 1 1 1 1 1 1 1 1 1 1 1 1 1 1 1 1 1 1 1 1 1 1 1 1 0 0 0 0 0 0 0 0 0 0 0 0 0 0 0 0 0 0 0 0 0 0 0 0 0 0 0 0 0 0 0 0 0 0 0 0 0 0 0 0 0 0 0 0 0 0 0 0 0 0 0 0 0 0 0 0 0 0 0 0 0 0 0 0 0 0 0 0 0 0 0 0 0 0 0 0 0 0 0 0 0 0 0 0 0 0 0 0 0 0 0 0 0 0 0 0 0 0 0 0 1 1 1 1 1 1 1 1 1 1 1 1 1 1 1 1 1 1 1 1 1 1 1 1 1 1 1 1 1 1 1 1 1 1 1 1 1 1 1 1 1 1 1 1 1 1 1 1 1 1 1 1 1 1 1 1 1 1 1 1 1 1 1 1 1 1 1 1 1 1 1 1 1 1 1 1 1 1 1 1 1 1 1 1 1 1 1 1 1 1 1 1 1 1 1 1 1 1 1 1 0 0 0 0 0 0 0 0 0 0 0 0 0 0 0 0 0 0 0 0 0 0 0 0 0 0 0 0 0 0 0 0 0 0 0 0 0 0 0 0 0 0 0 0 0 0 0 0 0 0 0 0 0 0 0 0 0 0 0 0 0 0 0 0 0 0 0 0 0 0 0 0 0 0 0 0 0 0 0 0 0 0 0 0 0 0 0 0 0 0 0 0 0 0 0 0 0 0 0 0 1 1 1 1 1 1 1 1 1 1 1 1 1 1 1 1 1 1 1 1 1 1 1 1 1 1 1 1 1 1 1 1 1 1 1 1 1 1 1 1 1 1 1 1 1 1 1 1 1 1 1 1 1 1 1 1 1 1 1 1 1 1 1 1 1 1 1 1 1 1 1 1 1 1 1 1 1 1 1 1 1 1 1 1 1 1 1 1 1 1 1 1 1 1 1 1 1 1 1 1 0 0 0 0 0 0 0 0 0 0 0 0 0 0 0 0 0 0 0 0 0 0 0 0 0 0 0 0 0 0 0 0 0 0 0 0 0 0 0 0 0 0 0 0 0 0 0 0 0 0 0 0 0 0 0 0 0 0 0 0 0 0 0 0 0 0 0 0 0 0 0 0 0 0 0 0 0 0 0 0 0 0 0 0 0 0 0 0 0 0 0 0 0 0 0 0 0 0 0 0 1 1 1 1 1 1 1 1 1 1 1 1 1 1 1 1 1 1 1 1 1 1 1 1 1 1 1 1 1 1 1 1 1 1 1 1 1 1 1 1 1 1 1 1 1 1 1 1 1 1 1 1 1 1 1 1 1 1 1 1 1 1 1 1 1 1 1 1 1 1 1 1 1 1 1 1 1 1 1 1 1 1 1 1 1 1 1 1 1 1 1 1 1 1 1 1 1 1 1 1
				</DataArray>
				<DataArray Name="F3" type="Float32" format="ascii">