<?xml version="1.0"?>
<VTKFile type="PolyData">
	<PolyData>
		<Piece NumberOfPoints="1206" NumberOfPolys="1000">
			<Points>
				<DataArray type="Float32" NumberOfComponents="3" format="ascii">
 0 0 0 0.005 0 0 0.01 0 0 0.015 0 0 0.02 0 0 0.025 0 0 0.03 0 0 0.035 0 0 0.04 0 0 0.045 0 0 0.05 0 0 0.055 0 0 0.06 0 0 0.065 0 0 0.07 0 0 0.075 0 0 0.08 0 0 0.085 0 0 0.09 0 0 0.095 0 0 0.1 0 0 0.105 0 0 0.11 0 0 0.115 0 0 0.12 0 0 0.125 0 0 0.13 0 0 0.135 0 0 0.14 0 0 0.145 0 0 0.15 0 0 0.155 0 0 0.16 0 0 0.165 0 0 0.17 0 0 0.175 0 0 0.18 0 0 0.185 0 0 0.19 0 0 0.195 0 0 0.2 0 0 0.205 0 0 0.21 0 0 0.215 0 0 0.22 0 0 0.225 0 0 0.230001 0 0 0.235001 0 0 0.240003 0 0 0.245007 0 0 0.250016 0 0 0.255032 0 0 0.260059 0 0 0.265103 0 0 0.27017 0 0 0.275268 0 0 0.280405 0 0 0.285589 0 0 0.290828 0 0 0.29613 0 0 0.301505 0 0 0.30696 0 0 0.312504 0 0 0.318143 0 0 0.323887 0 0 0.329744 0 0 0.335721 0 0 0.341828 0 0 0.348072 0 0 0.354464 0 0 0.361012 0 0 0.367727 0 0 0.374621 0 0 0.381704 0 0 0.388988 0 0 0.396488 0 0 0.404217 0 0 0.41219 0 0 0.420423 0 0 0.428933 0 0 0.437735 0 0 0.446847 0 0 0.456283 0 0 0.466056 0 0 0.476173 0 0 0.486634 0 0 0.497427 0 0 0.508526 0 0 0.519891 0 0 0.531467 0 0 0.543198 0 0 0.55503 0 0 0.566924 0 0 0.578853 0 0 0.590807 0 0 0.602783 0 0 0.614786 0 0 0.626827 0 0 0.638936 0 0 0.651203 0 0 0.664132 0 0 0.666544 0 0 0.668909 0 0 0.671276 0 0 0.673642 0 0 0.675999 0 0 0.678351 0 0 0.680697 0 0 0.683042 0 0 0.685383 0 0 0.687726 0 0 0.690052 0 0 0.692399 0 0 0.694723 0 0 0.697153 0 0 0.699674 0 0 0.702197 0 0 0.704593 0 0 0.706882 0 0 0.709165 0 0 0.711466 0 0 0.713782 0 0 0.7161 0 0 0.718422 0 0 0.720737 0 0 0.723051 0 0 0.725365 0 0 0.727684 0 0 0.730002 0 0 0.732319 0 0 0.734631 0 0 0.736947 0 0 0.739267 0 0 0.741584 0 0 0.743898 0 0 0.746212 0 0 0.748531 0 0 0.750851 0 0 0.753166 0 0 0.755479 0 0 0.757795 0 0 0.760117 0 0 0.762435 0 0 0.764749 0 0 0.767063 0 0 0.769385 0 0 0.771709 0 0 0.774026 0 0 0.776342 0 0 0.77866 0 0 0.780984 0 0 0.783306 0 0 0.785624 0 0 0.787941 0 0 0.790261 0 0 0.792579 0 0 0.794903 0 0 0.797217 0 0 0.799492 0 0 0.801729 0 0 0.803873 0 0 0.806315 0 0 0.810244 0 0 0.815042 0 0 0.820007 0 0 0.825001 0 0 0.83 0 0 0.835 0 0 0.84 0 0 0.845 0 0 0.85 0 0 0.855 0 0 0.86 0 0 0.865 0 0 0.87 0 0 0.875 0 0 0.88 0 0 0.885 0 0 0.89 0 0 0.895 0 0 0.9 0 0 0.905 0 0 0.91 0 0 0.915 0 0 0.92 0 0 0.925 0 0 0.93 0 0 0.935 0 0 0.94 0 0 0.945 0 0 0.95 0 0 0.955 0 0 0.96 0 0 0.965 0 0 0.97 0 0 0.975 0 0 0.98 0 0 0.985 0 0 0.99 0 0 0.995 0 0 1 0 0 0 0.02 0 0.005 0.02 0 0.01 0.02 0 0.015 0.02 0 0.02 0.02 0 0.025 0.02 0 0.03 0.02 0 0.035 0.02 0 0.04 0.02 0 0.045 0.02 0 0.05 0.02 0 0.055 0.02 0 0.06 0.02 0 0.065 0.02 0 0.07 0.02 0 0.075 0.02 0 0.08 0.02 0 0.085 0.02 0 0.09 0.02 0 0.095 0.02 0 0.1 0.02 0 0.105 0.02 0 0.11 0.02 0 0.115 0.02 0 0.12 0.02 0 0.125 0.02 0 0.13 0.02 0 0.135 0.02 0 0.14 0.02 0 0.145 0.02 0 0.15 0.02 0 0.155 0.02 0 0.16 0.02 0 0.165 0.02 0 0.17 0.02 0 0.175 0.02 0 0.18 0.02 0 0.185 0.02 0 0.19 0.02 0 0.195 0.02 0 0.2 0.02 0 0.205 0.02 0 0.21 0.02 0 0.215 0.02 0 0.22 0.02 0 0.225 0.02 0 0.230001 0.02 0 0.235001 0.02 0 0.240003 0.02 0 0.245007 0.02 0 0.250016 0.02 0 0.255032 0.02 0 0.260059 0.02 0 0.265103 0.02 0 0.27017 0.02 0 0.275268 0.02 0 0.280405 0.02 0 0.285589 0.02 0 0.290828 0.02 0 0.29613 0.02 0 0.301505 0.02 0 0.30696 0.02 0 0.312504 0.02 0 0.318143 0.02 0 0.323887 0.02 0 0.329744 0.02 0 0.335721 0.02 0 0.341828 0.02 0 0.348072 0.02 0 0.354464 0.02 0 0.361012 0.02 0 0.367727 0.02 0 0.374621 0.02 0 0.381704 0.02 0 0.388988 0.02 0 0.396488 0.02 0 0.404217 0.02 0 0.41219 0.02 0 0.420423 0.02 0 0.428933 0.02 0 0.437735 0.02 0 0.446847 0.02 0 0.456283 0.02 0 0.466056 0.02 0 0.476173 0.02 0 0.486634 0.02 0 0.497427 0.02 0 0.508526 0.02 0 0.519891 0.02 0 0.531467 0.02 0 0.543198 0.02 0 0.55503 0.02 0 0.566924 0.0200001 0 0.578854 0.0200002 0 0.590807 0.0200003 0 0.602783 0.0200003 0 0.614786 0.0200003 0 0.626827 0.0200003 0 0.638935 0.0199999 0 0.651202 0.0199995 0 0.664132 0.0200008 0 0.666543 0.0199995 0 0.668909 0.0200017 0 0.671278 0.0200061 0 0.673644 0.0200069 0 0.676004 0.0200088 0 0.678355 0.0200091 0 0.680704 0.020009 0 0.683043 0.0200115 0 0.685376 0.0200223 0 0.687695 0.0200351 0 0.690021 0.0200469 0 0.692314 0.0200604 0 0.694621 0.0200667 0 0.696819 0.0200595 0 0.698923 0.02005 0 0.701014 0.0200416 0 0.703229 0.0200295 0 0.705563 0.0200119 0 0.707913 0.0199997 0 0.71025 0.0199947 0 0.712575 0.0199934 0 0.714898 0.0199968 0 0.717217 0.0199964 0 0.719543 0.0199963 0 0.721869 0.0199994 0 0.724192 0.0200082 0 0.726508 0.0200106 0 0.728823 0.0200074 0 0.73114 0.0200052 0 0.733464 0.0200032 0 0.735781 0.0200066 0 0.738094 0.0200076 0 0.740409 0.0200045 0 0.742729 0.0200032 0 0.745049 0.0200028 0 0.747363 0.0200041 0 0.749676 0.0200042 0 0.751993 0.0199998 0 0.754315 0.0199978 0 0.756634 0.0199964 0 0.758947 0.0199992 0 0.761263 0.0199993 0 0.763584 0.0199932 0 0.765908 0.0199876 0 0.768226 0.0199859 0 0.770541 0.0199863 0 0.772863 0.0199827 0 0.77519 0.0199796 0 0.777514 0.019977 0 0.779832 0.0199771 0 0.782152 0.0199792 0 0.784477 0.0199778 0 0.786802 0.019971 0 0.789122 0.0199674 0 0.791447 0.0199666 0 0.793779 0.0199689 0 0.796126 0.0199716 0 0.79847 0.0199708 0 0.800766 0.0199773 0 0.803289 0.0199883 0 0.806181 0.0199973 0 0.810252 0.0199998 0 0.815043 0.02 0 0.820007 0.02 0 0.825001 0.02 0 0.83 0.02 0 0.835 0.02 0 0.84 0.02 0 0.845 0.02 0 0.85 0.02 0 0.855 0.02 0 0.86 0.02 0 0.865 0.02 0 0.87 0.02 0 0.875 0.02 0 0.88 0.02 0 0.885 0.02 0 0.89 0.02 0 0.895 0.02 0 0.9 0.02 0 0.905 0.02 0 0.91 0.02 0 0.915 0.02 0 0.92 0.02 0 0.925 0.02 0 0.93 0.02 0 0.935 0.02 0 0.94 0.02 0 0.945 0.02 0 0.95 0.02 0 0.955 0.02 0 0.96 0.02 0 0.965 0.02 0 0.97 0.02 0 0.975 0.02 0 0.98 0.02 0 0.985 0.02 0 0.99 0.02 0 0.995 0.02 0 1 0.02 0 0 0.04 0 0.005 0.04 0 0.01 0.04 0 0.015 0.04 0 0.02 0.04 0 0.025 0.04 0 0.03 0.04 0 0.035 0.04 0 0.04 0.04 0 0.045 0.04 0 0.05 0.04 0 0.055 0.04 0 0.06 0.04 0 0.065 0.04 0 0.07 0.04 0 0.075 0.04 0 0.08 0.04 0 0.085 0.04 0 0.09 0.04 0 0.095 0.04 0 0.1 0.04 0 0.105 0.04 0 0.11 0.04 0 0.115 0.04 0 0.12 0.04 0 0.125 0.04 0 0.13 0.04 0 0.135 0.04 0 0.14 0.04 0 0.145 0.04 0 0.15 0.04 0 0.155 0.04 0 0.16 0.04 0 0.165 0.04 0 0.17 0.04 0 0.175 0.04 0 0.18 0.04 0 0.185 0.04 0 0.19 0.04 0 0.195 0.04 0 0.2 0.04 0 0.205 0.04 0 0.21 0.04 0 0.215 0.04 0 0.22 0.04 0 0.225 0.04 0 0.230001 0.04 0 0.235001 0.04 0 0.240003 0.04 0 0.245007 0.04 0 0.250016 0.04 0 0.255032 0.04 0 0.260059 0.04 0 0.265103 0.04 0 0.27017 0.04 0 0.275268 0.04 0 0.280405 0.04 0 0.285589 0.04 0 0.290828 0.04 0 0.29613 0.04 0 0.301505 0.04 0 0.30696 0.04 0 0.312504 0.04 0 0.318143 0.04 0 0.323887 0.04 0 0.329744 0.04 0 0.335721 0.04 0 0.341828 0.04 0 0.348072 0.04 0 0.354464 0.04 0 0.361012 0.04 0 0.367727 0.04 0 0.374621 0.04 0 0.381704 0.04 0 0.388988 0.04 0 0.396488 0.04 0 0.404217 0.04 0 0.41219 0.04 0 0.420423 0.04 0 0.428933 0.04 0 0.437735 0.04 0 0.446847 0.04 0 0.456283 0.04 0 0.466056 0.04 0 0.476173 0.04 0 0.486634 0.04 0 0.497427 0.04 0 0.508526 0.04 0 0.519891 0.04 0 0.531467 0.04 0 0.543198 0.04 0 0.555031 0.04 0 0.566924 0.0400001 0 0.578854 0.0400002 0 0.590808 0.0400004 0 0.602784 0.0400006 0 0.614787 0.0400008 0 0.626828 0.0400012 0 0.638936 0.0400014 0 0.651202 0.0400011 0 0.664131 0.0400004 0 0.666544 0.0399976 0 0.66891 0.0399995 0 0.671279 0.0400092 0 0.673646 0.0400137 0 0.676004 0.0400146 0 0.678359 0.0400126 0 0.680708 0.0400097 0 0.683058 0.0400115 0 0.685408 0.0400176 0 0.687768 0.0400281 0 0.690117 0.0400415 0 0.692493 0.0400533 0 0.694857 0.0400466 0 0.697333 0.0400197 0 0.699904 0.0400015 0 0.702471 0.0400085 0 0.704895 0.0400189 0 0.707197 0.040013 0 0.70948 0.0400037 0 0.711778 0.0400012 0 0.714087 0.04 0 0.7164 0.0400011 0 0.718717 0.0400033 0 0.721027 0.0400001 0 0.723339 0.0399991 0 0.725656 0.0400001 0 0.727983 0.0400019 0 0.730308 0.0400035 0 0.73263 0.0400021 0 0.734945 0.0399991 0 0.737268 0.0399993 0 0.739594 0.0400007 0 0.741917 0.0399991 0 0.744235 0.0399969 0 0.746554 0.0399941 0 0.748878 0.0399928 0 0.751205 0.0399935 0 0.753527 0.0399883 0 0.755843 0.0399868 0 0.758163 0.0399855 0 0.760489 0.0399882 0 0.762812 0.039989 0 0.765128 0.0399813 0 0.767442 0.0399788 0 0.76976 0.0399783 0 0.77208 0.0399811 0 0.774392 0.0399775 0 0.776699 0.0399741 0 0.779007 0.0399772 0 0.781319 0.0399781 0 0.783631 0.0399755 0 0.785943 0.0399724 0 0.788253 0.0399706 0 0.790561 0.0399719 0 0.792861 0.0399713 0 0.795169 0.039974 0 0.797471 0.0399801 0 0.799734 0.0399939 0 0.801956 0.0400115 0 0.80405 0.0400083 0 0.806414 0.0400015 0 0.810252 0.04 0 0.815043 0.04 0 0.820007 0.04 0 0.825001 0.04 0 0.83 0.04 0 0.835 0.04 0 0.84 0.04 0 0.845 0.04 0 0.85 0.04 0 0.855 0.04 0 0.86 0.04 0 0.865 0.04 0 0.87 0.04 0 0.875 0.04 0 0.88 0.04 0 0.885 0.04 0 0.89 0.04 0 0.895 0.04 0 0.9 0.04 0 0.905 0.04 0 0.91 0.04 0 0.915 0.04 0 0.92 0.04 0 0.925 0.04 0 0.93 0.04 0 0.935 0.04 0 0.94 0.04 0 0.945 0.04 0 0.95 0.04 0 0.955 0.04 0 0.96 0.04 0 0.965 0.04 0 0.97 0.04 0 0.975 0.04 0 0.98 0.04 0 0.985 0.04 0 0.99 0.04 0 0.995 0.04 0 1 0.04 0 0 0.06 0 0.005 0.06 0 0.01 0.06 0 0.015 0.06 0 0.02 0.06 0 0.025 0.06 0 0.03 0.06 0 0.035 0.06 0 0.04 0.06 0 0.045 0.06 0 0.05 0.06 0 0.055 0.06 0 0.06 0.06 0 0.065 0.06 0 0.07 0.06 0 0.075 0.06 0 0.08 0.06 0 0.085 0.06 0 0.09 0.06 0 0.095 0.06 0 0.1 0.06 0 0.105 0.06 0 0.11 0.06 0 0.115 0.06 0 0.12 0.06 0 0.125 0.06 0 0.13 0.06 0 0.135 0.06 0 0.14 0.06 0 0.145 0.06 0 0.15 0.06 0 0.155 0.06 0 0.16 0.06 0 0.165 0.06 0 0.17 0.06 0 0.175 0.06 0 0.18 0.06 0 0.185 0.06 0 0.19 0.06 0 0.195 0.06 0 0.2 0.06 0 0.205 0.06 0 0.21 0.06 0 0.215 0.06 0 0.22 0.06 0 0.225 0.06 0 0.230001 0.06 0 0.235001 0.06 0 0.240003 0.06 0 0.245007 0.06 0 0.250016 0.06 0 0.255032 0.06 0 0.260059 0.06 0 0.265103 0.06 0 0.27017 0.06 0 0.275268 0.06 0 0.280405 0.06 0 0.285589 0.06 0 0.290828 0.06 0 0.29613 0.06 0 0.301505 0.06 0 0.30696 0.06 0 0.312504 0.06 0 0.318143 0.06 0 0.323887 0.06 0 0.329744 0.06 0 0.335721 0.06 0 0.341828 0.06 0 0.348072 0.06 0 0.354464 0.06 0 0.361012 0.06 0 0.367727 
[...]
			<CellData Scalars="Density">
				<DataArray Name="Density" type="Float32" format="ascii">
 1 1 1 1 1 1 1 1 1 1 1 1 1 1 1 1 1 1 1 1 1 1 1 1 1 1 1 1 1 1 1 1 1 1 1 1 1 1 1 1 0.999999 0.999999 0.999996 0.99999 0.999975 0.999936 0.999838 0.999615 0.999157 0.998307 0.996859 0.994586 0.991263 0.9867 0.980763 0.97339 0.96458 0.95439 0.942915 0.930272 0.916585 0.901979 0.886569 0.87046 0.853746 0.836506 0.818811 0.80072 0.782284 0.763549 0.744555 0.725336 0.705929 0.686364 0.666679 0.64691 0.627102 0.607306 0.587587 0.56803 0.548745 0.529876 0.511613 0.494206 0.477967 0.463263 0.450486 0.439975 0.431913 0.426227 0.422569 0.420397 0.419129 0.418277 0.417503 0.416568 0.415221 0.412945 0.4076 0.386703 0.259198 0.264174 0.263824 0.264039 0.264747 0.265521 0.266046 0.26652 0.266969 0.267242 0.26758 0.267849 0.268065 0.26832 0.268647 0.269572 0.270043 0.269762 0.269644 0.269593 0.269521 0.269464 0.269449 0.269453 0.269453 0.269418 0.269451 0.269501 0.26957 0.269549 0.269587 0.269617 0.269657 0.269666 0.269667 0.269674 0.269722 0.269757 0.269724 0.26975 0.269765 0.269788 0.269771 0.269773 0.269788 0.269825 0.269853 0.269847 0.269903 0.269899 0.269857 0.269854 0.270005 0.270272 0.270155 0.269418 0.268998 0.271485 0.27646 0.268257 0.234531 0.156256 0.130362 0.125893 0.125147 0.125024 0.125004 0.125001 0.125 0.125 0.125 0.125 0.125 0.125 0.125 0.125 0.125 0.125 0.125 0.125 0.125 0.125 0.125 0.125 0.125 0.125 0.125 0.125 0.125 0.125 0.125 0.125 0.125 0.125 0.125 0.125 0.125 0.125 0.125 0.125 1 1 1 1 1 1 1 1 1 1 1 1 1 1 1 1 1 1 1 1 1 1 1 1 1 1 1 1 1 1 1 1 1 1 1 1 1 1 1 1 0.999999 0.999999 0.999996 0.99999 0.999975 0.999936 0.999838 0.999615 0.999157 0.998307 0.996859 0.994586 0.991263 0.9867 0.980763 0.97339 0.96458 0.95439 0.942915 0.930272 0.916585 0.901979 0.886569 0.87046 0.853746 0.836506 0.818811 0.80072 0.782284 0.763549 0.744555 0.725336 0.705929 0.686364 0.666679 0.64691 0.627102 0.607306 0.587587 0.56803 0.548745 0.529876 0.511613 0.494206 0.477967 0.463263 0.450486 0.439975 0.431912 0.426225 0.422565 0.420392 0.419123 0.418275 0.417503 0.416569 0.415222 0.412945 0.4076 0.386707 0.259203 0.264195 0.263805 0.264025 0.264722 0.265499 0.266045 0.266536 0.266976 0.267271 0.267588 0.267885 0.26802 0.268357 0.268603 0.269536 0.270112 0.269783 0.269689 0.269601 0.269522 0.269483 0.269456 0.269494 0.26945 0.26951 0.269493 0.269557 0.26956 0.26959 0.269579 0.269645 0.269693 0.26971 0.269684 0.269787 0.269762 0.269794 0.269797 0.269803 0.269802 0.269831 0.269891 0.26984 0.269886 0.269846 0.269911 0.269975 0.269937 0.269968 0.269925 0.269719 0.269812 0.270082 0.270145 0.269303 0.268692 0.270985 0.275809 0.269998 0.23756 0.158013 0.130469 0.125898 0.125147 0.125024 0.125004 0.125001 0.125 0.125 0.125 0.125 0.125 0.125 0.125 0.125 0.125 0.125 0.125 0.125 0.125 0.125 0.125 0.125 0.125 0.125 0.125 0.125 0.125 0.125 0.125 0.125 0.125 0.125 0.125 0.125 0.125 0.125 0.125 0.125 1 1 1 1 1 1 1 1 1 1 1 1 1 1 1 1 1 1 1 1 1 1 1 1 1 1 1 1 1 1 1 1 1 1 1 1 1 1 1 1 0.999999 0.999999 0.999996 0.99999 0.999975 0.999936 0.999838 0.999615 0.999157 0.998307 0.996859 0.994586 0.991263 0.9867 0.980763 0.97339 0.96458 0.95439 0.942915 0.930272 0.916585 0.901979 0.886569 0.87046 0.853746 0.836506 0.818811 0.80072 0.782284 0.763549 0.744555 0.725336 0.705929 0.686364 0.666679 0.64691 0.627102 0.607306 0.587587 0.56803 0.548745 0.529876 0.511613 0.494206 0.477967 0.463263 0.450486 0.439975 0.431911 0.426223 0.422562 0.420386 0.419115 0.418266 0.417497 0.416566 0.415221 0.412945 0.407605 0.386709 0.259226 0.264173 0.263764 0.264034 0.264683 0.26551 0.266049 0.26652 0.266941 0.267268 0.26757 0.267833 0.268135 0.268406 0.268678 0.269537 0.270002 0.269711 0.269614 0.26961 0.269487 0.269467 0.269441 0.269418 0.269476 0.269501 0.269514 0.269489 0.269516 0.269542 0.269529 0.269591 0.269609 0.269686 0.269643 0.269739 0.269747 0.269691 0.269779 0.26974 0.26973 0.26978 0.26982 0.269804 0.269726 0.269772 0.269751 0.269775 0.269829 0.269848 0.269759 0.269604 0.269689 0.269675 0.269449 0.268674 0.26844 0.271118 0.277691 0.271428 0.233717 0.157128 0.130426 0.125896 0.125147 0.125024 0.125004 0.125001 0.125 0.125 0.125 0.125 0.125 0.125 0.125 0.125 0.125 0.125 0.125 0.125 0.125 0.125 0.125 0.125 0.125 0.125 0.125 0.125 0.125 0.125 0.125 0.125 0.125 0.125 0.125 0.125 0.125 0.125 0.125 0.125 1 1 1 1 1 1 1 1 1 1 1 1 1 1 1 1 1 1 1 1 1 1 1 1 1 1 1 1 1 1 1 1 1 1 1 1 1 1 1 1 0.999999 0.999999 0.999996 0.99999 0.999975 0.999936 0.999838 0.999615 0.999157 0.998307 0.996859 0.994586 0.991263 0.9867 0.980763 0.97339 0.96458 0.95439 0.942915 0.930272 0.916585 0.901979 0.886569 0.87046 0.853746 0.836506 0.818811 0.80072 0.782284 0.763549 0.744555 0.725336 0.705929 0.686364 0.666679 0.64691 0.627102 0.607306 0.587587 0.56803 0.548745 0.529876 0.511613 0.494206 0.477967 0.463263 0.450486 0.439975 0.431911 0.426223 0.42256 0.420382 0.419108 0.418257 0.417488 0.416557 0.415215 0.412941 0.407601 0.386719 0.259229 0.264157 0.263761 0.264043 0.264684 0.265495 0.266077 0.266478 0.266986 0.267245 0.267588 0.267869 0.268003 0.268341 0.268657 0.269635 0.270099 0.269758 0.269645 0.269615 0.269493 0.26945 0.269452 0.269422 0.269448 0.269467 0.269482 0.26949 0.269559 0.269519 0.269589 0.269587 0.269612 0.269665 0.269682 0.269665 0.269749 0.269691 0.269734 0.269733 0.26973 0.269721 0.269744 0.269785 0.269724 0.269773 0.269745 0.269731 0.269765 0.269777 0.269697 0.269618 0.269725 0.269781 0.269641 0.269441 0.268774 0.271209 0.277545 0.271194 0.234125 0.156829 0.130369 0.12589 0.125146 0.125024 0.125004 0.125001 0.125 0.125 0.125 0.125 0.125 0.125 0.125 0.125 0.125 0.125 0.125 0.125 0.125 0.125 0.125 0.125 0.125 0.125 0.125 0.125 0.125 0.125 0.125 0.125 0.125 0.125 0.125 0.125 0.125 0.125 0.125 0.125 1 1 1 1 1 1 1 1 1 1 1 1 1 1 1 1 1 1 1 1 1 1 1 1 1 1 1 1 1 1 1 1 1 1 1 1 1 1 1 1 0.999999 0.999999 0.999996 0.99999 0.999975 0.999936 0.999838 0.999615 0.999157 0.998307 0.996859 0.994586 0.991263 0.9867 0.980763 0.97339 0.96458 0.95439 0.942915 0.930272 0.916585 0.901979 0.886569 0.87046 0.853746 0.836506 0.818811 0.80072 0.782284 0.763549 0.744555 0.725336 0.705929 0.686364 0.666679 0.64691 0.627102 0.607306 0.587587 0.56803 0.548745 0.529876 0.511613 0.494206 0.477967 0.463263 0.450486 0.439975 0.431911 0.426223 0.422559 0.42038 0.419106 0.418253 0.417482 0.416549 0.415204 0.412929 0.407586 0.38668 0.259191 0.264196 0.263834 0.264012 0.264748 0.265513 0.266048 0.266529 0.266933 0.267224 0.267555 0.267835 0.268066 0.26831 0.268694 0.269666 0.270049 0.269709 0.269615 0.269581 0.269485 0.26944 0.269418 0.269444 0.269458 0.269434 0.269471 0.269514 0.269538 0.269568 0.269535 0.269621 0.269644 0.269678 0.26966 0.269699 0.26971 0.269761 0.269736 0.269729 0.269756 0.269759 0.269765 0.269739 0.269782 0.269784 0.269804 0.269804 0.269776 0.269774 0.26974 0.269719 0.269724 0.269871 0.269804 0.269492 0.268727 0.270519 0.276611 0.271362 0.236827 0.157201 0.130346 0.125883 0.125146 0.125024 0.125004 0.125001 0.125 0.125 0.125 0.125 0.125 0.125 0.125 0.125 0.125 0.125 0.125 0.125 0.125 0.125 0.125 0.125 0.125 0.125 0.125 0.125 0.125 0.125 0.125 0.125 0.125 0.125 0.125 0.125 0.125 0.125 0.125 0.125
				</DataArray>
				<DataArray Name="Energy" type="Float32" format="ascii">
 2.5 2.5 2.5 2.5 2.5 2.5 2.5 2.5 2.5 2.5 2.5 2.5 2.5 2.5 2.5 2.5 2.5 2.5 2.5 2.5 2.5 2.5 2.5 2.5 2.5 2.5 2.5 2.5 2.5 2.5 2.5 2.5 2.5 2.5 2.5 2.5 2.5 2.5 2.5 2.5 2.5 2.5 2.5 2.49999 2.49998 2.49994 2.49984 2.49962 2.49917 2.49833 2.4969 2.49466 2.49137 2.48686 2.48097 2.47363 2.46483 2.4546 2.44302 2.43017 2.41616 2.40108 2.38504 2.36811 2.35036 2.33186 2.31265 2.29279 2.27229 2.25119 2.22951 2.20728 2.1845 2.1612 2.1374 2.11312 2.0884 2.06328 2.03784 2.01217 1.98641 1.96077 1.93552 1.91106 1.88788 1.86662 1.848 1.83268 1.82113 1.81342 1.80915 1.80758 1.80792 1.80957 1.81228 1.81621 1.8221 1.83226 1.85638 1.9568 2.91946 2.86449 2.86851 2.86617 2.85865 2.85025 2.84444 2.83934 2.83459 2.83161 2.82802 2.82511 2.82295 2.8202 2.81738 2.80778 2.80253 2.80566 2.80682 2.80745 2.80833 2.8087 2.80879 2.80869 2.80876 2.80869 2.80852 2.80816 2.80771 2.8078 2.80767 2.80729 2.80685 2.80675 2.80684 2.80655 2.80622 2.80597 2.80619 2.80621 2.80598 2.80556 2.80572 2.80592 2.80585 2.8057 2.80555 2.8059 2.80617 2.80606 2.80559 2.80558 2.80644 2.80748 2.80701 2.80379 2.80227 2.81228 2.83157 2.7985 2.63841 2.19488 2.03058 2.00495 2.00081 2.00013 2.00002 2 2 2 2 2 2 2 2 2 2 2 2 2 2 2 2 2 2 2 2 2 2 2 2 2 2 2 2 2 2 2 2 2 2.5 2.5 2.5 2.5 2.5 2.5 2.5 2.5 2.5 2.5 2.5 2.5 2.5 2.5 2.5 2.5 2.5 2.5 2.5 2.5 2.5 2.5 2.5 2.5 2.5 2.5 2.5 2.5 2.5 2.5 2.5 2.5 2.5 2.5 2.5 2.5 2.5 2.5 2.5 2.5 2.5 2.5 2.5 2.49999 2.49998 2.49994 2.49984 2.49962 2.49917 2.49833 2.4969 2.49466 2.49137 2.48686 2.48097 2.47363 2.46483 2.4546 2.44302 2.43017 2.41616 2.40108 2.38504 2.36811 2.35036 2.33186 2.31265 2.29279 2.27229 2.25119 2.22951 2.20728 2.1845 2.1612 2.1374 2.11312 2.0884 2.06328 2.03784 2.01217 1.98641 1.96077 1.93552 1.91106 1.88788 1.86662 1.848 1.83268 1.82113 1.81342 1.80914 1.80757 1.80791 1.80957 1.81228 1.81621 1.82211 1.83226 1.85637 1.95681 2.91949 2.86458 2.86843 2.86611 2.85855 2.85016 2.84444 2.83941 2.83462 2.83172 2.82805 2.82525 2.82281 2.82049 2.81753 2.80771 2.80215 2.80522 2.80641 2.80687 2.80786 2.80834 2.80837 2.80848 2.80829 2.8086 2.80818 2.80784 2.80722 2.80744 2.80709 2.80679 2.80644 2.80627 2.80617 2.80621 2.80557 2.80534 2.80562 2.80547 2.80504 2.80482 2.80505 2.805 2.80494 2.80438 2.80439 2.80491 2.8047 2.80452 2.80404 2.80302 2.80363 2.8045 2.80448 2.80084 2.79834 2.80745 2.8258 2.80204 2.65244 2.2065 2.03121 2.00498 2.00081 2.00013 2.00002 2 2 2 2 2 2 2 2 2 2 2 2 2 2 2 2 2 2 2 2 2 2 2 2 2 2 2 2 2 2 2 2 2 2.5 2.5 2.5 2.5 2.5 2.5 2.5 2.5 2.5 2.5 2.5 2.5 2.5 2.5 2.5 2.5 2.5 2.5 2.5 2.5 2.5 2.5 2.5 2.5 2.5 2.5 2.5 2.5 2.5 2.5 2.5 2.5 2.5 2.5 2.5 2.5 2.5 2.5 2.5 2.5 2.5 2.5 2.5 2.49999 2.49998 2.49994 2.49984 2.49962 2.49917 2.49833 2.4969 2.49466 2.49137 2.48686 2.48097 2.47363 2.46483 2.4546 2.44302 2.43017 2.41616 2.40108 2.38504 2.36811 2.35036 2.33186 2.31265 2.29279 2.27229 2.25119 2.22951 2.20728 2.1845 2.1612 2.1374 2.11312 2.0884 2.06328 2.03784 2.01217 1.98641 1.96077 1.93552 1.91106 1.88788 1.86662 1.848 1.83268 1.82113 1.81341 1.80913 1.80756 1.8079 1.80955 1.81227 1.81621 1.8221 1.83226 1.85638 1.95681 2.91959 2.86449 2.86826 2.86614 2.85839 2.85021 2.84445 2.83934 2.83448 2.83171 2.82797 2.82504 2.82321 2.82052 2.81702 2.80719 2.80296 2.80603 2.80701 2.8073 2.80801 2.80856 2.80867 2.80869 2.80868 2.80896 2.80866 2.80809 2.80769 2.80757 2.80735 2.80705 2.80686 2.80668 2.80666 2.80662 2.80641 2.80592 2.80614 2.80603 2.80574 2.80589 2.80574 2.80583 2.80533 2.80562 2.80544 2.80515 2.80561 2.8058 2.80551 2.80466 2.80461 2.80485 2.80426 2.8012 2.80009 2.81038 2.83583 2.81082 2.63995 2.20114 2.03096 2.00496 2.00081 2.00013 2.00002 2 2 2 2 2 2 2 2 2 2 2 2 2 2 2 2 2 2 2 2 2 2 2 2 2 2 2 2 2 2 2 2 2 2.5 2.5 2.5 2.5 2.5 2.5 2.5 2.5 2.5 2.5 2.5 2.5 2.5 2.5 2.5 2.5 2.5 2.5 2.5 2.5 2.5 2.5 2.5 2.5 2.5 2.5 2.5 2.5 2.5 2.5 2.5 2.5 2.5 2.5 2.5 2.5 2.5 2.5 2.5 2.5 2.5 2.5 2.5 2.49999 2.49998 2.49994 2.49984 2.49962 2.49917 2.49833 2.4969 2.49466 2.49137 2.48686 2.48097 2.47363 2.46483 2.4546 2.44302 2.43017 2.41616 2.40108 2.38504 2.36811 2.35036 2.33186 2.31265 2.29279 2.27229 2.25119 2.22951 2.20728 2.1845 2.1612 2.1374 2.11312 2.0884 2.06328 2.03784 2.01217 1.98641 1.96077 1.93552 1.91106 1.88788 1.86662 1.848 1.83268 1.82113 1.81341 1.80913 1.80755 1.80789 1.80954 1.81225 1.81619 1.8221 1.83225 1.85638 1.95683 2.9196 2.86442 2.86825 2.86618 2.85839 2.85014 2.84457 2.83917 2.83466 2.83162 2.82805 2.82518 2.82273 2.82042 2.81706 2.80689 2.8018 2.80523 2.80652 2.80715 2.80813 2.80863 2.80881 2.80873 2.80861 2.80879 2.80852 2.80807 2.8078 2.80743 2.80746 2.80693 2.80675 2.80644 2.80664 2.80618 2.80624 2.8058 2.80583 2.80578 2.80552 2.80548 2.80527 2.80547 2.80506 2.80535 2.80512 2.80479 2.80494 2.80516 2.8049 2.80436 2.8044 2.80482 2.80464 2.80374 2.801 2.81034 2.83482 2.80905 2.64096 2.19912 2.03062 2.00493 2.00081 2.00013 2.00002 2 2 2 2 2 2 2 2 2 2 2 2 2 2 2 2 2 2 2 2 2 2 2 2 2 2 2 2 2 2 2 2 2 2.5 2.5 2.5 2.5 2.5 2.5 2.5 2.5 2.5 2.5 2.5 2.5 2.5 2.5 2.5 2.5 2.5 2.5 2.5 2.5 2.5 2.5 2.5 2.5 2.5 2.5 2.5 2.5 2.5 2.5 2.5 2.5 2.5 2.5 2.5 2.5 2.5 2.5 2.5 2.5 2.5 2.5 2.5 2.49999 2.49998 2.49994 2.49984 2.49962 2.49917 2.49833 2.4969 2.49466 2.49137 2.48686 2.48097 2.47363 2.46483 2.4546 2.44302 2.43017 2.41616 2.40108 2.38504 2.36811 2.35036 2.33186 2.31265 2.29279 2.27229 2.25119 2.22951 2.20728 2.1845 2.1612 2.1374 2.11312 2.0884 2.06328 2.03784 2.01217 1.98641 1.96077 1.93552 1.91106 1.88788 1.86662 1.848 1.83268 1.82113 1.81341 1.80913 1.80755 1.80788 1.80953 1.81225 1.81618 1.82208 1.83223 1.85635 1.95676 2.91944 2.86459 2.86855 2.86605 2.85865 2.85022 2.84445 2.83938 2.83444 2.83153 2.82791 2.82505 2.82294 2.82012 2.81637 2.80634 2.80252 2.80597 2.80693 2.80715 2.80808 2.80857 2.80869 2.80881 2.80865 2.80871 2.80842 2.80803 2.80755 2.80756 2.80722 2.80692 2.80664 2.80637 2.80644 2.80616 2.80583 2.80573 2.8057 2.80563 2.80534 2.80523 2.80494 2.80516 2.80499 2.80492 2.80479 2.80465 2.8047 2.80452 2.80435 2.80396 2.80396 2.80456 2.80437 2.80298 2.79959 2.80651 2.83042 2.80857 2.6512 2.20154 2.03049 2.00489 2.0008 2.00013 2.00002 2 2 2 2 2 2 2 2 2 2 2 2 2 2 2 2 2 2 2 2 2 2 2 2 2 2 2 2 2 2 2 2 2
				</DataArray>
				<DataArray Name="F1" type="Float32" format="ascii">
 1 1 1 1 1 1 1 1 1 1 1 1 1 1 1 1 1 1 1 1 1 1 1 1 1 1 1 1 1 1 1 1 1 1 1 1 1 1 1 1 1 1 1 1 1 1 1 1 1 1 1 1 1 1 1 1 1 1 1 1 1 1 1 1 1 1 1 1 1 1 1 1 1 1 1 1 1 1 1 1 1 1 1 1 1 1 1 1 1 1 1 1 1 1 1 1 1 1 1 1 0 0 0 0 0 0 0 0 0 0 0 0 0 0 0 0 0 0 0 0 0 0 0 0 0 0 0 0 0 0 0 0 0 0 0 0 0 0 0 0 0 0 0 0 0 0 0 0 0 0 0 0 0 0 0 0 0 0 0 0 0 0 0 0 0 0 0 0 0 0 0 0 0 0 0 0 0 0 0 0 0 0 0 0 0 0 0 0 0 0 0 0 0 0 0 0 0 0 0 0 1 1 1 1 1 1 1 1 1 1 1 1 1 1 1 1 1 1 1 1 1 1 1 1 1 1 1 1 1 1 1 1 1 1 1 1 1 1 1 1 1 1 1 1 1 1 1 1 1 1 1 1 1 1 1 1 1 1 1 1 1 1 1 1 1 1 1 1 1 1 1 1 1 1 1 1 1 1 1 1 1 1 1 1 1 1 1 1 1 1 1 1 1 1 1 1 1 1 1 1 0 0 0 0 0 0 0 0 0 0 0 0 0 0 0 0 0 0 0 0 0 0 0 0 0 0 0 0 0 0 0 0 0 0 0 0 0 0 0 0 0 0 0 0 0 0 0 0 0 0 0 0 0 0 0 0 0 0 0 0 0 0 0 0 0 0 0 0 0 0 0 0 0 0 0 0 0 0 0 0 0 0 0 0 0 0 0 0 0 0 0 0 0 0 0 0 0 0 0 0 1 1 1 1 1 1 1 1 1 1 1 1 1 1 1 1 1 1 1 1 1 1 1 1 1 1 1 1 1 1 1 1 1 1 1 1 1 1 1 1 1 1 1 1 1 1 1 1 1 1 1 1 1 1 1 1 1 1 1 1 1 1 1 1 1 1 1 1 1 1 1 1 1 1 1 1 1 1 1 1 1 1 1 1 1 1 1 1 1 1 1 1 1 1 1 1 1 1 1 1 0 0 0 0 0 0 0 0 0 0 0 0 0 0 0 0 0 0 0 0 0 0 0 0 0 0 0 0 0 0 0 0 0 0 0 0 0 0 0 0 0 0 0 0 0 0 0 0 0 0 0 0 0 0 0 0 0 0 0 0 0 0 0 0 0 0 0 0 0 0 0 0 0 0 0 0 0 0 0 0 0 0 0 0 0 0 0 0 0 0 0 0 0 0 0 0 0 0 0 0 1 1 1 1 1 1 1 1 1 1 1 1 1 1 1 1 1 1 1 1 1 1 1 1 1 1 1 1 1 1 1 1 1 1 1 1 1 1 1 1 1 1 1 1 1 1 1 1 1 1 1 1 1 1 1 1 1 1 1 1 1 1 1 1 1 1 1 1 1 1 1 1 1 1 1 1 1 1 1 1 1 1 1 1 1 1 1 1 1 1 1 1 1 1 1 1 1 1 1 1 0 0 0 0 0 0 0 0 0 0 0 0 0 0 0 0 0 0 0 0 0 0 0 0 0 0 0 0 0 0 0 0 0 0 0 0 0 0 0 0 0 0 0 0 0 0 0 0 0 0 0 0 0 0 0 0 0 0 0 0 0 0 0 0 0 0 0 0 0 0 0 0 0 0 0 0 0 0 0 0 0 0 0 0 0 0 0 0 0 0 0 0 0 0 0 0 0 0 0 0 1 1 1 1 1 1 1 1 1 1 1 1 1 1 1 1 1 1 1 1 1 1 1 1 1 1 1 1 1 1 1 1 1 1 1 1 1 1 1 1 1 1 1 1 1 1 1 1 1 1 1 1 1 1 1 1 1 1 1 1 1 1 1 1 1 1 1 1 1 1 1 1 1 1 1 1 1 1 1 1 1 1 1 1 1 1 1 1 1 1 1 1 1 1 1 1 1 1 1 1 0 0 0 0 0 0 0 0 0 0 0 0 0 0 0 0 0 0 0 0 0 0 0 0 0 0 0 0 0 0 0 0 0 0 0 0 0 0 0 0 0 0 0 0 0 0 0 0 0 0 0 0 0 0 0 0 0 0 0 0 0 0 0 0 0 0 0 0 0 0 0 0 0 0 0 0 0 0 0 0 0 0 0 0 0 0 0 0 0 0 0 0 0 0 0 0 0 0 0 0
				</DataArray>
				<DataArray Name="F2" type="Float32" format="ascii">
 0 0 0 0 0 0 0 0 0 0 0 0 0 0 0 0 0 0 0 0 0 0 0 0 0 0 0 0 0 0 0 0 0 0 0 0 0 0 0 0 0 0 0 0 0 0 0 0 0 0 0 0 0 0 0 0 0 0 0 0 0 0 0 0 0 0 0 0 0 0 0 0 0 0 0 0 0 0 0 0 0 0 0 0 0 0 0 0 0 0 0 0 0 0 0 0 0 0 0 0 1 1 1 1 1 1 1 1 1 1 1 1 1 1 1 1 1 1 1 1 1 1 1 1 1 1 1 1 1 1 1 1 1 1 1 1 1 1 1 1 1 1 1 1 1 1 1 1 1 1 1 1 1 1 1 1 1 1 1 1 1 1 1 1 1 1 1 1 1 1 1 1 1 1 1 1 1 1 1 1 1 1 1 1 1 1 1 1 1 1 1 1 1 1 1 1 1 1 1 1 0 0 0 0 0 0 0 0 0 0 0 0 0 0 0 0 0 0 0 0 0 0 0 0 0 0 0 0 0 0 0 0 0 0 0 0 0 0 0 0 0 0 0 0 0 0 0 0 0 0 0 0 0 0 0 0 0 0 0 0 0 0 0 0 0 0 0 0 0 0 0 0 0 0 0 0 0 0 0 0 0 0 0 0 0 0 0 0 0 0 0 0 0 0 0 0 0 0 0 0 1 1 1 1 1 1 1 1 1 1 1 1 1 1 1 1 1 1 1 1 1 1 1 1 1 1 1 1 1 1 1 1 1 1 1 1 1 1 1 1 1 1 1 1 1 1 1 1 1 1 1 1 1 1 1 1 1 1 1 1 1 1 1 1 1 1 1 1 1 1 1 1 1 1 1 1 1 1 1 1 1 1 1 1 1 1 1 1 1 1 1 1 1 1 1 1 1 1 1 1 0 0 0 0 0 0 0 0 0 0 0 0 0 0 0 0 0 0 0 0 0 0 0 0 0 0 0 0 0 0 0 0 0 0 0 0 0 0 0 0 0 0 0 0 0 0 0 0 0 0 0 0 0 0 0 0 0 0 0 0 0 0 0 0 0 0 0 0 0 0 0 0 0 0 0 0 0 0 0 0 0 0 0 0 0 0 0 0 0 0 0 0 0 0 0 0 0 0 0 0 1 1 1 1 1 1 1 1 1 1 1 1 1 1 1 1 1 1 1 1 1 1 1 1 1 1 1 1 1 1 1 1 1 1 1 1 1 1 1 1 1 1 1 1 1 1 1 1 1 1 1 1 1 1 1 1 1 1 1 1 1 1 1 1 1 1 1 1 1 1 1 1 1 1 1 1 1 1 1 1 1 1 1 1 1 1 1 1 1 1 1 1 1 1 1 1 1 1 1 1 0 0 0 0 0 0 0 0 0 0 0 0 0 0 0 0 0 0 0 0 0 0 0 0 0 0 0 0 0 0 0 0 0 0 0 0 0 0 0 0 0 0 0 0 0 0 0 0 0 0 0 0 0 0 0 0 0 0 0 0 0 0 0 0 0 0 0 0 0 0 0 0 0 0 0 0 0 0 0 0 0 0 0 0 0 0 0 0 0 0 0 0 0 0 0 0 0 0 0 0 1 1 1 1 1 1 1 1 1 1 1 1 1 1 1 1 1 1 1 1 1 1 1 1 1 1 1 1 1 1 1 1 1 1 1 1 1 1 1 1 1 1 1 1 1 1 1 1 1 1 1 1 1 1 1 1 1 1 1 1 1 1 1 1 1 1 1 1 1 1 1 1 1 1 1 1 1 1 1 1 1 1 1 1 1 1 1 1 1 1 1 1 1 1 1 1 1 1 1 1 0 0 0 0 0 0 0 0 0 0 0 0 0 0 0 0 0 0 0 0 0 0 0 0 0 0 0 0 0 0 0 0 0 0 0 0 0 0 0 0 0 0 0 0 0 0 0 0 0 0 0 0 0 0 0 0 0 0 0 0 0 0 0 0 0 0 0 0 0 0 0 0 0 0 0 0 0 0 0 0 0 0 0 0 0 0 0 0 0 0 0 0 0 0 0 0 0 0 0 0 1 1 1 1 1 1 1 1 1 1 1 1 1 1 1 1 1 1 1 1 1 1 1 1 1 1 1 1 1 1 1 1 1 1 1 1 1 1 1 1 1 1 1 1 1 1 1 1 1 1 1 1 1 1 1 1 1 1 1 1 1 1 1 1 1 1 1 1 1 1 1 1 1 1 1 1 1 1 1 1 1 1 1 1 1 1 1 1 1 1 1 1 1 1 1 1 1 1 1 1
				</DataArray>
				<DataArray Name="F3" type="Float32" format="ascii">
 0 0 0 0 0 0 0 0 0 0 0 0 0 0 0 0 0 0 0 0 0 0 0 0 0 0 0 0 0 0 0 0 0 0 0 0 0 0 0 0 0 0 0 0 0 0 0 0 0 0 0 0 0 0 0 0 0 0 0 0 0 0 0 0 0 0 0 0 0 0 0 0 0 0 0 0 0 0 0 0 0 0 0 0 0 0 0 0 0 0 0 0 0 0 0 0 0 0 0 0 0 0 0 0 0 0 0 0 0 0 0 0 0 0 0 0 0 0 0 0 0 0 0 0 0 0 0 0 0 0 0 0 0 0 0 0 0 0 0 0 0 0 0 0 0 0 0 0 0 0 0 0 0 0 0 0 0 0 0 0 0 0 0 0 0 0 0 0 0 0 0 0 0 0 0 0 0 0 0 0 0 0 0 0 0 0 0 0 0 0 0 0 0 0 0 0 0 0 0 0 0 0 0 0 0 0 0 0 0 0 0 0 0 0 0 0 0 0 0 0 0 0 0 0 0 0 0 0 0 0 0 0 0 0 0 0 0 0 0 0 0 0 0 0 0 0 0 0 0 0 0 0 0 0 0 0 0 0 0 0 0 0 0 0 0 0 0 0 0 0 0 0 0 0 0 0 0 0 0 0 0 0 0 0 0 0 0 0 0 0 0 0 0 0 0 0 0 0 0 0 0 0 0 0 0 0 0 0 0 0 0 0 0 0 0 0 0 0 0 0 0 0 0 0 0 0 0 0 0 0 0 0 0 0 0 0 0 0 0 0 0 0 0 0 0 0 0 0 0 0 0 0 0 0 0 0 0 0 0 0 0 0 0 0 0 0 0 0 0 0 0 0 0 0 0 0 0 0 0 0 0 0 0 0 0 0 0 0 0 0 0 0 0 0 0 0 0 0 0 0 0 0 0 0 0 0 0 0 0 0 0 0 0 0 0 0 0 0 0 0 0 0 0 0 0 0 0 0 0 0 0 0 0 0 0 0 0 0 0 0 0 0 0 0 0 0 0 0 0 0 0 0 0 0 0 0 0 0 0 0 0 0 0 0 0 0 0 0 0 0 0 0 0 0 0 0 0 0 0 0 0 0 0 0 0 0 0 0 0 0 0 0 0 0 0 0 0 0 0 0 0 0 0 0 0 0 0 0 0 0 0 0 0 0 0 0 0 0 0 0 0 0 0 0 0 0 0 0 0 0 0 0 0 0 0 0 0 0 0 0 0 0 0 0 0 0 0 0 0 0 0 0 0 0 0 0 0 0 0 0 0 0 0 0 0 0 0 0 0 0 0 0 0 0 0 0 0 0 0 0 0 0 0 0 0 0 0 0 0 0 0 0 0 0 0 0 0 0 0 0 0 0 0 0 0 0 0 0 0 0 0 0 0 0 0 0 0 0 0 0 0 0 0 0 0 0 0 0 0 0 0 0 0 0 0 0 0 0 0 0 0 0 0 0 0 0 0 0 0 0 0 0 0 0 0 0 0 0 0 0 0 0 0 0 0 0 0 0 0 0 0 0 0 0 0 0 0 0 0 0 0 0 0 0 0 0 0 0 0 0 0 0 0 0 0 0 0 0 0 0 0 0 0 0 0 0 0 0 0 0 0 0 0 0 0 0 0 0 0 0 0 0 0 0 0 0 0 0 0 0 0 0 0 0 0 0 0 0 0 0 0 0 0 0 0 0 0 0 0 0 0 0 0 0 0 0 0 0 0 0 0 0 0 0 0 0 0 0 0 0 0 0 0 0 0 0 0 0 0 0 0 0 0 0 0 0 0 0 0 0 0 0 0 0 0 0 0 0 0 0 0 0 0 0 0 0 0 0 0 0 0 0 0 0 0 0 0 0 0 0 0 0 0 0 0 0 0 0 0 0 0 0 0 0 0 0 0 0 0 0 0 0 0 0 0 0 0 0 0 0 0 0 0 0 0 0 0 0 0 0 0 0 0 0 0 0 0 0 0 0 0 0 0 0 0 0 0 0 0 0 0 0 0 0 0 0 0 0 0 0 0 0 0 0 0 0 0 0 0 0 0 0 0 0 0 0 0 0 0 0 0 0 0 0 0 0 0 0 0 0 0 0 0 0 0 0 0 0 0 0 0 0 0 0 0 0 0 0 0 0 0 0 0 0 0 0 0 0 0 0 0 0 0 0 0 0 0 0 0 0 0 0 0 0 0 0 0 0 0 0 0 0 0 0 0 0 0 0 0 0 0 0 0 0 0 0 0 0 0 0 0 0 0 0 0 0 0 0 0 0
				</DataArray>
				<DataArray Name="Pressure" type="Float32" format="ascii">