<?xml version="1.0"?>
<VTKFile type="PolyData">
	<PolyData>
		<Piece NumberOfPoints="1206" NumberOfPolys="1000">
			<Points>
				<DataArray type="Float32" NumberOfComponents="3" format="ascii">
 0 0 0 0.005 0 0 0.01 0 0 0.015 0 0 0.02 0 0 0.025 0 0 0.03 0 0 0.035 0 0 0.04 0 0 0.045 0 0 0.05 0 0 0.055 0 0 0.06 0 0 0.065 0 0 0.07 0 0 0.075 0 0 0.08 0 0 0.085 0 0 0.09 0 0 0.095 0 0 0.1 0 0 0.105 0 0 0.11 0 0 0.115 0 0 0.12 0 0 0.125 0 0 0.13 0 0 0.135 0 0 0.14 0 0 0.145 0 0 0.15 0 0 0.155 0 0 0.16 0 0 0.165 0 0 0.17 0 0 0.175 0 0 0.18 0 0 0.185 0 0 0.19 0 0 0.195 0 0 0.2 0 0 0.205 0 0 0.21 0 0 0.215 0 0 0.22 0 0 0.225 0 0 0.23 0 0 0.235 0 0 0.24 0 0 0.245 0 0 0.25 0 0 0.255 0 0 0.26 0 0 0.265 0 0 0.27 0 0 0.275 0 0 0.28 0 0 0.285 0 0 0.29 0 0 0.295 0 0 0.3 0 0 0.305 0 0 0.31 0 0 0.315 0 0 0.32 0 0 0.325 0 0 0.33 0 0 0.335 0 0 0.34 0 0 0.345001 0 0 0.350002 0 0 0.355006 0 0 0.360017 0 0 0.365041 0 0 0.370091 0 0 0.375181 0 0 0.380331 0 0 0.385563 0 0 0.3909 0 0 0.396365 0 0 0.401983 0 0 0.40778 0 0 0.413782 0 0 0.420017 0 0 0.426515 0 0 0.43331 0 0 0.440437 0 0 0.447937 0 0 0.455855 0 0 0.464237 0 0 0.473131 0 0 0.48258 0 0 0.492609 0 0 0.503214 0 0 0.514339 0 0 0.525879 0 0 0.537701 0 0 0.549689 0 0 0.561791 0 0 0.574061 0 0 0.586992 0 0 0.589403 0 0 0.591769 0 0 0.594137 0 0 0.596504 0 0 0.598864 0 0 0.601218 0 0 0.603566 0 0 0.605913 0 0 0.608257 0 0 0.610605 0 0 0.612935 0 0 0.61529 0 0 0.617628 0 0 0.62007 0 0 0.622603 0 0 0.625137 0 0 0.627543 0 0 0.629838 0 0 0.632124 0 0 0.634426 0 0 0.63674 0 0 0.639058 0 0 0.641377 0 0 0.643692 0 0 0.646003 0 0 0.648315 0 0 0.650631 0 0 0.652954 0 0 0.655235 0 0 0.65748 0 0 0.659617 0 0 0.661898 0 0 0.665358 0 0 0.670061 0 0 0.67501 0 0 0.680002 0 0 0.685 0 0 0.69 0 0 0.695 0 0 0.7 0 0 0.705 0 0 0.71 0 0 0.715 0 0 0.72 0 0 0.725 0 0 0.73 0 0 0.735 0 0 0.74 0 0 0.745 0 0 0.75 0 0 0.755 0 0 0.76 0 0 0.765 0 0 0.77 0 0 0.775 0 0 0.78 0 0 0.785 0 0 0.79 0 0 0.795 0 0 0.8 0 0 0.805 0 0 0.81 0 0 0.815 0 0 0.82 0 0 0.825 0 0 0.83 0 0 0.835 0 0 0.84 0 0 0.845 0 0 0.85 0 0 0.855 0 0 0.86 0 0 0.865 0 0 0.87 0 0 0.875 0 0 0.88 0 0 0.885 0 0 0.89 0 0 0.895 0 0 0.9 0 0 0.905 0 0 0.91 0 0 0.915 0 0 0.92 0 0 0.925 0 0 0.93 0 0 0.935 0 0 0.94 0 0 0.945 0 0 0.95 0 0 0.955 0 0 0.96 0 0 0.965 0 0 0.97 0 0 0.975 0 0 0.98 0 0 0.985 0 0 0.99 0 0 0.995 0 0 1 0 0 0 0.02 0 0.005 0.02 0 0.01 0.02 0 0.015 0.02 0 0.02 0.02 0 0.025 0.02 0 0.03 0.02 0 0.035 0.02 0 0.04 0.02 0 0.045 0.02 0 0.05 0.02 0 0.055 0.02 0 0.06 0.02 0 0.065 0.02 0 0.07 0.02 0 0.075 0.02 0 0.08 0.02 0 0.085 0.02 0 0.09 0.02 0 0.095 0.02 0 0.1 0.02 0 0.105 0.02 0 0.11 0.02 0 0.115 0.02 0 0.12 0.02 0 0.125 0.02 0 0.13 0.02 0 0.135 0.02 0 0.14 0.02 0 0.145 0.02 0 0.15 0.02 0 0.155 0.02 0 0.16 0.02 0 0.165 0.02 0 0.17 0.02 0 0.175 0.02 0 0.18 0.02 0 0.185 0.02 0 0.19 0.02 0 0.195 0.02 0 0.2 0.02 0 0.205 0.02 0 0.21 0.02 0 0.215 0.02 0 0.22 0.02 0 0.225 0.02 0 0.23 0.02 0 0.235 0.02 0 0.24 0.02 0 0.245 0.02 0 0.25 0.02 0 0.255 0.02 0 0.26 0.02 0 0.265 0.02 0 0.27 0.02 0 0.275 0.02 0 0.28 0.02 0 0.285 0.02 0 0.29 0.02 0 0.295 0.02 0 0.3 0.02 0 0.305 0.02 0 0.31 0.02 0 0.315 0.02 0 0.32 0.02 0 0.325 0.02 0 0.33 0.02 0 0.335 0.02 0 0.34 0.02 0 0.345001 0.02 0 0.350002 0.02 0 0.355006 0.02 0 0.360017 0.02 0 0.365041 0.02 0 0.370091 0.02 0 0.375181 0.02 0 0.380331 0.02 0 0.385563 0.02 0 0.3909 0.02 0 0.396365 0.02 0 0.401983 0.02 0 0.40778 0.02 0 0.413782 0.02 0 0.420017 0.02 0 0.426515 0.02 0 0.43331 0.02 0 0.440437 0.02 0 0.447937 0.02 0 0.455855 0.02 0 0.464237 0.02 0 0.473131 0.02 0 0.48258 0.02 0 0.492609 0.02 0 0.503214 0.02 0 0.514339 0.02 0 0.525879 0.02 0 0.537701 0.02 0 0.549689 0.02 0 0.561791 0.02 0 0.574061 0.0199999 0 0.586992 0.0199994 0 0.589404 0.0199991 0 0.59177 0.0199994 0 0.59414 0.0200005 0 0.596507 0.0200016 0 0.598869 0.0200031 0 0.601223 0.0200036 0 0.603572 0.0200032 0 0.605915 0.0200042 0 0.608252 0.0200081 0 0.610577 0.0200102 0 0.612914 0.0200132 0 0.615219 0.0200167 0 0.617536 0.0200184 0 0.619745 0.020013 0 0.62186 0.0200087 0 0.62396 0.0200048 0 0.626182 0.0200002 0 0.628521 0.0199963 0 0.630873 0.0199952 0 0.633209 0.019994 0 0.635535 0.0199927 0 0.637857 0.0199928 0 0.640178 0.0199916 0 0.642501 0.0199914 0 0.644825 0.0199916 0 0.647147 0.0199924 0 0.649467 0.0199915 0 0.651796 0.0199907 0 0.654141 0.0199926 0 0.656431 0.0199952 0 0.658831 0.0199975 0 0.661576 0.0199993 0 0.665361 0.0199999 0 0.670061 0.02 0 0.67501 0.02 0 0.680002 0.02 0 0.685 0.02 0 0.69 0.02 0 0.695 0.02 0 0.7 0.02 0 0.705 0.02 0 0.71 0.02 0 0.715 0.02 0 0.72 0.02 0 0.725 0.02 0 0.73 0.02 0 0.735 0.02 0 0.74 0.02 0 0.745 0.02 0 0.75 0.02 0 0.755 0.02 0 0.76 0.02 0 0.765 0.02 0 0.77 0.02 0 0.775 0.02 0 0.78 0.02 0 0.785 0.02 0 0.79 0.02 0 0.795 0.02 0 0.8 0.02 0 0.805 0.02 0 0.81 0.02 0 0.815 0.02 0 0.82 0.02 0 0.825 0.02 0 0.83 0.02 0 0.835 0.02 0 0.84 0.02 0 0.845 0.02 0 0.85 0.02 0 0.855 0.02 0 0.86 0.02 0 0.865 0.02 0 0.87 0.02 0 0.875 0.02 0 0.88 0.02 0 0.885 0.02 0 0.89 0.02 0 0.895 0.02 0 0.9 0.02 0 0.905 0.02 0 0.91 0.02 0 0.915 0.02 0 0.92 0.02 0 0.925 0.02 0 0.93 0.02 0 0.935 0.02 0 0.94 0.02 0 0.945 0.02 0 0.95 0.02 0 0.955 0.02 0 0.96 0.02 0 0.965 0.02 0 0.97 0.02 0 0.975 0.02 0 0.98 0.02 0 0.985 0.02 0 0.99 0.02 0 0.995 0.02 0 1 0.02 0 0 0.04 0 0.005 0.04 0 0.01 0.04 0 0.015 0.04 0 0.02 0.04 0 0.025 0.04 0 0.03 0.04 0 0.035 0.04 0 0.04 0.04 0 0.045 0.04 0 0.05 0.04 0 0.055 0.04 0 0.06 0.04 0 0.065 0.04 0 0.07 0.04 0 0.075 0.04 0 0.08 0.04 0 0.085 0.04 0 0.09 0.04 0 0.095 0.04 0 0.1 0.04 0 0.105 0.04 0 0.11 0.04 0 0.115 0.04 0 0.12 0.04 0 0.125 0.04 0 0.13 0.04 0 0.135 0.04 0 0.14 0.04 0 0.145 0.04 0 0.15 0.04 0 0.155 0.04 0 0.16 0.04 0 0.165 0.04 0 0.17 0.04 0 0.175 0.04 0 0.18 0.04 0 0.185 0.04 0 0.19 0.04 0 0.195 0.04 0 0.2 0.04 0 0.205 0.04 0 0.21 0.04 0 0.215 0.04 0 0.22 0.04 0 0.225 0.04 0 0.23 0.04 0 0.235 0.04 0 0.24 0.04 0 0.245 0.04 0 0.25 0.04 0 0.255 0.04 0 0.26 0.04 0 0.265 0.04 0 0.27 0.04 0 0.275 0.04 0 0.28 0.04 0 0.285 0.04 0 0.29 0.04 0 0.295 0.04 0 0.3 0.04 0 0.305 0.04 0 0.31 0.04 0 0.315 0.04 0 0.32 0.04 0 0.325 0.04 0 0.33 0.04 0 0.335 0.04 0 0.34 0.04 0 0.345001 0.04 0 0.350002 0.04 0 0.355006 0.04 0 0.360017 0.04 0 0.365041 0.04 0 0.370091 0.04 0 0.375181 0.04 0 0.380331 0.04 0 0.385563 0.04 0 0.3909 0.04 0 0.396365 0.04 0 0.401983 0.04 0 0.40778 0.04 0 0.413782 0.04 0 0.420017 0.04 0 0.426515 0.04 0 0.43331 0.04 0 0.440437 0.04 0 0.447937 0.04 0 0.455855 0.04 0 0.464237 0.04 0 0.473131 0.04 0 0.48258 0.04 0 0.492609 0.04 0 0.503214 0.04 0 0.514339 0.04 0 0.525879 0.04 0 0.537701 0.04 0 0.54969 0.04 0 0.561791 0.04 0 0.574061 0.0400002 0 0.586989 0.0400011 0 0.589399 0.0400017 0 0.591763 0.040002 0 0.594131 0.0400012 0 0.596499 0.0400005 0 0.59886 0.0400004 0 0.601217 0.0400001 0 0.603568 0.0399994 0 0.605919 0.0400012 0 0.608268 0.0400026 0 0.610624 0.0400039 0 0.612964 0.0400078 0 0.615327 0.0400133 0 0.617677 0.0400111 0 0.620135 0.0399902 0 0.622686 0.0399848 0 0.625232 0.0399942 0 0.627641 0.0400021 0 0.629935 0.0399993 0 0.632217 0.0399944 0 0.634516 0.0399945 0 0.636824 0.0399957 0 0.639137 0.0399965 0 0.64145 0.0399958 0 0.643757 0.0399964 0 0.646062 0.039996 0 0.648369 0.0399957 0 0.650681 0.0399965 0 0.652999 0.0399982 0 0.655274 0.0400002 0 0.657517 0.0400026 0 0.659651 0.0400017 0 0.661918 0.0400005 0 0.66536 0.04 0 0.670061 0.04 0 0.67501 0.04 0 0.680002 0.04 0 0.685 0.04 0 0.69 0.04 0 0.695 0.04 0 0.7 0.04 0 0.705 0.04 0 0.71 0.04 0 0.715 0.04 0 0.72 0.04 0 0.725 0.04 0 0.73 0.04 0 0.735 0.04 0 0.74 0.04 0 0.745 0.04 0 0.75 0.04 0 0.755 0.04 0 0.76 0.04 0 0.765 0.04 0 0.77 0.04 0 0.775 0.04 0 0.78 0.04 0 0.785 0.04 0 0.79 0.04 0 0.795 0.04 0 0.8 0.04 0 0.805 0.04 0 0.81 0.04 0 0.815 0.04 0 0.82 0.04 0 0.825 0.04 0 0.83 0.04 0 0.835 0.04 0 0.84 0.04 0 0.845 0.04 0 0.85 0.04 0 0.855 0.04 0 0.86 0.04 0 0.865 0.04 0 0.87 0.04 0 0.875 0.04 0 0.88 0.04 0 0.885 0.04 0 0.89 0.04 0 0.895 0.04 0 0.9 0.04 0 0.905 0.04 0 0.91 0.04 0 0.915 0.04 0 0.92 0.04 0 0.925 0.04 0 0.93 0.04 0 0.935 0.04 0 0.94 0.04 0 0.945 0.04 0 0.95 0.04 0 0.955 0.04 0 0.96 0.04 0 0.965 0.04 0 0.97 0.04 0 0.975 0.04 0 0.98 0.04 0 0.985 0.04 0 0.99 0.04 0 0.995 0.04 0 1 0.04 0 0 0.06 0 0.005 0.06 0 0.01 0.06 0 0.015 0.06 0 0.02 0.06 0 0.025 0.06 0 0.03 0.06 0 0.035 0.06 0 0.04 0.06 0 0.045 0.06 0 0.05 0.06 0 0.055 0.06 0 0.06 0.06 0 0.065 0.06 0 0.07 0.06 0 0.075 0.06 0 0.08 0.06 0 0.085 0.06 0 0.09 0.06 0 0.095 0.06 0 0.1 0.06 0 0.105 0.06 0 0.11 0.06 0 0.115 0.06 0 0.12 0.06 0 0.125 0.06 0 0.13 0.06 0 0.135 0.06 0 0.14 0.06 0 0.145 0.06 0 0.15 0.06 0 0.155 0.06 0 0.16 0.06 0 0.165 0.06 0 0.17 0.06 0 0.175 0.06 0 0.18 0.06 0 0.185 0.06 0 0.19 0.06 0 0.195 0.06 0 0.2 0.06 0 0.205 0.06 0 0.21 0.06 0 0.215 0.06 0 0.22 0.06 0 0.225 0.06 0 0.23 0.06 0 0.235 0.06 0 0.24 0.06 0 0.245 0.06 0 0.25 0.06 0 0.255 0.06 0 0.26 0.06 0 0.265 0.06 0 0.27 0.06 0 0.275 0.06 0 0.28 0.06 0 0.285 0.06 0 0.29 0.06 0 0.295 0.06 0 0.3 0.06 0 0.305 0.06 0 0.31 0.06 0 0.315 0.06 0 0.32 0.06 0 0.325 0.06 0 0.33 0.06 0 0.335 0.06 0 0.34 0.06 0 0.345001 0.06 0 0.350002 0.06 0 0.355006 0.06 0 0.360017 0.06 0 0.365041 0.06 0 0.370091 0.06 0 0.375181 0.06 0 0.380331 0.06 0 0.385563 0.06 0 0.3909 0.06 0 0.396365 0.06 0 0.401983 0.06 0 0.40778 0.06 0 0.413782 0.06 0 0.420017 0.06 0 0.426515 0.06 0 0.43331 0.06 0 0.440437 0.06 0 0.447937 0.06 0 0.455855 0.06 0 0.464237 0.06 0 0.473131 0.06 0 0.48258 0.06 0 0.492609 0.06 0 0.503214 0.06 0 0.514339 0.06 0 0.525879 0.06 0 0.537701 0.06 0 0.54969 0.06 0 0.561791 0.06 0 0.574061 0.0600002 0 0.586994 0.0600015 0 0.589407 0.0600024 0 0.591775 0.0600026 0 0.594145 0.0600018 0 0.596512 0.060001 0 0.598873 0.06 0 0.601225 0.0600014 0 0.603571 0.0600023 0 0.60591 0.0600044 0 0.608244 0.0600033 0 0.610567 0.0600001 0 0.612902 0.0599981 0 0.615214 0.0599958 0 0.617535 0.0599947 0 0.619742 0.0599826 0 0.621848 0.059981 0 0.623941 0.0599882 0 0.626165 0.0599961 0 0.628507 0.060003 0 0.630858 0.0600056 0 0.63319 0.0600051 0 0.635514 0.0600035 0 0.637834 0.0600016 0 0.640154 0.0599994 0 0.64248 0.0599995 0 0.644803 0.0600004
[...]
			<CellData Scalars="Density">
				<DataArray Name="Density" type="Float32" format="ascii">
 1 1 1 1 1 1 1 1 1 1 1 1 1 1 1 1 1 1 1 1 1 1 1 1 1 1 1 1 1 1 1 1 1 1 1 1 1 1 1 1 1 1 1 1 1 1 1 1 1 1 1 1 1 1 1 1 1 1 1 1 1 1 1 0.999999 0.999998 0.999995 0.999986 0.999959 0.999886 0.999693 0.999191 0.997919 0.995184 0.990205 0.982255 0.970799 0.955663 0.936921 0.914876 0.889936 0.862538 0.833068 0.801955 0.769436 0.7359 0.701518 0.666634 0.6315 0.596513 0.562172 0.529182 0.498534 0.471493 0.449422 0.433273 0.422955 0.417061 0.413176 0.4075 0.386666 0.259207 0.264168 0.263794 0.264007 0.264692 0.265457 0.265972 0.266446 0.266883 0.267187 0.267522 0.267801 0.268033 0.26831 0.268614 0.269541 0.270043 0.269745 0.269645 0.269653 0.269606 0.269593 0.269635 0.269739 0.269921 0.27001 0.269826 0.268988 0.270465 0.27579 0.275639 0.248711 0.172549 0.132926 0.126295 0.125211 0.125034 0.125006 0.125001 0.125 0.125 0.125 0.125 0.125 0.125 0.125 0.125 0.125 0.125 0.125 0.125 0.125 0.125 0.125 0.125 0.125 0.125 0.125 0.125 0.125 0.125 0.125 0.125 0.125 0.125 0.125 0.125 0.125 0.125 0.125 0.125 0.125 0.125 0.125 0.125 0.125 0.125 0.125 0.125 0.125 0.125 0.125 0.125 0.125 0.125 0.125 0.125 0.125 0.125 0.125 0.125 0.125 0.125 0.125 0.125 0.125 0.125 0.125 0.125 0.125 1 1 1 1 1 1 1 1 1 1 1 1 1 1 1 1 1 1 1 1 1 1 1 1 1 1 1 1 1 1 1 1 1 1 1 1 1 1 1 1 1 1 1 1 1 1 1 1 1 1 1 1 1 1 1 1 1 1 1 1 1 1 1 0.999999 0.999998 0.999995 0.999986 0.999959 0.999886 0.999693 0.999191 0.997919 0.995184 0.990205 0.982255 0.970799 0.955663 0.936921 0.914876 0.889936 0.862538 0.833068 0.801955 0.769436 0.7359 0.701518 0.666634 0.6315 0.596513 0.562172 0.529182 0.498534 0.471493 0.449422 0.433273 0.422955 0.417061 0.413175 0.407504 0.386684 0.259215 0.264167 0.263798 0.264005 0.264697 0.265468 0.265992 0.26644 0.266913 0.26714 0.267478 0.267902 0.267989 0.268281 0.268566 0.269532 0.270074 0.269747 0.269726 0.269674 0.269666 0.269635 0.269668 0.269784 0.269896 0.269964 0.269724 0.268787 0.270366 0.275519 0.275606 0.249326 0.172949 0.132954 0.126297 0.125211 0.125034 0.125006 0.125001 0.125 0.125 0.125 0.125 0.125 0.125 0.125 0.125 0.125 0.125 0.125 0.125 0.125 0.125 0.125 0.125 0.125 0.125 0.125 0.125 0.125 0.125 0.125 0.125 0.125 0.125 0.125 0.125 0.125 0.125 0.125 0.125 0.125 0.125 0.125 0.125 0.125 0.125 0.125 0.125 0.125 0.125 0.125 0.125 0.125 0.125 0.125 0.125 0.125 0.125 0.125 0.125 0.125 0.125 0.125 0.125 0.125 0.125 0.125 0.125 0.125 1 1 1 1 1 1 1 1 1 1 1 1 1 1 1 1 1 1 1 1 1 1 1 1 1 1 1 1 1 1 1 1 1 1 1 1 1 1 1 1 1 1 1 1 1 1 1 1 1 1 1 1 1 1 1 1 1 1 1 1 1 1 1 0.999999 0.999998 0.999995 0.999986 0.999959 0.999886 0.999693 0.999191 0.997919 0.995184 0.990205 0.982255 0.970799 0.955663 0.936921 0.914876 0.889936 0.862538 0.833068 0.801955 0.769436 0.7359 0.701518 0.666634 0.6315 0.596513 0.562172 0.529182 0.498534 0.471493 0.449422 0.433273 0.422954 0.417059 0.413172 0.4075 0.386668 0.259202 0.264153 0.263795 0.264 0.264688 0.265453 0.266028 0.266432 0.266962 0.267118 0.26757 0.26778 0.268113 0.268336 0.268555 0.269567 0.269981 0.269693 0.269603 0.269582 0.269554 0.269638 0.269692 0.269693 0.269954 0.269871 0.269545 0.268728 0.27041 0.275924 0.275953 0.248913 0.172639 0.132939 0.126296 0.125211 0.125034 0.125006 0.125001 0.125 0.125 0.125 0.125 0.125 0.125 0.125 0.125 0.125 0.125 0.125 0.125 0.125 0.125 0.125 0.125 0.125 0.125 0.125 0.125 0.125 0.125 0.125 0.125 0.125 0.125 0.125 0.125 0.125 0.125 0.125 0.125 0.125 0.125 0.125 0.125 0.125 0.125 0.125 0.125 0.125 0.125 0.125 0.125 0.125 0.125 0.125 0.125 0.125 0.125 0.125 0.125 0.125 0.125 0.125 0.125 0.125 0.125 0.125 0.125 0.125 1 1 1 1 1 1 1 1 1 1 1 1 1 1 1 1 1 1 1 1 1 1 1 1 1 1 1 1 1 1 1 1 1 1 1 1 1 1 1 1 1 1 1 1 1 1 1 1 1 1 1 1 1 1 1 1 1 1 1 1 1 1 1 0.999999 0.999998 0.999995 0.999986 0.999959 0.999886 0.999693 0.999191 0.997919 0.995184 0.990205 0.982255 0.970799 0.955663 0.936921 0.914876 0.889936 0.862538 0.833068 0.801955 0.769436 0.7359 0.701518 0.666634 0.6315 0.596513 0.562172 0.529182 0.498534 0.471493 0.449422 0.433273 0.422954 0.417058 0.413167 0.407491 0.386655 0.25919 0.264146 0.263769 0.263985 0.264661 0.265433 0.265939 0.266454 0.266901 0.267237 0.267508 0.267816 0.267968 0.268326 0.268571 0.26961 0.270065 0.269793 0.269634 0.269665 0.269609 0.26958 0.269602 0.269626 0.269889 0.269933 0.269718 0.26901 0.27035 0.276004 0.275951 0.249018 0.172567 0.13292 0.126294 0.125211 0.125034 0.125006 0.125001 0.125 0.125 0.125 0.125 0.125 0.125 0.125 0.125 0.125 0.125 0.125 0.125 0.125 0.125 0.125 0.125 0.125 0.125 0.125 0.125 0.125 0.125 0.125 0.125 0.125 0.125 0.125 0.125 0.125 0.125 0.125 0.125 0.125 0.125 0.125 0.125 0.125 0.125 0.125 0.125 0.125 0.125 0.125 0.125 0.125 0.125 0.125 0.125 0.125 0.125 0.125 0.125 0.125 0.125 0.125 0.125 0.125 0.125 0.125 0.125 0.125 1 1 1 1 1 1 1 1 1 1 1 1 1 1 1 1 1 1 1 1 1 1 1 1 1 1 1 1 1 1 1 1 1 1 1 1 1 1 1 1 1 1 1 1 1 1 1 1 1 1 1 1 1 1 1 1 1 1 1 1 1 1 1 0.999999 0.999998 0.999995 0.999986 0.999959 0.999886 0.999693 0.999191 0.997919 0.995184 0.990205 0.982255 0.970799 0.955663 0.936921 0.914876 0.889936 0.862538 0.833068 0.801955 0.769436 0.7359 0.701518 0.666634 0.6315 0.596513 0.562172 0.529182 0.498534 0.471493 0.449422 0.433273 0.422954 0.417058 0.413167 0.407487 0.38665 0.259198 0.264136 0.263754 0.263932 0.264596 0.265357 0.265924 0.266396 0.266887 0.267182 0.267562 0.26782 0.268059 0.26828 0.268699 0.26966 0.27005 0.26971 0.269628 0.269614 0.269573 0.269561 0.269552 0.269645 0.269808 0.26995 0.269818 0.269035 0.270284 0.275758 0.275876 0.249388 0.172703 0.132914 0.126292 0.12521 0.125034 0.125006 0.125001 0.125 0.125 0.125 0.125 0.125 0.125 0.125 0.125 0.125 0.125 0.125 0.125 0.125 0.125 0.125 0.125 0.125 0.125 0.125 0.125 0.125 0.125 0.125 0.125 0.125 0.125 0.125 0.125 0.125 0.125 0.125 0.125 0.125 0.125 0.125 0.125 0.125 0.125 0.125 0.125 0.125 0.125 0.125 0.125 0.125 0.125 0.125 0.125 0.125 0.125 0.125 0.125 0.125 0.125 0.125 0.125 0.125 0.125 0.125 0.125 0.125
				</DataArray>
				<DataArray Name="Energy" type="Float32" format="ascii">
 2.5 2.5 2.5 2.5 2.5 2.5 2.5 2.5 2.5 2.5 2.5 2.5 2.5 2.5 2.5 2.5 2.5 2.5 2.5 2.5 2.5 2.5 2.5 2.5 2.5 2.5 2.5 2.5 2.5 2.5 2.5 2.5 2.5 2.5 2.5 2.5 2.5 2.5 2.5 2.5 2.5 2.5 2.5 2.5 2.5 2.5 2.5 2.5 2.5 2.5 2.5 2.5 2.5 2.5 2.5 2.5 2.5 2.5 2.5 2.5 2.5 2.5 2.5 2.5 2.5 2.5 2.49999 2.49996 2.49989 2.4997 2.4992 2.49795 2.49525 2.49033 2.48247 2.47109 2.45597 2.43711 2.4147 2.38903 2.36042 2.32915 2.29552 2.25966 2.22188 2.18224 2.14103 2.09845 2.0549 2.01098 1.96764 1.92639 1.88932 1.85901 1.83779 1.82671 1.82517 1.83265 1.8562 1.95673 2.91951 2.86447 2.86839 2.86603 2.85843 2.84999 2.84414 2.83904 2.83424 2.83139 2.82778 2.82491 2.82283 2.82016 2.81725 2.80766 2.80253 2.80559 2.80682 2.80769 2.80867 2.80922 2.80953 2.80983 2.81062 2.81104 2.81 2.80611 2.81126 2.83216 2.8308 2.71339 2.30073 2.04588 2.0072 2.00116 2.00019 2.00003 2 2 2 2 2 2 2 2 2 2 2 2 2 2 2 2 2 2 2 2 2 2 2 2 2 2 2 2 2 2 2 2 2 2 2 2 2 2 2 2 2 2 2 2 2 2 2 2 2 2 2 2 2 2 2 2 2 2 2 2 2 2 2.5 2.5 2.5 2.5 2.5 2.5 2.5 2.5 2.5 2.5 2.5 2.5 2.5 2.5 2.5 2.5 2.5 2.5 2.5 2.5 2.5 2.5 2.5 2.5 2.5 2.5 2.5 2.5 2.5 2.5 2.5 2.5 2.5 2.5 2.5 2.5 2.5 2.5 2.5 2.5 2.5 2.5 2.5 2.5 2.5 2.5 2.5 2.5 2.5 2.5 2.5 2.5 2.5 2.5 2.5 2.5 2.5 2.5 2.5 2.5 2.5 2.5 2.5 2.5 2.5 2.5 2.49999 2.49996 2.49989 2.4997 2.4992 2.49795 2.49525 2.49033 2.48247 2.47109 2.45597 2.43711 2.4147 2.38903 2.36042 2.32915 2.29552 2.25966 2.22188 2.18224 2.14103 2.09845 2.0549 2.01098 1.96764 1.92639 1.88932 1.85901 1.83779 1.82671 1.82517 1.83265 1.85621 1.95676 2.91954 2.86447 2.8684 2.86603 2.85845 2.85003 2.84422 2.83902 2.83436 2.83119 2.8276 2.82532 2.82268 2.82019 2.81738 2.8077 2.802 2.80508 2.80655 2.80716 2.80844 2.80895 2.80921 2.80963 2.81007 2.8104 2.8091 2.80477 2.81041 2.83058 2.83014 2.71584 2.30315 2.04605 2.00721 2.00116 2.00019 2.00003 2 2 2 2 2 2 2 2 2 2 2 2 2 2 2 2 2 2 2 2 2 2 2 2 2 2 2 2 2 2 2 2 2 2 2 2 2 2 2 2 2 2 2 2 2 2 2 2 2 2 2 2 2 2 2 2 2 2 2 2 2 2 2.5 2.5 2.5 2.5 2.5 2.5 2.5 2.5 2.5 2.5 2.5 2.5 2.5 2.5 2.5 2.5 2.5 2.5 2.5 2.5 2.5 2.5 2.5 2.5 2.5 2.5 2.5 2.5 2.5 2.5 2.5 2.5 2.5 2.5 2.5 2.5 2.5 2.5 2.5 2.5 2.5 2.5 2.5 2.5 2.5 2.5 2.5 2.5 2.5 2.5 2.5 2.5 2.5 2.5 2.5 2.5 2.5 2.5 2.5 2.5 2.5 2.5 2.5 2.5 2.5 2.5 2.49999 2.49996 2.49989 2.4997 2.4992 2.49795 2.49525 2.49033 2.48247 2.47109 2.45597 2.43711 2.4147 2.38903 2.36042 2.32915 2.29552 2.25966 2.22188 2.18224 2.14103 2.09845 2.0549 2.01098 1.96764 1.92639 1.88932 1.85901 1.83779 1.82671 1.82517 1.83264 1.8562 1.95673 2.91948 2.86441 2.86839 2.866 2.85841 2.84997 2.84437 2.83899 2.83456 2.83111 2.82797 2.82483 2.82312 2.82024 2.81653 2.8073 2.80288 2.80596 2.80696 2.80719 2.80827 2.80924 2.80967 2.80978 2.81058 2.81043 2.80878 2.80505 2.81123 2.83247 2.83192 2.71458 2.30136 2.04595 2.0072 2.00116 2.00019 2.00003 2 2 2 2 2 2 2 2 2 2 2 2 2 2 2 2 2 2 2 2 2 2 2 2 2 2 2 2 2 2 2 2 2 2 2 2 2 2 2 2 2 2 2 2 2 2 2 2 2 2 2 2 2 2 2 2 2 2 2 2 2 2 2.5 2.5 2.5 2.5 2.5 2.5 2.5 2.5 2.5 2.5 2.5 2.5 2.5 2.5 2.5 2.5 2.5 2.5 2.5 2.5 2.5 2.5 2.5 2.5 2.5 2.5 2.5 2.5 2.5 2.5 2.5 2.5 2.5 2.5 2.5 2.5 2.5 2.5 2.5 2.5 2.5 2.5 2.5 2.5 2.5 2.5 2.5 2.5 2.5 2.5 2.5 2.5 2.5 2.5 2.5 2.5 2.5 2.5 2.5 2.5 2.5 2.5 2.5 2.5 2.5 2.5 2.49999 2.49996 2.49989 2.4997 2.4992 2.49795 2.49525 2.49033 2.48247 2.47109 2.45597 2.43711 2.4147 2.38903 2.36042 2.32915 2.29552 2.25966 2.22188 2.18224 2.14103 2.09845 2.0549 2.01098 1.96764 1.92639 1.88932 1.85901 1.83779 1.82671 1.82517 1.83263 1.85619 1.95671 2.91943 2.86438 2.86828 2.86594 2.8583 2.84989 2.84401 2.83908 2.83431 2.83158 2.82773 2.82496 2.82259 2.82036 2.81672 2.80679 2.80167 2.80538 2.80648 2.80735 2.80859 2.80915 2.80941 2.80954 2.81036 2.81064 2.80946 2.80615 2.81094 2.83275 2.83178 2.71491 2.30093 2.04584 2.00719 2.00116 2.00019 2.00003 2 2 2 2 2 2 2 2 2 2 2 2 2 2 2 2 2 2 2 2 2 2 2 2 2 2 2 2 2 2 2 2 2 2 2 2 2 2 2 2 2 2 2 2 2 2 2 2 2 2 2 2 2 2 2 2 2 2 2 2 2 2 2.5 2.5 2.5 2.5 2.5 2.5 2.5 2.5 2.5 2.5 2.5 2.5 2.5 2.5 2.5 2.5 2.5 2.5 2.5 2.5 2.5 2.5 2.5 2.5 2.5 2.5 2.5 2.5 2.5 2.5 2.5 2.5 2.5 2.5 2.5 2.5 2.5 2.5 2.5 2.5 2.5 2.5 2.5 2.5 2.5 2.5 2.5 2.5 2.5 2.5 2.5 2.5 2.5 2.5 2.5 2.5 2.5 2.5 2.5 2.5 2.5 2.5 2.5 2.5 2.5 2.5 2.49999 2.49996 2.49989 2.4997 2.4992 2.49795 2.49525 2.49033 2.48247 2.47109 2.45597 2.43711 2.4147 2.38903 2.36042 2.32915 2.29552 2.25966 2.22188 2.18224 2.14103 2.09845 2.0549 2.01098 1.96764 1.92639 1.88932 1.85901 1.83779 1.82671 1.82517 1.83263 1.85618 1.9567 2.91947 2.86434 2.86822 2.86572 2.85803 2.84958 2.84394 2.83884 2.83425 2.83136 2.82794 2.82499 2.82291 2.81999 2.81639 2.80631 2.80252 2.80598 2.80699 2.80728 2.80843 2.80906 2.80922 2.80962 2.81004 2.81076 2.8098 2.80612 2.8105 2.83173 2.83145 2.7163 2.30177 2.0458 2.00718 2.00116 2.00019 2.00003 2 2 2 2 2 2 2 2 2 2 2 2 2 2 2 2 2 2 2 2 2 2 2 2 2 2 2 2 2 2 2 2 2 2 2 2 2 2 2 2 2 2 2 2 2 2 2 2 2 2 2 2 2 2 2 2 2 2 2 2 2 2
				</DataArray>
				<DataArray Name="F1" type="Float32" format="ascii">
 1 1 1 1 1 1 1 1 1 1 1 1 1 1 1 1 1 1 1 1 1 1 1 1 1 1 1 1 1 1 1 1 1 1 1 1 1 1 1 1 1 1 1 1 1 1 1 1 1 1 1 1 1 1 1 1 1 1 1 1 1 1 1 1 1 1 1 1 1 1 1 1 1 1 1 1 1 1 1 1 1 1 1 1 1 1 1 1 1 1 1 1 1 1 1 1 1 1 1 1 0 0 0 0 0 0 0 0 0 0 0 0 0 0 0 0 0 0 0 0 0 0 0 0 0 0 0 0 0 0 0 0 0 0 0 0 0 0 0 0 0 0 0 0 0 0 0 0 0 0 0 0 0 0 0 0 0 0 0 0 0 0 0 0 0 0 0 0 0 0 0 0 0 0 0 0 0 0 0 0 0 0 0 0 0 0 0 0 0 0 0 0 0 0 0 0 0 0 0 0 1 1 1 1 1 1 1 1 1 1 1 1 1 1 1 1 1 1 1 1 1 1 1 1 1 1 1 1 1 1 1 1 1 1 1 1 1 1 1 1 1 1 1 1 1 1 1 1 1 1 1 1 1 1 1 1 1 1 1 1 1 1 1 1 1 1 1 1 1 1 1 1 1 1 1 1 1 1 1 1 1 1 1 1 1 1 1 1 1 1 1 1 1 1 1 1 1 1 1 1 0 0 0 0 0 0 0 0 0 0 0 0 0 0 0 0 0 0 0 0 0 0 0 0 0 0 0 0 0 0 0 0 0 0 0 0 0 0 0 0 0 0 0 0 0 0 0 0 0 0 0 0 0 0 0 0 0 0 0 0 0 0 0 0 0 0 0 0 0 0 0 0 0 0 0 0 0 0 0 0 0 0 0 0 0 0 0 0 0 0 0 0 0 0 0 0 0 0 0 0 1 1 1 1 1 1 1 1 1 1 1 1 1 1 1 1 1 1 1 1 1 1 1 1 1 1 1 1 1 1 1 1 1 1 1 1 1 1 1 1 1 1 1 1 1 1 1 1 1 1 1 1 1 1 1 1 1 1 1 1 1 1 1 1 1 1 1 1 1 1 1 1 1 1 1 1 1 1 1 1 1 1 1 1 1 1 1 1 1 1 1 1 1 1 1 1 1 1 1 1 0 0 0 0 0 0 0 0 0 0 0 0 0 0 0 0 0 0 0 0 0 0 0 0 0 0 0 0 0 0 0 0 0 0 0 0 0 0 0 0 0 0 0 0 0 0 0 0 0 0 0 0 0 0 0 0 0 0 0 0 0 0 0 0 0 0 0 0 0 0 0 0 0 0 0 0 0 0 0 0 0 0 0 0 0 0 0 0 0 0 0 0 0 0 0 0 0 0 0 0 1 1 1 1 1 1 1 1 1 1 1 1 1 1 1 1 1 1 1 1 1 1 1 1 1 1 1 1 1 1 1 1 1 1 1 1 1 1 1 1 1 1 1 1 1 1 1 1 1 1 1 1 1 1 1 1 1 1 1 1 1 1 1 1 1 1 1 1 1 1 1 1 1 1 1 1 1 1 1 1 1 1 1 1 1 1 1 1 1 1 1 1 1 1 1 1 1 1 1 1 0 0 0 0 0 0 0 0 0 0 0 0 0 0 0 0 0 0 0 0 0 0 0 0 0 0 0 0 0 0 0 0 0 0 0 0 0 0 0 0 0 0 0 0 0 0 0 0 0 0 0 0 0 0 0 0 0 0 0 0 0 0 0 0 0 0 0 0 0 0 0 0 0 0 0 0 0 0 0 0 0 0 0 0 0 0 0 0 0 0 0 0 0 0 0 0 0 0 0 0 1 1 1 1 1 1 1 1 1 1 1 1 1 1 1 1 1 1 1 1 1 1 1 1 1 1 1 1 1 1 1 1 1 1 1 1 1 1 1 1 1 1 1 1 1 1 1 1 1 1 1 1 1 1 1 1 1 1 1 1 1 1 1 1 1 1 1 1 1 1 1 1 1 1 1 1 1 1 1 1 1 1 1 1 1 1 1 1 1 1 1 1 1 1 1 1 1 1 1 1 0 0 0 0 0 0 0 0 0 0 0 0 0 0 0 0 0 0 0 0 0 0 0 0 0 0 0 0 0 0 0 0 0 0 0 0 0 0 0 0 0 0 0 0 0 0 0 0 0 0 0 0 0 0 0 0 0 0 0 0 0 0 0 0 0 0 0 0 0 0 0 0 0 0 0 0 0 0 0 0 0 0 0 0 0 0 0 0 0 0 0 0 0 0 0 0 0 0 0 0
				</DataArray>
				<DataArray Name="F2" type="Float32" format="ascii">
 0 0 0 0 0 0 0 0 0 0 0 0 0 0 0 0 0 0 0 0 0 0 0 0 0 0 0 0 0 0 0 0 0 0 0 0 0 0 0 0 0 0 0 0 0 0 0 0 0 0 0 0 0 0 0 0 0 0 0 0 0 0 0 0 0 0 0 0 0 0 0 0 0 0 0 0 0 0 0 0 0 0 0 0 0 0 0 0 0 0 0 0 0 0 0 0 0 0 0 0 1 1 1 1 1 1 1 1 1 1 1 1 1 1 1 1 1 1 1 1 1 1 1 1 1 1 1 1 1 1 1 1 1 1 1 1 1 1 1 1 1 1 1 1 1 1 1 1 1 1 1 1 1 1 1 1 1 1 1 1 1 1 1 1 1 1 1 1 1 1 1 1 1 1 1 1 1 1 1 1 1 1 1 1 1 1 1 1 1 1 1 1 1 1 1 1 1 1 1 1 0 0 0 0 0 0 0 0 0 0 0 0 0 0 0 0 0 0 0 0 0 0 0 0 0 0 0 0 0 0 0 0 0 0 0 0 0 0 0 0 0 0 0 0 0 0 0 0 0 0 0 0 0 0 0 0 0 0 0 0 0 0 0 0 0 0 0 0 0 0 0 0 0 0 0 0 0 0 0 0 0 0 0 0 0 0 0 0 0 0 0 0 0 0 0 0 0 0 0 0 1 1 1 1 1 1 1 1 1 1 1 1 1 1 1 1 1 1 1 1 1 1 1 1 1 1 1 1 1 1 1 1 1 1 1 1 1 1 1 1 1 1 1 1 1 1 1 1 1 1 1 1 1 1 1 1 1 1 1 1 1 1 1 1 1 1 1 1 1 1 1 1 1 1 1 1 1 1 1 1 1 1 1 1 1 1 1 1 1 1 1 1 1 1 1 1 1 1 1 1 0 0 0 0 0 0 0 0 0 0 0 0 0 0 0 0 0 0 0 0 0 0 0 0 0 0 0 0 0 0 0 0 0 0 0 0 0 0 0 0 0 0 0 0 0 0 0 0 0 0 0 0 0 0 0 0 0 0 0 0 0 0 0 0 0 0 0 0 0 0 0 0 0 0 0 0 0 0 0 0 0 0 0 0 0 0 0 0 0 0 0 0 0 0 0 0 0 0 0 0 1 1 1 1 1 1 1 1 1 1 1 1 1 1 1 1 1 1 1 1 1 1 1 1 1 1 1 1 1 1 1 1 1 1 1 1 1 1 1 1 1 1 1 1 1 1 1 1 1 1 1 1 1 1 1 1 1 1 1 1 1 1 1 1 1 1 1 1 1 1 1 1 1 1 1 1 1 1 1 1 1 1 1 1 1 1 1 1 1 1 1 1 1 1 1 1 1 1 1 1 0 0 0 0 0 0 0 0 0 0 0 0 0 0 0 0 0 0 0 0 0 0 0 0 0 0 0 0 0 0 0 0 0 0 0 0 0 0 0 0 0 0 0 0 0 0 0 0 0 0 0 0 0 0 0 0 0 0 0 0 0 0 0 0 0 0 0 0 0 0 0 0 0 0 0 0 0 0 0 0 0 0 0 0 0 0 0 0 0 0 0 0 0 0 0 0 0 0 0 0 1 1 1 1 1 1 1 1 1 1 1 1 1 1 1 1 1 1 1 1 1 1 1 1 1 1 1 1 1 1 1 1 1 1 1 1 1 1 1 1 1 1 1 1 1 1 1 1 1 1 1 1 1 1 1 1 1 1 1 1 1 1 1 1 1 1 1 1 1 1 1 1 1 1 1 1 1 1 1 1 1 1 1 1 1 1 1 1 1 1 1 1 1 1 1 1 1 1 1 1 0 0 0 0 0 0 0 0 0 0 0 0 0 0 0 0 0 0 0 0 0 0 0 0 0 0 0 0 0 0 0 0 0 0 0 0 0 0 0 0 0 0 0 0 0 0 0 0 0 0 0 0 0 0 0 0 0 0 0 0 0 0 0 0 0 0 0 0 0 0 0 0 0 0 0 0 0 0 0 0 0 0 0 0 0 0 0 0 0 0 0 0 0 0 0 0 0 0 0 0 1 1 1 1 1 1 1 1 1 1 1 1 1 1 1 1 1 1 1 1 1 1 1 1 1 1 1 1 1 1 1 1 1 1 1 1 1 1 1 1 1 1 1 1 1 1 1 1 1 1 1 1 1 1 1 1 1 1 1 1 1 1 1 1 1 1 1 1 1 1 1 1 1 1 1 1 1 1 1 1 1 1 1 1 1 1 1 1 1 1 1 1 1 1 1 1 1 1 1 1
				</DataArray>
				<DataArray Name="F3" type="Float32" format="ascii">
 0 0 0 0 0 0 0 0 0 0 0 0 0 0 0 0 0 0 0 0 0 0 0 0 0 0 0 0 0 0 0 0 0 0 0 0 0 0 0 0 0 0 0 0 0 0 0 0 0 0 0 0 0 0 0 0 0 0 0 0 0 0 0 0 0 0 0 0 0 0 0 0 0 0 0 0 0 0 0 0 0 0 0 0 0 0 0 0 0 0 0 0 0 0 0 0 0 0 0 0 0 0 0 0 0 0 0 0 0 0 0 0 0 0 0 0 0 0 0 0 0 0 0 0 0 0 0 0 0 0 0 0 0 0 0 0 0 0 0 0 0 0 0 0 0 0 0 0 0 0 0 0 0 0 0 0 0 0 0 0 0 0 0 0 0 0 0 0 0 0 0 0 0 0 0 0 0 0 0 0 0 0 0 0 0 0 0 0 0 0 0 0 0 0 0 0 0 0 0 0 0 0 0 0 0 0 0 0 0 0 0 0 0 0 0 0 0 0 0 0 0 0 0 0 0 0 0 0 0 0 0 0 0 0 0 0 0 0 0 0 0 0 0 0 0 0 0 0 0 0 0 0 0 0 0 0 0 0 0 0 0 0 0 0 0 0 0 0 0 0 0 0 0 0 0 0 0 0 0 0 0 0 0 0 0 0 0 0 0 0 0 0 0 0 0 0 0 0 0 0 0 0 0 0 0 0 0 0 0 0 0 0 0 0 0 0 0 0 0 0 0 0 0 0 0 0 0 0 0 0 0 0 0 0 0 0 0 0 0 0 0 0 0 0 0 0 0 0 0 0 0 0 0 0 0 0 0 0 0 0 0 0 0 0 0 0 0 0 0 0 0 0 0 0 0 0 0 0 0 0 0 0 0 0 0 0 0 0 0 0 0 0 0 0 0 0 0 0 0 0 0 0 0 0 0 0 0 0 0 0 0 0 0 0 0 0 0 0 0 0 0 0 0 0 0 0 0 0 0 0 0 0 0 0 0 0 0 0 0 0 0 0 0 0 0 0 0 0 0 0 0 0 0 0 0 0 0 0 0 0 0 0 0 0 0 0 0 0 0 0 0 0 0 0 0 0 0 0 0 0 0 0 0 0 0 0 0 0 0 0 0 0 0 0 0 0 0 0 0 0 0 0 0 0 0 0 0 0 0 0 0 0 0 0 0 0 0 0 0 0 0 0 0 0 0 0 0 0 0 0 0 0 0 0 0 0 0 0 0 0 0 0 0 0 0 0 0 0 0 0 0 0 0 0 0 0 0 0 0 0 0 0 0 0 0 0 0 0 0 0 0 0 0 0 0 0 0 0 0 0 0 0 0 0 0 0 0 0 0 0 0 0 0 0 0 0 0 0 0 0 0 0 0 0 0 0 0 0 0 0 0 0 0 0 0 0 0 0 0 0 0 0 0 0 0 0 0 0 0 0 0 0 0 0 0 0 0 0 0 0 0 0 0 0 0 0 0 0 0 0 0 0 0 0 0 0 0 0 0 0 0 0 0 0 0 0 0 0 0 0 0 0 0 0 0 0 0 0 0 0 0 0 0 0 0 0 0 0 0 0 0 0 0 0 0 0 0 0 0 0 0 0 0 0 0 0 0 0 0 0 0 0 0 0 0 0 0 0 0 0 0 0 0 0 0 0 0 0 0 0 0 0 0 0 0 0 0 0 0 0 0 0 0 0 0 0 0 0 0 0 0 0 0 0 0 0 0 0 0 0 0 0 0 0 0 0 0 0 0 0 0 0 0 0 0 0 0 0 0 0 0 0 0 0 0 0 0 0 0 0 0 0 0 0 0 0 0 0 0 0 0 0 0 0 0 0 0 0 0 0 0 0 0 0 0 0 0 0 0 0 0 0 0 0 0 0 0 0 0 0 0 0 0 0 0 0 0 0 0 0 0 0 0 0 0 0 0 0 0 0 0 0 0 0 0 0 0 0 0 0 0 0 0 0 0 0 0 0 0 0 0 0 0 0 0 0 0 0 0 0 0 0 0 0 0 0 0 0 0 0 0 0 0 0 0 0 0 0 0 0 0 0 0 0 0 0 0 0 0 0 0 0 0 0 0 0 0 0 0 0 0 0 0 0 0 0 0 0 0 0 0 0 0 0 0 0 0 0 0 0 0 0 0 0 0 0 0 0 0 0 0 0 0 0 0 0 0 0 0 0 0 0 0 0 0 0 0 0 0 0 0 0 0 0 0 0 0 0 0 0 0 0 0 0 0 0 0 0 0 0 0 0 0 0 0 0 0 0 0 0
				</DataArray>
				<DataArray Name="Pressure" type="Float32" format="ascii">