<?xml version="1.0"?>
<VTKFile type="PolyData">
	<PolyData>
		<Piece NumberOfPoints="1206" NumberOfPolys="1000">
			<Points>
				<DataArray type="Float32" NumberOfComponents="3" format="ascii">
 0 0 0 0.005 0 0 0.01 0 0 0.015 0 0 0.02 0 0 0.025 0 0 0.03 0 0 0.035 0 0 0.04 0 0 0.045 0 0 0.05 0 0 0.055 0 0 0.06 0 0 0.065 0 0 0.07 0 0 0.075 0 0 0.08 0 0 0.085 0 0 0.09 0 0 0.095 0 0 0.1 0 0 0.105 0 0 0.11 0 0 0.115 0 0 0.12 0 0 0.125 0 0 0.13 0 0 0.135 0 0 0.14 0 0 0.145 0 0 0.15 0 0 0.155 0 0 0.16 0 0 0.165 0 0 0.17 0 0 0.175 0 0 0.18 0 0 0.185 0 0 0.19 0 0 0.195 0 0 0.2 0 0 0.205 0 0 0.21 0 0 0.215 0 0 0.22 0 0 0.225 0 0 0.23 0 0 0.235 0 0 0.24 0 0 0.245 0 0 0.25 0 0 0.255 0 0 0.26 0 0 0.265 0 0 0.27 0 0 0.275 0 0 0.28 0 0 0.285 0 0 0.29 0 0 0.295 0 0 0.3 0 0 0.305 0 0 0.31 0 0 0.315 0 0 0.32 0 0 0.325 0 0 0.33 0 0 0.335 0 0 0.34 0 0 0.345 0 0 0.35 0 0 0.355 0 0 0.36 0 0 0.365 0 0 0.37 0 0 0.375 0 0 0.38 0 0 0.385 0 0 0.39 0 0 0.395 0 0 0.4 0 0 0.405 0 0 0.41 0 0 0.415 0 0 0.42 0 0 0.425 0 0 0.43 0 0 0.435002 0 0 0.440009 0 0 0.445043 0 0 0.45016 0 0 0.455468 0 0 0.461116 0 0 0.467264 0 0 0.474086 0 0 0.481798 0 0 0.490693 0 0 0.501152 0 0 0.513308 0 0 0.525764 0 0 0.537783 0 0 0.540422 0 0 0.542986 0 0 0.545504 0 0 0.547992 0 0 0.55046 0 0 0.552912 0 0 0.555356 0 0 0.557802 0 0 0.560274 0 0 0.562788 0 0 0.565362 0 0 0.568075 0 0 0.570969 0 0 0.574138 0 0 0.577631 0 0 0.5815 0 0 0.585745 0 0 0.590314 0 0 0.595112 0 0 0.600035 0 0 0.60501 0 0 0.610003 0 0 0.615001 0 0 0.62 0 0 0.625 0 0 0.63 0 0 0.635 0 0 0.64 0 0 0.645 0 0 0.65 0 0 0.655 0 0 0.66 0 0 0.665 0 0 0.67 0 0 0.675 0 0 0.68 0 0 0.685 0 0 0.69 0 0 0.695 0 0 0.7 0 0 0.705 0 0 0.71 0 0 0.715 0 0 0.72 0 0 0.725 0 0 0.73 0 0 0.735 0 0 0.74 0 0 0.745 0 0 0.75 0 0 0.755 0 0 0.76 0 0 0.765 0 0 0.77 0 0 0.775 0 0 0.78 0 0 0.785 0 0 0.79 0 0 0.795 0 0 0.8 0 0 0.805 0 0 0.81 0 0 0.815 0 0 0.82 0 0 0.825 0 0 0.83 0 0 0.835 0 0 0.84 0 0 0.845 0 0 0.85 0 0 0.855 0 0 0.86 0 0 0.865 0 0 0.87 0 0 0.875 0 0 0.88 0 0 0.885 0 0 0.89 0 0 0.895 0 0 0.9 0 0 0.905 0 0 0.91 0 0 0.915 0 0 0.92 0 0 0.925 0 0 0.93 0 0 0.935 0 0 0.94 0 0 0.945 0 0 0.95 0 0 0.955 0 0 0.96 0 0 0.965 0 0 0.97 0 0 0.975 0 0 0.98 0 0 0.985 0 0 0.99 0 0 0.995 0 0 1 0 0 0 0.02 0 0.005 0.02 0 0.01 0.02 0 0.015 0.02 0 0.02 0.02 0 0.025 0.02 0 0.03 0.02 0 0.035 0.02 0 0.04 0.02 0 0.045 0.02 0 0.05 0.02 0 0.055 0.02 0 0.06 0.02 0 0.065 0.02 0 0.07 0.02 0 0.075 0.02 0 0.08 0.02 0 0.085 0.02 0 0.09 0.02 0 0.095 0.02 0 0.1 0.02 0 0.105 0.02 0 0.11 0.02 0 0.115 0.02 0 0.12 0.02 0 0.125 0.02 0 0.13 0.02 0 0.135 0.02 0 0.14 0.02 0 0.145 0.02 0 0.15 0.02 0 0.155 0.02 0 0.16 0.02 0 0.165 0.02 0 0.17 0.02 0 0.175 0.02 0 0.18 0.02 0 0.185 0.02 0 0.19 0.02 0 0.195 0.02 0 0.2 0.02 0 0.205 0.02 0 0.21 0.02 0 0.215 0.02 0 0.22 0.02 0 0.225 0.02 0 0.23 0.02 0 0.235 0.02 0 0.24 0.02 0 0.245 0.02 0 0.25 0.02 0 0.255 0.02 0 0.26 0.02 0 0.265 0.02 0 0.27 0.02 0 0.275 0.02 0 0.28 0.02 0 0.285 0.02 0 0.29 0.02 0 0.295 0.02 0 0.3 0.02 0 0.305 0.02 0 0.31 0.02 0 0.315 0.02 0 0.32 0.02 0 0.325 0.02 0 0.33 0.02 0 0.335 0.02 0 0.34 0.02 0 0.345 0.02 0 0.35 0.02 0 0.355 0.02 0 0.36 0.02 0 0.365 0.02 0 0.37 0.02 0 0.375 0.02 0 0.38 0.02 0 0.385 0.02 0 0.39 0.02 0 0.395 0.02 0 0.4 0.02 0 0.405 0.02 0 0.41 0.02 0 0.415 0.02 0 0.42 0.02 0 0.425 0.02 0 0.43 0.02 0 0.435002 0.02 0 0.440009 0.02 0 0.445043 0.02 0 0.45016 0.02 0 0.455468 0.02 0 0.461116 0.02 0 0.467264 0.02 0 0.474086 0.02 0 0.481798 0.02 0 0.490693 0.02 0 0.501152 0.02 0 0.513308 0.02 0 0.525764 0.02 0 0.537783 0.02 0 0.540422 0.02 0 0.542986 0.02 0 0.545504 0.02 0 0.547992 0.02 0 0.55046 0.02 0 0.552912 0.02 0 0.555356 0.02 0 0.557802 0.02 0 0.560274 0.02 0 0.562788 0.02 0 0.565362 0.02 0 0.568075 0.02 0 0.570969 0.02 0 0.574138 0.02 0 0.577631 0.02 0 0.5815 0.02 0 0.585745 0.02 0 0.590314 0.02 0 0.595112 0.02 0 0.600035 0.02 0 0.60501 0.02 0 0.610003 0.02 0 0.615001 0.02 0 0.62 0.02 0 0.625 0.02 0 0.63 0.02 0 0.635 0.02 0 0.64 0.02 0 0.645 0.02 0 0.65 0.02 0 0.655 0.02 0 0.66 0.02 0 0.665 0.02 0 0.67 0.02 0 0.675 0.02 0 0.68 0.02 0 0.685 0.02 0 0.69 0.02 0 0.695 0.02 0 0.7 0.02 0 0.705 0.02 0 0.71 0.02 0 0.715 0.02 0 0.72 0.02 0 0.725 0.02 0 0.73 0.02 0 0.735 0.02 0 0.74 0.02 0 0.745 0.02 0 0.75 0.02 0 0.755 0.02 0 0.76 0.02 0 0.765 0.02 0 0.77 0.02 0 0.775 0.02 0 0.78 0.02 0 0.785 0.02 0 0.79 0.02 0 0.795 0.02 0 0.8 0.02 0 0.805 0.02 0 0.81 0.02 0 0.815 0.02 0 0.82 0.02 0 0.825 0.02 0 0.83 0.02 0 0.835 0.02 0 0.84 0.02 0 0.845 0.02 0 0.85 0.02 0 0.855 0.02 0 0.86 0.02 0 0.865 0.02 0 0.87 0.02 0 0.875 0.02 0 0.88 0.02 0 0.885 0.02 0 0.89 0.02 0 0.895 0.02 0 0.9 0.02 0 0.905 0.02 0 0.91 0.02 0 0.915 0.02 0 0.92 0.02 0 0.925 0.02 0 0.93 0.02 0 0.935 0.02 0 0.94 0.02 0 0.945 0.02 0 0.95 0.02 0 0.955 0.02 0 0.96 0.02 0 0.965 0.02 0 0.97 0.02 0 0.975 0.02 0 0.98 0.02 0 0.985 0.02 0 0.99 0.02 0 0.995 0.02 0 1 0.02 0 0 0.04 0 0.005 0.04 0 0.01 0.04 0 0.015 0.04 0 0.02 0.04 0 0.025 0.04 0 0.03 0.04 0 0.035 0.04 0 0.04 0.04 0 0.045 0.04 0 0.05 0.04 0 0.055 0.04 0 0.06 0.04 0 0.065 0.04 0 0.07 0.04 0 0.075 0.04 0 0.08 0.04 0 0.085 0.04 0 0.09 0.04 0 0.095 0.04 0 0.1 0.04 0 0.105 0.04 0 0.11 0.04 0 0.115 0.04 0 0.12 0.04 0 0.125 0.04 0 0.13 0.04 0 0.135 0.04 0 0.14 0.04 0 0.145 0.04 0 0.15 0.04 0 0.155 0.04 0 0.16 0.04 0 0.165 0.04 0 0.17 0.04 0 0.175 0.04 0 0.18 0.04 0 0.185 0.04 0 0.19 0.04 0 0.195 0.04 0 0.2 0.04 0 0.205 0.04 0 0.21 0.04 0 0.215 0.04 0 0.22 0.04 0 0.225 0.04 0 0.23 0.04 0 0.235 0.04 0 0.24 0.04 0 0.245 0.04 0 0.25 0.04 0 0.255 0.04 0 0.26 0.04 0 0.265 0.04 0 0.27 0.04 0 0.275 0.04 0 0.28 0.04 0 0.285 0.04 0 0.29 0.04 0 0.295 0.04 0 0.3 0.04 0 0.305 0.04 0 0.31 0.04 0 0.315 0.04 0 0.32 0.04 0 0.325 0.04 0 0.33 0.04 0 0.335 0.04 0 0.34 0.04 0 0.345 0.04 0 0.35 0.04 0 0.355 0.04 0 0.36 0.04 0 0.365 0.04 0 0.37 0.04 0 0.375 0.04 0 0.38 0.04 0 0.385 0.04 0 0.39 0.04 0 0.395 0.04 0 0.4 0.04 0 0.405 0.04 0 0.41 0.04 0 0.415 0.04 0 0.42 0.04 0 0.425 0.04 0 0.43 0.04 0 0.435002 0.04 0 0.440009 0.04 0 0.445043 0.04 0 0.45016 0.04 0 0.455468 0.04 0 0.461116 0.04 0 0.467264 0.04 0 0.474086 0.04 0 0.481798 0.04 0 0.490693 0.04 0 0.501152 0.04 0 0.513308 0.04 0 0.525764 0.04 0 0.537783 0.04 0 0.540422 0.04 0 0.542986 0.04 0 0.545504 0.04 0 0.547992 0.04 0 0.55046 0.04 0 0.552912 0.04 0 0.555356 0.04 0 0.557802 0.04 0 0.560274 0.04 0 0.562788 0.04 0 0.565362 0.04 0 0.568075 0.04 0 0.570969 0.04 0 0.574138 0.04 0 0.577631 0.04 0 0.5815 0.04 0 0.585745 0.04 0 0.590314 0.04 0 0.595112 0.04 0 0.600035 0.04 0 0.60501 0.04 0 0.610003 0.04 0 0.615001 0.04 0 0.62 0.04 0 0.625 0.04 0 0.63 0.04 0 0.635 0.04 0 0.64 0.04 0 0.645 0.04 0 0.65 0.04 0 0.655 0.04 0 0.66 0.04 0 0.665 0.04 0 0.67 0.04 0 0.675 0.04 0 0.68 0.04 0 0.685 0.04 0 0.69 0.04 0 0.695 0.04 0 0.7 0.04 0 0.705 0.04 0 0.71 0.04 0 0.715 0.04 0 0.72 0.04 0 0.725 0.04 0 0.73 0.04 0 0.735 0.04 0 0.74 0.04 0 0.745 0.04 0 0.75 0.04 0 0.755 0.04 0 0.76 0.04 0 0.765 0.04 0 0.77 0.04 0 0.775 0.04 0 0.78 0.04 0 0.785 0.04 0 0.79 0.04 0 0.795 0.04 0 0.8 0.04 0 0.805 0.04 0 0.81 0.04 0 0.815 0.04 0 0.82 0.04 0 0.825 0.04 0 0.83 0.04 0 0.835 0.04 0 0.84 0.04 0 0.845 0.04 0 0.85 0.04 0 0.855 0.04 0 0.86 0.04 0 0.865 0.04 0 0.87 0.04 0 0.875 0.04 0 0.88 0.04 0 0.885 0.04 0 0.89 0.04 0 0.895 0.04 0 0.9 0.04 0 0.905 0.04 0 0.91 0.04 0 0.915 0.04 0 0.92 0.04 0 0.925 0.04 0 0.93 0.04 0 0.935 0.04 0 0.94 0.04 0 0.945 0.04 0 0.95 0.04 0 0.955 0.04 0 0.96 0.04 0 0.965 0.04 0 0.97 0.04 0 0.975 0.04 0 0.98 0.04 0 0.985 0.04 0 0.99 0.04 0 0.995 0.04 0 1 0.04 0 0 0.06 0 0.005 0.06 0 0.01 0.06 0 0.015 0.06 0 0.02 0.06 0 0.025 0.06 0 0.03 0.06 0 0.035 0.06 0 0.04 0.06 0 0.045 0.06 0 0.05 0.06 0 0.055 0.06 0 0.06 0.06 0 0.065 0.06 0 0.07 0.06 0 0.075 0.06 0 0.08 0.06 0 0.085 0.06 0 0.09 0.06 0 0.095 0.06 0 0.1 0.06 0 0.105 0.06 0 0.11 0.06 0 0.115 0.06 0 0.12 0.06 0 0.125 0.06 0 0.13 0.06 0 0.135 0.06 0 0.14 0.06 0 0.145 0.06 0 0.15 0.06 0 0.155 0.06 0 0.16 0.06 0 0.165 0.06 0 0.17 0.06 0 0.175 0.06 0 0.18 0.06 0 0.185 0.06 0 0.19 0.06 0 0.195 0.06 0 0.2 0.06 0 0.205 0.06 0 0.21 0.06 0 0.215 0.06 0 0.22 0.06 0 0.225 0.06 0 0.23 0.06 0 0.235 0.06 0 0.24 0.06 0 0.245 0.06 0 0.25 0.06 0 0.255 0.06 0 0.26 0.06 0 0.265 0.06 0 0.27 0.06 0 0.275 0.06 0 0.28 0.06 0 0.285 0.06 0 0.29 0.06 0 0.295 0.06 0 0.3 0.06 0 0.305 0.06 0 0.31 0.06 0 0.315 0.06 0 0.32 0.06 0 0.325 0.06 0 0.33 0.06 0 0.335 0.06 0 0.34 0.06 0 0.345 0.06 0 0.35 0.06 0 0.355 0.06 0 0.36 0.06 0 0.365 0.06 0 0.37 0.06 0 0.375 0.06 0 0.38 0.06 0 0.385 0.06 0 0.39 0.06 0 0.395 0.06 0 0.4 0.06 0 0.405 0.06 0 0.41 0.06 0 0.415 0.06 0 0.42 0.06 0 0.425 0.06 0 0.43 0.06 0 0.435002 0.06 0 0.440009 0.06 0 0.445043 0.06 0 0.45016 0.06 0 0.455468 0.06 0 0.461116 0.06 0 0.467264 0.06 0 0.474086 0.06 0 0.481798 0.06 0 0.490693 0.06 0 0.501152 0.06 0 0.513308 0.06 0 0.525764 0.06 0 0.537783 0.06 0 0.540422 0.06 0 0.542986 0.06 0 0.545504 0.06 0 0.547992 0.06 0 0.55046 0.06 0 0.552912 0.06 0 0.555356 0.06 0 0.557802 0.06 0 0.560274 0.06 0 0.562788 0.06 0 0.565362 0.06 0 0.568075 0.06 0 0.570969 0.06 0 0.574138 0.06 0 0.577631 0.06 0 0.5815 0.06 0 0.585745 0.06 0 0.590314 0.06 0 0.595112 0.06 0 0.600035 0.06 0 0.60501 0.06 0 0.610003 0.06 0 0.615001 0.06 0 0.62 0.06 0 0.625 0.06 0 0.63 0.06 0 0.635 0.06 0 0.64 0.06 0 0.645 0.06 0 0.65 0.06 0 0.655 0.06 0 0.66 0.06 0 0.665 0.06 0 0.67 0.06 0 0.675 0.06 0 0.68 0.06 0 0.685 0.06 0 0.69 0.06 0 0.695 0.06 0 0.7 0.06 0 0.705 0.06 0 0.71 0.06 0 0.715 0.06 0 0.72 0.06 0 0.725 0.06 0 0.73 0.06 0 0.735 0.06 0 0.74 0.06 0 0.745 0.06 0 0.75 0.06 0 0.755 0.06 0 0.76 0.06 0 0.765 0.06 0 0.77 0.06 0 0.775 0.06 0 0.78 0.06 0 0.785 0.06 0 0.79 0.06 0 0.795 0.06 0 0.8 0.06 0 0.805 0.06 0 0.81 0.06 0 0.815 0.06 0 0.82 0.06 0 0.825 0.06 0 0.83 0.06 0 0.835 0.06 0 0.84 0.06 0 0.845 0.06 0 0.85 0.06 0 0.855 0.06 0 0.86 0.06 0 0.865 0.06 0 0.87 0.06 0 0.875 0.06 0 0.88 0.06 0 0.885 0.06 0 0.89 0.06 0 0.895 0.06 0 0.9 0.06 0 0.905 0.06 0 0.91 0.06 0 0.915 0.06 0 0.92 0.06 0 0.925 0.06 0 0.93 0.06 0 0.935 0.06 0 0.94 0.06 0 0.945 0.06 0 0.95 0.06 0 0.955 0.06 0 0.96 0.06 0 0.965 0.06 0 
[...]
			<PointData Scalars="VitesseX">
				<DataArray Name="VitesseX" type="Float32" format="ascii">
 0 0 0 0 0 0 0 0 0 0 0 0 0 0 0 0 0 0 0 0 0 0 0 0 0 0 0 0 0 0 0 0 0 0 0 0 0 0 0 0 0 0 0 0 0 0 0 0 0 0 0 0 0 0 0 0 0 0 0 0 0 0 0 0 0 0 0 0 0 0 0 0 0 0 0 0 0 0 0 0 0 0 0 0 0 0 0 0 0 0 0 0 0 0 0 0 0 0 0 0 0 0 0 0 0 0 0 0 0 0 0 0 0 0 0 0 0 0 0 0 0 0 0 0 0 0 0 0 0 0 0 0 0 0 0 0 0 0 0 0 0 0 0 0 0 0 0 0 0 0 0 0 0 0 0 0 0 0 0 0 0 0 0 0 0 0 0 0 0 0 0 0 0 0 0 0 0 0 0 0 0 0 0 0 0 0 0 0 0 0 0 0 0 0 0 0 0 0 0 0 0 0 -9.11223e-16 -8.95377e-16 -6.93524e-16 -1.23821e-15 5.76127e-16 -1.39412e-15 5.62463e-15 2.01114e-15 -6.27114e-15 6.48549e-15 -1.02257e-14 -7.61507e-16 6.01811e-15 6.32306e-15 -4.23413e-15 -1.96804e-15 -2.54095e-15 4.53499e-15 -1.1684e-14 1.40679e-15 1.03288e-14 1.88761e-15 -2.29577e-16 -1.00288e-14 -1.14794e-15 2.67911e-14 6.0515e-16 -1.63295e-15 -3.78322e-15 7.98413e-15 -1.86426e-14 1.294e-14 -1.71265e-15 -1.21834e-14 -2.42082e-15 4.33454e-15 -3.63766e-15 9.70388e-15 -4.904e-15 -2.02907e-14 1.51443e-14 -1.37479e-14 -3.82088e-15 8.7325e-16 2.02012e-14 -1.0737e-14 2.21654e-14 -3.03841e-14 2.87408e-14 -2.03754e-14 3.39389e-14 3.72599e-14 -3.54496e-14 2.8039e-14 -1.93573e-14 -1.56469e-14 3.66579e-14 -4.10693e-14 5.44114e-14 -5.58728e-14 3.32348e-14 5.94784e-15 -1.31504e-14 4.32587e-14 -4.56683e-14 4.64907e-14 -1.14992e-14 -1.21849e-14 -6.50233e-15 3.25817e-14 -2.31542e-14 4.57894e-14 -3.4645e-14 4.83713e-14 -1.581e-15 -4.14062e-14 4.78061e-14 1.62049e-13 2.86695e-12 5.23873e-11 8.39903e-10 1.18752e-08 1.46896e-07 1.57308e-06 1.43973e-05 0.000110804 0.000702272 0.00356949 0.0141235 0.0425838 0.0985144 0.182748 0.289706 0.415282 0.558901 0.720486 0.889619 0.99183 0.947517 0.932162 0.929912 0.926968 0.923329 0.919361 0.915214 0.913592 0.912771 0.913229 0.898432 0.892324 0.835145 0.800785 0.69886 0.602994 0.468488 0.332601 0.203604 0.103662 0.0426741 0.0146249 0.00445 0.00126069 0.000339447 8.74349e-05 2.15772e-05 5.10212e-06 1.15586e-06 2.50879e-07 5.21779e-08 1.04013e-08 1.98796e-09 3.64392e-10 6.41626e-11 1.07591e-11 1.80766e-12 1.96466e-13 8.43375e-14 6.79084e-15 -3.15219e-15 1.11963e-14 -1.0277e-14 -2.24454e-14 4.66977e-14 4.75206e-14 -4.72201e-14 -3.63535e-14 5.9917e-14 -3.8671e-14 2.48641e-14 -1.01032e-14 3.14104e-14 -2.01962e-14 7.91712e-14 -1.70018e-14 4.05867e-14 1.84404e-14 4.59215e-14 -1.90809e-14 6.21164e-14 -5.27766e-16 -5.51917e-14 4.22278e-16 -9.5371e-14 -4.67385e-14 6.18656e-14 -5.40139e-14 5.4216e-14 9.79092e-14 -8.6572e-14 2.69134e-14 -1.49087e-15 -6.76402e-14 -4.88922e-14 6.8369e-14 3.14808e-14 -1.0199e-13 -7.87496e-15 -3.63703e-14 -6.97098e-14 1.23868e-13 -8.16193e-14 5.75904e-14 6.90727e-14 -1.2451e-13 5.99472e-14 -1.98993e-16 -4.14107e-14 -6.43399e-14 2.36459e-14 2.26445e-14 -1.78457e-14 -1.09699e-13 1.01634e-14 -3.00079e-14 4.4357e-14 -7.7916e-16 -3.22593e-14 2.43462e-14 -5.34274e-14 0 0 4.28547e-16 -1.46277e-15 -1.3674e-15 -1.64689e-15 3.208e-15 -1.17439e-15 -3.49829e-15 5.61617e-15 -3.58744e-15 7.71452e-15 -1.47611e-15 -2.0682e-15 6.61119e-15 -5.71017e-15 1.11686e-14 -2.93086e-15 -1.10372e-14 -3.89968e-16 1.37617e-14 -9.96042e-15 1.17594e-15 6.98288e-16 -1.29879e-14 6.07064e-15 1.24583e-14 1.94727e-14 2.0801e-15 2.16882e-15 1.2182e-14 -1.18504e-14 -1.56831e-14 6.78551e-15 -2.46566e-14 1.88908e-14 -7.68253e-15 -2.41005e-14 1.9413e-14 1.87442e-14 -1.81536e-14 -1.3866e-14 -1.14133e-16 1.501e-14 -1.13522e-14 -1.40768e-14 1.08565e-14 -1.72403e-14 3.03359e-14 -1.56668e-15 1.86186e-14 2.33058e-14 5.49821e-15 -1.1467e-14 3.98817e-14 3.52079e-16 -1.14915e-14 -2.46451e-14 2.05098e-14 -9.13788e-15 3.22832e-14 -3.58403e-14 4.23562e-14 -2.57616e-14 3.38147e-14 1.85528e-15 -4.84886e-14 4.57757e-14 3.67205e-14 -9.70194e-15 -1.04886e-14 -4.83984e-15 -5.84466e-14 5.01772e-14 -4.81903e-14 6.17198e-14 1.25677e-15 -2.36215e-14 4.20978e-14 1.80154e-13 2.86357e-12 5.23898e-11 8.39874e-10 1.18753e-08 1.46895e-07 1.57308e-06 1.43973e-05 0.000110804 0.000702272 0.00356949 0.0141235 0.0425838 0.0985144 0.182748 0.289706 0.415282 0.558901 0.720486 0.889619 0.99183 0.947517 0.932162 0.929912 0.926968 0.923329 0.919361 0.915214 0.913592 0.912771 0.913229 0.898432 0.892324 0.835145 0.800785 0.69886 0.602994 0.468488 0.332601 0.203604 0.103662 0.0426741 0.0146249 0.00445 0.00126069 0.000339447 8.74349e-05 2.15772e-05 5.10212e-06 1.15586e-06 2.50879e-07 5.2178e-08 1.04013e-08 1.988e-09 3.64352e-10 6.41651e-11 1.07792e-11 1.77661e-12 2.90398e-13 -4.07744e-14 9.47688e-14 -1.84295e-14 -6.3286e-14 1.57112e-14 8.97009e-14 9.85422e-15 2.58016e-15 -2.97271e-14 8.42801e-14 -9.21681e-14 2.28106e-14 -1.97478e-14 -7.04116e-14 8.00667e-14 6.63227e-14 4.74104e-14 5.32397e-14 -9.53648e-14 5.52208e-14 5.20867e-14 -1.41512e-13 1.38807e-13 1.64809e-15 1.7715e-14 4.02746e-14 -2.30594e-13 -4.89162e-14 1.2098e-13 -1.12424e-13 1.19329e-13 1.4061e-13 -1.69942e-14 -6.48371e-14 5.63701e-15 -7.50892e-14 -7.87919e-14 9.79333e-14 3.2298e-14 -8.13681e-14 -9.79346e-14 -1.5885e-14 4.36228e-14 -1.69488e-15 1.14299e-14 8.60415e-14 8.75962e-15 -4.62017e-14 -1.03931e-13 6.23224e-14 -3.34059e-15 -4.68655e-14 -2.27623e-14 -3.69745e-14 1.49263e-15 -1.0739e-13 -1.45637e-14 -6.60493e-14 1.53535e-14 5.25399e-14 -9.23995e-15 -3.80892e-14 -2.24465e-14 0 0 -1.15943e-16 1.65962e-15 4.88512e-16 5.25367e-16 -2.62363e-15 3.79668e-16 -3.20842e-15 2.60562e-15 3.52244e-15 -2.64244e-15 4.21827e-15 -2.466e-16 3.92657e-15 -2.32839e-15 -1.02018e-15 4.23315e-15 -2.9042e-15 1.69616e-15 1.4937e-14 2.71673e-15 -1.66814e-14 -5.94522e-15 -2.66617e-15 -5.17302e-17 1.74382e-14 2.2885e-14 1.19567e-14 -1.93485e-15 1.74199e-15 -9.27524e-15 -7.05663e-15 -5.2643e-15 6.22561e-15 -4.80163e-15 -2.71604e-14 -1.70392e-14 2.40264e-14 -5.96286e-15 -6.1021e-15 -8.08161e-16 4.80191e-15 -7.30993e-15 1.52766e-14 6.06544e-15 -1.38346e-14 7.94517e-15 -1.82281e-15 2.32972e-14 6.53291e-15 3.0929e-14 -2.56751e-14 -5.92779e-14 8.29053e-14 3.48753e-15 1.16661e-14 5.22768e-14 -7.16626e-14 1.97871e-14 -3.69794e-14 5.01787e-14 -1.85727e-14 2.56357e-14 -1.3821e-14 -2.28302e-14 5.56916e-14 9.50564e-15 2.85363e-14 2.72635e-14 -4.95161e-14 -1.98052e-14 -3.82436e-14 1.55916e-14 3.24225e-14 -2.33822e-14 -8.14951e-15 2.88244e-14 1.76606e-14 2.1626e-13 2.86085e-12 5.23577e-11 8.39903e-10 1.18753e-08 1.46895e-07 1.57308e-06 1.43973e-05 0.000110804 0.000702272 0.00356949 0.0141235 0.0425838 0.0985144 0.182748 0.289706 0.415282 0.558901 0.720486 0.889619 0.99183 0.947517 0.932162 0.929912 0.926968 0.923329 0.919361 0.915214 0.913592 0.912771 0.913229 0.898432 0.892324 0.835145 0.800785 0.69886 0.602994 0.468488 0.332601 0.203604 0.103662 0.0426741 0.0146249 0.00445 0.00126069 0.000339447 8.74349e-05 2.15772e-05 5.10212e-06 1.15586e-06 2.50879e-07 5.21779e-08 1.04013e-08 1.98796e-09 3.64393e-10 6.41094e-11 1.09004e-11 1.72374e-12 3.29106e-13 -8.39274e-14 7.85178e-15 7.00408e-14 -8.77353e-14 -2.71471e-15 2.15399e-13 -8.6537e-14 7.64696e-14 7.83322e-14 -1.18573e-13 -9.3676e-14 1.04553e-13 -8.13041e-14 -2.08771e-14 3.39582e-14 1.03978e-13 -5.35639e-14 1.63046e-13 -9.11208e-14 -5.99977e-14 1.07854e-15 3.29688e-14 2.08885e-13 -6.18674e-14 1.14807e-13 -7.88619e-14 -1.67244e-13 2.7326e-14 -6.74892e-14 1.19963e-13 -1.67971e-14 3.13065e-14 9.66377e-14 -1.67099e-13 6.14038e-14 6.20173e-14 -1.66345e-13 7.67144e-14 2.50679e-14 -1.22619e-13 -9.05256e-14 5.236e-14 1.54928e-13 -2.13428e-13 1.22649e-13 7.59807e-14 1.29512e-14 -1.46517e-13 1.68316e-14 -1.3317e-13 2.94731e-14 -6.75064e-14 -3.89325e-14 -9.59888e-14 2.32138e-14 3.26302e-14 -1.45854e-13 4.17998e-14 -3.86165e-14 9.20119e-14 -1.99925e-14 7.77381e-14 -6.58291e-14 0 0 -2.5351e-16 4.33711e-15 2.66816e-15 1.76383e-16 -3.22271e-15 -1.59598e-16 1.82671e-18 -1.9883e-15 9.23725e-15 -1.76938e-15 -4.96363e-15 -4.64066e-15 1.18113e-14 9.682e-15 -1.0012e-14 9.64793e-15 1.0929e-14 5.54058e-15 -4.40854e-15 -4.46912e-15 -1.07705e-14 -1.74815e-14 9.21277e-15 5.08294e-15 5.86702e-15 1.94038e-14 2.01356e-14 -2.62227e-14 -5.63665e-15 1.41483e-14 -1.66436e-14 5.08108e-15 2.88273e-14 -4.66793e-14 6.36664e-15 -6.98272e-15 4.79798e-15 -2.25963e-14 4.09374e-15 3.17521e-15 2.0653e-14 -1.71709e-14 2.60956e-14 2.64274e-14 -5.33045e-15 -1.60317e-15 3.79417e-15 -1.93794e-14 1.31047e-14 -3.07279e-14 2.15404e-14 6.68526e-16 -3.05217e-14 6.25313e-14 1.30898e-14 2.90687e-14 4.57616e-16 -2.69873e-14 -3.14824e-14 2.71269e-14 4.21046e-15 1.57456e-14 1.08894e-14 -5.40677e-15 1.90898e-14 8.70048e-16 1.72476e-14 -1.02521e-14 -1.97602e-14 -1.11882e-14 4.2308e-14 3.0124e-14 -1.05036e-14 -4.53214e-14 5.09323e-14 1.53635e-14 -2.32691e-14 2.08593e-13 2.879e-12 5.2255e-11 8.39962e-10 1.18752e-08 1.46895e-07 1.57308e-06 1.43973e-05 0.000110804 0.000702272 0.00356949 0.0141235 0.0425838 0.0985144 0.182748 0.289706 0.415282 0.558901 0.720486 0.889619 0.99183 0.947517 0.932162 0.929912 0.926968 0.923329 0.919361 0.915214 0.913592 0.912771 0.913229 0.898432 0.892324 0.835145 0.800785 0.69886 0.602994 0.468488 0.332601 0.203604 0.103662 0.0426741 0.0146249 0.00445 0.00126069 0.000339447 8.74349e-05 2.15772e-05 5.10212e-06 1.15586e-06 2.50879e-07 5.21778e-08 1.04013e-08 1.98799e-09 3.64398e-10 6.41414e-11 1.08021e-11 1.87488e-12 2.4021e-13 -1.67812e-14 -4.70225e-14 1.5992e-13 -7.114e-14 -1.22916e-13 1.27981e-13 6.49304e-14 6.46489e-14 9.34468e-14 -2.17205e-13 9.8233e-17 -8.75651e-15 6.00559e-14 1.56052e-14 -7.76044e-14 -6.23808e-14 2.01384e-14 9.68032e-14 -1.85238e-14 -4.52371e-15 -2.58307e-14 3.15048e-13 1.47295e-13 2.93112e-14 -4.91863e-14 -6.47177e-14 -1.35409e-13 1.46037e-14 -5.28653e-14 1.58653e-14 1.67116e-14 -1.27855e-13 8.88033e-14 2.88296e-14 1.42352e-13 -1.19335e-13 -5.40795e-14 -7.6407e-14 1.21582e-13 -2.6753e-13 2.33272e-14 1.14912e-13 -1.12747e-13 1.57097e-14 2.65314e-14 2.26435e-13 -9.96775e-14 -2.38048e-13 5.83018e-14 -9.61065e-14 9.11386e-14 -1.13263e-13 4.01611e-14 -1.04082e-13 -5.62362e-14 -2.92886e-14 -3.52899e-14 6.04316e-14 -3.29123e-14 -2.21053e-14 -9.27987e-14 1.54429e-13 -4.83612e-14 0 0 0 0 0 0 0 0 0 0 0 0 0 0 0 0 0 0 0 0 0 0 0 0 0 0 0 0 0 0 0 0 0 0 0 0 0 0 0 0 0 0 0 0 0 0 0 0 0 0 0 0 0 0 0 0 0 0 0 0 0 0 0 0 0 0 0 0 0 0 0 0 0 0 0 0 0 0 0 0 0 0 0 0 0 0 0 0 0 0 0 0 0 0 0 0 0 0 0 0 0 0 0 0 0 0 0 0 0 0 0 0 0 0 0 0 0 0 0 0 0 0 0 0 0 0 0 0 0 0 0 0 0 0 0 0 0 0 0 0 0 0 0 0 0 0 0 0 0 0 0 0 0 0 0 0 0 0 0 0 0 0 0 0 0 0 0 0 0 0 0 0 0 0 0 0 0 0 0 0 0 0 0 0 0 0 0 0 0 0 0 0 0 0 0 0 0 0 0 0 0 0
				</DataArray>
				<DataArray Name="VitesseY" type="Float32" format="ascii">