<?xml version="1.0"?>
<VTKFile type="PolyData">
	<PolyData>
		<Piece NumberOfPoints="1206" NumberOfPolys="1000">
			<Points>
				<DataArray type="Float32" NumberOfComponents="3" format="ascii">
 0 0 0 0.005 0 0 0.01 0 0 0.015 0 0 0.02 0 0 0.025 0 0 0.03 0 0 0.035 0 0 0.04 0 0 0.045 0 0 0.05 0 0 0.055 0 0 0.06 0 0 0.065 0 0 0.07 0 0 0.075 0 0 0.08 0 0 0.085 0 0 0.09 0 0 0.095 0 0 0.1 0 0 0.105 0 0 0.11 0 0 0.115 0 0 0.12 0 0 0.125 0 0 0.13 0 0 0.135 0 0 0.14 0 0 0.145 0 0 0.15 0 0 0.155 0 0 0.16 0 0 0.165 0 0 0.17 0 0 0.175 0 0 0.18 0 0 0.185 0 0 0.19 0 0 0.195 0 0 0.2 0 0 0.205 0 0 0.21 0 0 0.215 0 0 0.22 0 0 0.225 0 0 0.23 0 0 0.235 0 0 0.24 0 0 0.245 0 0 0.250001 0 0 0.255002 0 0 0.260006 0 0 0.265017 0 0 0.270039 0 0 0.275085 0 0 0.280166 0 0 0.285301 0 0 0.290504 0 0 0.295788 0 0 0.301166 0 0 0.306645 0 0 0.312234 0 0 0.31794 0 0 0.32377 0 0 0.329731 0 0 0.33583 0 0 0.342076 0 0 0.348476 0 0 0.355041 0 0 0.361779 0 0 0.368702 0 0 0.375821 0 0 0.383149 0 0 0.3907 0 0 0.398489 0 0 0.406534 0 0 0.414853 0 0 0.423467 0 0 0.432399 0 0 0.441675 0 0 0.451322 0 0 0.46137 0 0 0.471851 0 0 0.48279 0 0 0.494202 0 0 0.506052 0 0 0.518175 0 0 0.530274 0 0 0.542284 0 0 0.554199 0 0 0.566036 0 0 0.57782 0 0 0.589573 0 0 0.601312 0 0 0.613043 0 0 0.624773 0 0 0.636501 0 0 0.648229 0 0 0.65996 0 0 0.671704 0 0 0.674314 0 0 0.67685 0 0 0.679341 0 0 0.681801 0 0 0.68424 0 0 0.686663 0 0 0.689076 0 0 0.691487 0 0 0.693898 0 0 0.696295 0 0 0.698681 0 0 0.701062 0 0 0.70344 0 0 0.705817 0 0 0.708194 0 0 0.710567 0 0 0.712937 0 0 0.715305 0 0 0.717673 0 0 0.72004 0 0 0.722405 0 0 0.724769 0 0 0.727132 0 0 0.729495 0 0 0.731858 0 0 0.734219 0 0 0.73658 0 0 0.738941 0 0 0.741302 0 0 0.743665 0 0 0.746027 0 0 0.748387 0 0 0.750747 0 0 0.753108 0 0 0.755469 0 0 0.757829 0 0 0.76019 0 0 0.762549 0 0 0.76491 0 0 0.767272 0 0 0.769631 0 0 0.77199 0 0 0.774349 0 0 0.776709 0 0 0.77907 0 0 0.781432 0 0 0.783793 0 0 0.786154 0 0 0.788516 0 0 0.790878 0 0 0.793239 0 0 0.795602 0 0 0.797966 0 0 0.800329 0 0 0.802698 0 0 0.805066 0 0 0.807433 0 0 0.809808 0 0 0.812212 0 0 0.814676 0 0 0.817211 0 0 0.819869 0 0 0.82266 0 0 0.825673 0 0 0.828943 0 0 0.832541 0 0 0.836488 0 0 0.84078 0 0 0.845363 0 0 0.850151 0 0 0.855059 0 0 0.860022 0 0 0.865008 0 0 0.870003 0 0 0.875001 0 0 0.88 0 0 0.885 0 0 0.89 0 0 0.895 0 0 0.9 0 0 0.905 0 0 0.91 0 0 0.915 0 0 0.92 0 0 0.925 0 0 0.93 0 0 0.935 0 0 0.94 0 0 0.945 0 0 0.95 0 0 0.955 0 0 0.96 0 0 0.965 0 0 0.97 0 0 0.975 0 0 0.98 0 0 0.985 0 0 0.99 0 0 0.995 0 0 1 0 0 0 0.02 0 0.005 0.02 0 0.01 0.02 0 0.015 0.02 0 0.02 0.02 0 0.025 0.02 0 0.03 0.02 0 0.035 0.02 0 0.04 0.02 0 0.045 0.02 0 0.05 0.02 0 0.055 0.02 0 0.06 0.02 0 0.065 0.02 0 0.07 0.02 0 0.075 0.02 0 0.08 0.02 0 0.085 0.02 0 0.09 0.02 0 0.095 0.02 0 0.1 0.02 0 0.105 0.02 0 0.11 0.02 0 0.115 0.02 0 0.12 0.02 0 0.125 0.02 0 0.13 0.02 0 0.135 0.02 0 0.14 0.02 0 0.145 0.02 0 0.15 0.02 0 0.155 0.02 0 0.16 0.02 0 0.165 0.02 0 0.17 0.02 0 0.175 0.02 0 0.18 0.02 0 0.185 0.02 0 0.19 0.02 0 0.195 0.02 0 0.2 0.02 0 0.205 0.02 0 0.21 0.02 0 0.215 0.02 0 0.22 0.02 0 0.225 0.02 0 0.23 0.02 0 0.235 0.02 0 0.24 0.02 0 0.245 0.02 0 0.250001 0.02 0 0.255002 0.02 0 0.260006 0.02 0 0.265017 0.02 0 0.270039 0.02 0 0.275085 0.02 0 0.280166 0.02 0 0.285301 0.02 0 0.290504 0.02 0 0.295788 0.02 0 0.301166 0.02 0 0.306645 0.02 0 0.312234 0.02 0 0.31794 0.02 0 0.32377 0.02 0 0.329731 0.02 0 0.33583 0.02 0 0.342076 0.02 0 0.348476 0.02 0 0.355041 0.02 0 0.361779 0.02 0 0.368702 0.02 0 0.375821 0.02 0 0.383149 0.02 0 0.3907 0.02 0 0.398489 0.02 0 0.406534 0.02 0 0.414853 0.02 0 0.423467 0.02 0 0.432399 0.02 0 0.441675 0.02 0 0.451322 0.02 0 0.46137 0.02 0 0.471851 0.02 0 0.48279 0.02 0 0.494202 0.02 0 0.506052 0.02 0 0.518175 0.02 0 0.530274 0.02 0 0.542284 0.02 0 0.554199 0.02 0 0.566036 0.02 0 0.57782 0.02 0 0.589573 0.02 0 0.601312 0.02 0 0.613043 0.02 0 0.624773 0.02 0 0.636501 0.02 0 0.648229 0.02 0 0.65996 0.02 0 0.671704 0.02 0 0.674314 0.02 0 0.67685 0.02 0 0.679341 0.02 0 0.681801 0.02 0 0.68424 0.02 0 0.686663 0.02 0 0.689076 0.02 0 0.691487 0.02 0 0.693898 0.02 0 0.696295 0.02 0 0.698681 0.02 0 0.701062 0.02 0 0.70344 0.02 0 0.705817 0.02 0 0.708194 0.02 0 0.710567 0.02 0 0.712937 0.02 0 0.715305 0.02 0 0.717673 0.02 0 0.72004 0.02 0 0.722405 0.02 0 0.724769 0.02 0 0.727132 0.02 0 0.729495 0.02 0 0.731858 0.02 0 0.734219 0.02 0 0.73658 0.02 0 0.738941 0.02 0 0.741302 0.02 0 0.743665 0.02 0 0.746027 0.02 0 0.748387 0.02 0 0.750747 0.02 0 0.753108 0.02 0 0.755469 0.02 0 0.757829 0.02 0 0.76019 0.02 0 0.762549 0.02 0 0.76491 0.02 0 0.767272 0.02 0 0.769631 0.02 0 0.77199 0.02 0 0.774349 0.02 0 0.776709 0.02 0 0.77907 0.02 0 0.781432 0.02 0 0.783793 0.02 0 0.786154 0.02 0 0.788516 0.02 0 0.790878 0.02 0 0.793239 0.02 0 0.795602 0.02 0 0.797966 0.02 0 0.800329 0.02 0 0.802698 0.02 0 0.805066 0.02 0 0.807433 0.02 0 0.809808 0.02 0 0.812212 0.02 0 0.814676 0.02 0 0.817211 0.02 0 0.819869 0.02 0 0.82266 0.02 0 0.825673 0.02 0 0.828943 0.02 0 0.832541 0.02 0 0.836488 0.02 0 0.84078 0.02 0 0.845363 0.02 0 0.850151 0.02 0 0.855059 0.02 0 0.860022 0.02 0 0.865008 0.02 0 0.870003 0.02 0 0.875001 0.02 0 0.88 0.02 0 0.885 0.02 0 0.89 0.02 0 0.895 0.02 0 0.9 0.02 0 0.905 0.02 0 0.91 0.02 0 0.915 0.02 0 0.92 0.02 0 0.925 0.02 0 0.93 0.02 0 0.935 0.02 0 0.94 0.02 0 0.945 0.02 0 0.95 0.02 0 0.955 0.02 0 0.96 0.02 0 0.965 0.02 0 0.97 0.02 0 0.975 0.02 0 0.98 0.02 0 0.985 0.02 0 0.99 0.02 0 0.995 0.02 0 1 0.02 0 0 0.04 0 0.005 0.04 0 0.01 0.04 0 0.015 0.04 0 0.02 0.04 0 0.025 0.04 0 0.03 0.04 0 0.035 0.04 0 0.04 0.04 0 0.045 0.04 0 0.05 0.04 0 0.055 0.04 0 0.06 0.04 0 0.065 0.04 0 0.07 0.04 0 0.075 0.04 0 0.08 0.04 0 0.085 0.04 0 0.09 0.04 0 0.095 0.04 0 0.1 0.04 0 0.105 0.04 0 0.11 0.04 0 0.115 0.04 0 0.12 0.04 0 0.125 0.04 0 0.13 0.04 0 0.135 0.04 0 0.14 0.04 0 0.145 0.04 0 0.15 0.04 0 0.155 0.04 0 0.16 0.04 0 0.165 0.04 0 0.17 0.04 0 0.175 0.04 0 0.18 0.04 0 0.185 0.04 0 0.19 0.04 0 0.195 0.04 0 0.2 0.04 0 0.205 0.04 0 0.21 0.04 0 0.215 0.04 0 0.22 0.04 0 0.225 0.04 0 0.23 0.04 0 0.235 0.04 0 0.24 0.04 0 0.245 0.04 0 0.250001 0.04 0 0.255002 0.04 0 0.260006 0.04 0 0.265017 0.04 0 0.270039 0.04 0 0.275085 0.04 0 0.280166 0.04 0 0.285301 0.04 0 0.290504 0.04 0 0.295788 0.04 0 0.301166 0.04 0 0.306645 0.04 0 0.312234 0.04 0 0.31794 0.04 0 0.32377 0.04 0 0.329731 0.04 0 0.33583 0.04 0 0.342076 0.04 0 0.348476 0.04 0 0.355041 0.04 0 0.361779 0.04 0 0.368702 0.04 0 0.375821 0.04 0 0.383149 0.04 0 0.3907 0.04 0 0.398489 0.04 0 0.406534 0.04 0 0.414853 0.04 0 0.423467 0.04 0 0.432399 0.04 0 0.441675 0.04 0 0.451322 0.04 0 0.46137 0.04 0 0.471851 0.04 0 0.48279 0.04 0 0.494202 0.04 0 0.506052 0.04 0 0.518175 0.04 0 0.530274 0.04 0 0.542284 0.04 0 0.554199 0.04 0 0.566036 0.04 0 0.57782 0.04 0 0.589573 0.04 0 0.601312 0.04 0 0.613043 0.04 0 0.624773 0.04 0 0.636501 0.04 0 0.648229 0.04 0 0.65996 0.04 0 0.671704 0.04 0 0.674314 0.04 0 0.67685 0.04 0 0.679341 0.04 0 0.681801 0.04 0 0.68424 0.04 0 0.686663 0.04 0 0.689076 0.04 0 0.691487 0.04 0 0.693898 0.04 0 0.696295 0.04 0 0.698681 0.04 0 0.701062 0.04 0 0.70344 0.04 0 0.705817 0.04 0 0.708194 0.04 0 0.710567 0.04 0 0.712937 0.04 0 0.715305 0.04 0 0.717673 0.04 0 0.72004 0.04 0 0.722405 0.04 0 0.724769 0.04 0 0.727132 0.04 0 0.729495 0.04 0 0.731858 0.04 0 0.734219 0.04 0 0.73658 0.04 0 0.738941 0.04 0 0.741302 0.04 0 0.743665 0.04 0 0.746027 0.04 0 0.748387 0.04 0 0.750747 0.04 0 0.753108 0.04 0 0.755469 0.04 0 0.757829 0.04 0 0.76019 0.04 0 0.762549 0.04 0 0.76491 0.04 0 0.767272 0.04 0 0.769631 0.04 0 0.77199 0.04 0 0.774349 0.04 0 0.776709 0.04 0 0.77907 0.04 0 0.781432 0.04 0 0.783793 0.04 0 0.786154 0.04 0 0.788516 0.04 0 0.790878 0.04 0 0.793239 0.04 0 0.795602 0.04 0 0.797966 0.04 0 0.800329 0.04 0 0.802698 0.04 0 0.805066 0.04 0 0.807433 0.04 0 0.809808 0.04 0 0.812212 0.04 0 0.814676 0.04 0 0.817211 0.04 0 0.819869 0.04 0 0.82266 0.04 0 0.825673 0.04 0 0.828943 0.04 0 0.832541 0.04 0 0.836488 0.04 0 0.84078 0.04 0 0.845363 0.04 0 0.850151 0.04 0 0.855059 0.04 0 0.860022 0.04 0 0.865008 0.04 0 0.870003 0.04 0 0.875001 0.04 0 0.88 0.04 0 0.885 0.04 0 0.89 0.04 0 0.895 0.04 0 0.9 0.04 0 0.905 0.04 0 0.91 0.04 0 0.915 0.04 0 0.92 0.04 0 0.925 0.04 0 0.93 0.04 0 0.935 0.04 0 0.94 0.04 0 0.945 0.04 0 0.95 0.04 0 0.955 0.04 0 0.96 0.04 0 0.965 0.04 0 0.97 0.04 0 0.975 0.04 0 0.98 0.04 0 0.985 0.04 0 0.99 0.04 0 0.995 0.04 0 1 0.04 0 0 0.06 0 0.005 0.06 0 0.01 0.06 0 0.015 0.06 0 0.02 0.06 0 0.025 0.06 0 0.03 0.06 0 0.035 0.06 0 0.04 0.06 0 0.045 0.06 0 0.05 0.06 0 0.055 0.06 0 0.06 0.06 0 0.065 0.06 0 0.07 0.06 0 0.075 0.06 0 0.08 0.06 0 0.085 0.06 0 0.09 0.06 0 0.095 0.06 0 0.1 0.06 0 0.105 0.06 0 0.11 0.06 0 0.115 0.06 0 0.12 0.06 0 0.125 0.06 0 0.13 0.06 0 0.135 0.06 0 0.14 0.06 0 0.145 0.06 0 0.15 0.06 0 0.155 0.06 0 0.16 0.06 0 0.165 0.06 0 0.17 0.06 0 0.175 0.06 0 0.18 0.06 0 0.185 0.06 0 0.19 0.06 0 0.195 0.06 0 0.2 0.06 0 0.205 0.06 0 0.21 0.06 0 0.215 0.06 0 0.22 0.06 0 0.225 0.06 0 0.23 0.06 0 0.235 0.06 0 0.24 0.06 0 0.245 0.06 0 0.250001 0.06 0 0.255002 0.06 0 0.260006 0.06 0 0.265017 0.06 0 0.270039 0.06 0 0.275085 0.06 0 0.280166 0.06 0 0.285301 0.06 0 0.290504 0.06 0 0.295788 0.06 0 0.301166 0.06 0 0.306645 0.06 0 0.312234 0.06 0 0.31794 0.06 0 0.32377 0.06 0 0.329731 0.06 0 0.33583 0.06 0 0.342076 0.06 0 0.348476 0.06 0 0.355041 0.06 0 0.361779 0.06 0 0.368702 0.06 0 0.375821 0.06 0 0.383149 0.06 0 0.3907 0.06 0 0.398489 0.06 0 0.406534 0.06 0 0.414853 0.06 0 0.423467 0.06 0 0.432399 0.06 0 0.441675 0.06 0 0.451322 0.06 0 0.46137 0.06 0 0.471851 0.06 0 0.48279 0.06 0 0.494202 0.06 0 0.506052 0.06 0 0.518175 0.06 0 0.530274 0.06 0 0.542284 0.06 0 0.554199 0.06 0 0.566036 0.06 0 0.57782 0.06 0 0.589573 0.06 0 0.601312 0.06 0 0.613043 0.06 0 0.624773 0.06 0 0.636501 0.06 0 0.648229 0.06 0 0.65996 0.06 0 0.671704 0.06 0 0.674314 0.06 0 0.67685 0.06 0 0.679341 0.06 0 0.681801 0.06 0 0.68424 0.06 0 0.686663 0.06 0 0.689076 0.06 0 0.691487 0.06 0 0.693898 0.06 0 0.696295 0.06 0 0.698681 0.06 0 0.701062 0.06 0 0.70344 0.06 0 0.70
[...]
			<PointData Scalars="VitesseX">
				<DataArray Name="VitesseX" type="Float32" format="ascii">
 0 5.39594e-16 -2.95914e-16 1.83727e-15 -3.08227e-15 -4.16905e-16 1.87141e-16 5.45284e-15 5.80655e-15 -4.4073e-15 2.43737e-15 -5.08657e-15 9.97701e-15 -6.60523e-15 1.19116e-14 -1.66108e-15 1.60113e-14 1.6906e-14 1.37623e-14 -8.23178e-16 1.26709e-14 1.55994e-14 -6.05868e-15 2.80522e-14 5.86265e-16 2.46876e-14 2.04946e-14 1.9549e-14 3.67479e-15 2.86541e-14 3.10672e-14 3.02782e-14 3.09805e-14 4.65291e-14 4.66252e-14 5.32101e-14 1.21697e-13 6.47882e-13 3.97658e-12 2.36802e-11 1.33728e-10 7.21098e-10 3.69179e-09 1.79164e-08 8.22348e-08 3.56097e-07 1.45064e-06 5.54143e-06 1.97757e-05 6.56443e-05 0.000201651 0.000569878 0.00147197 0.00345213 0.00731119 0.0139496 0.0240373 0.0377114 0.054557 0.0738732 0.094985 0.117404 0.140835 0.165121 0.190182 0.215986 0.242522 0.269797 0.297827 0.326637 0.356256 0.38672 0.41807 0.45035 0.483611 0.517904 0.553287 0.589818 0.627551 0.666536 0.706801 0.748331 0.791012 0.834506 0.877929 0.918972 0.951449 0.960447 0.95215 0.944364 0.93744 0.932485 0.929551 0.928055 0.927358 0.927027 0.926848 0.926745 0.926682 0.926605 0.926518 0.926637 0.92665 0.926643 0.926635 0.926625 0.926616 0.926607 0.926603 0.926603 0.926645 0.926792 0.926798 0.926756 0.926703 0.926639 0.926587 0.926531 0.926485 0.926443 0.926408 0.926377 0.926349 0.926322 0.926299 0.926283 0.926274 0.926276 0.926359 0.926507 0.926408 0.926361 0.926307 0.926236 0.926185 0.926127 0.926067 0.925973 0.925853 0.925716 0.925596 0.925531 0.925557 0.926036 0.926099 0.925998 0.925924 0.925844 0.926076 0.926126 0.925785 0.92492 0.924513 0.924361 0.926632 0.929932 0.925883 0.915154 0.916926 0.893268 0.886008 0.830914 0.812567 0.717976 0.655456 0.5358 0.420936 0.295216 0.183678 0.0980841 0.0449984 0.0183425 0.00698709 0.00258057 0.000941322 0.0003417 0.000123775 4.47799e-05 1.61826e-05 5.84065e-06 2.10471e-06 7.5698e-07 2.71623e-07 9.7196e-08 3.46683e-08 1.232e-08 4.3599e-09 1.53567e-09 5.38133e-10 1.87447e-10 6.50805e-11 2.22882e-11 7.62517e-12 2.61592e-12 8.94544e-13 2.65948e-13 1.72509e-13 5.88595e-14 2.91238e-14 6.93744e-15 0 0 6.35682e-16 1.11351e-15 -1.35653e-15 6.92385e-16 3.67345e-15 -2.5963e-15 4.19483e-15 5.69711e-15 4.32902e-15 1.46774e-15 6.21322e-15 -9.81042e-15 1.15512e-14 4.37641e-15 9.49891e-15 4.73132e-15 1.38245e-14 1.3669e-14 1.43128e-14 2.34276e-15 9.68975e-15 1.25941e-14 1.52717e-15 1.41334e-14 1.1039e-14 2.34372e-14 1.27727e-14 3.13377e-14 1.0152e-14 2.57548e-14 2.56905e-14 2.72911e-14 4.42316e-14 5.49372e-14 6.75377e-14 1.13806e-13 6.23949e-13 3.98061e-12 2.36123e-11 1.33788e-10 7.21089e-10 3.6918e-09 1.79164e-08 8.22348e-08 3.56097e-07 1.45064e-06 5.54143e-06 1.97757e-05 6.56443e-05 0.000201651 0.000569878 0.00147197 0.00345213 0.00731119 0.0139496 0.0240373 0.0377114 0.054557 0.0738732 0.094985 0.117404 0.140835 0.165121 0.190182 0.215986 0.242522 0.269797 0.297827 0.326637 0.356256 0.38672 0.41807 0.45035 0.483611 0.517904 0.553287 0.589818 0.627551 0.666536 0.706801 0.748331 0.791012 0.834506 0.877929 0.918972 0.951449 0.960447 0.95215 0.944364 0.93744 0.932485 0.929551 0.928055 0.927358 0.927027 0.926848 0.926745 0.926682 0.926605 0.926518 0.926637 0.92665 0.926643 0.926635 0.926625 0.926616 0.926607 0.926603 0.926603 0.926645 0.926792 0.926798 0.926756 0.926703 0.926639 0.926587 0.926531 0.926485 0.926443 0.926408 0.926377 0.926349 0.926322 0.926299 0.926283 0.926274 0.926276 0.926359 0.926507 0.926408 0.926361 0.926307 0.926236 0.926185 0.926127 0.926067 0.925973 0.925853 0.925716 0.925596 0.925531 0.925557 0.926036 0.926099 0.925998 0.925924 0.925844 0.926076 0.926126 0.925785 0.92492 0.924513 0.924361 0.926632 0.929932 0.925883 0.915154 0.916926 0.893268 0.886008 0.830914 0.812567 0.717976 0.655456 0.5358 0.420936 0.295216 0.183678 0.0980841 0.0449984 0.0183425 0.00698709 0.00258057 0.000941322 0.0003417 0.000123775 4.47799e-05 1.61826e-05 5.84065e-06 2.10471e-06 7.5698e-07 2.71623e-07 9.71961e-08 3.46683e-08 1.232e-08 4.35986e-09 1.53566e-09 5.3819e-10 1.87531e-10 6.49558e-11 2.24257e-11 7.63964e-12 2.62548e-12 9.10807e-13 3.36061e-13 -9.1265e-14 1.07079e-13 2.8955e-14 5.86682e-14 0 0 -2.95322e-15 8.4872e-16 1.23755e-15 2.0733e-15 4.03025e-15 9.84359e-16 -4.45636e-15 1.58376e-16 8.5961e-15 2.13135e-15 7.22567e-15 2.98016e-15 1.27906e-14 1.86684e-18 1.38728e-14 1.18436e-14 1.04753e-14 6.65772e-15 1.29261e-14 1.14396e-14 9.22998e-15 1.61518e-14 -1.30568e-14 -2.62695e-16 2.20493e-14 -9.9185e-16 2.5391e-14 2.44407e-14 2.27804e-14 1.64105e-14 1.05957e-14 4.0773e-14 3.76909e-14 3.42932e-14 4.75149e-14 1.19101e-13 6.4373e-13 3.94935e-12 2.35938e-11 1.33799e-10 7.21085e-10 3.6918e-09 1.79164e-08 8.22348e-08 3.56097e-07 1.45064e-06 5.54143e-06 1.97757e-05 6.56443e-05 0.000201651 0.000569878 0.00147197 0.00345213 0.00731119 0.0139496 0.0240373 0.0377114 0.054557 0.0738732 0.094985 0.117404 0.140835 0.165121 0.190182 0.215986 0.242522 0.269797 0.297827 0.326637 0.356256 0.38672 0.41807 0.45035 0.483611 0.517904 0.553287 0.589818 0.627551 0.666536 0.706801 0.748331 0.791012 0.834506 0.877929 0.918972 0.951449 0.960447 0.95215 0.944364 0.93744 0.932485 0.929551 0.928055 0.927358 0.927027 0.926848 0.926745 0.926682 0.926605 0.926518 0.926637 0.92665 0.926643 0.926635 0.926625 0.926616 0.926607 0.926603 0.926603 0.926645 0.926792 0.926798 0.926756 0.926703 0.926639 0.926587 0.926531 0.926485 0.926443 0.926408 0.926377 0.926349 0.926322 0.926299 0.926283 0.926274 0.926276 0.926359 0.926507 0.926408 0.926361 0.926307 0.926236 0.926185 0.926127 0.926067 0.925973 0.925853 0.925716 0.925596 0.925531 0.925557 0.926036 0.926099 0.925998 0.925924 0.925844 0.926076 0.926126 0.925785 0.92492 0.924513 0.924361 0.926632 0.929932 0.925883 0.915154 0.916926 0.893268 0.886008 0.830914 0.812567 0.717976 0.655456 0.5358 0.420936 0.295216 0.183678 0.0980841 0.0449984 0.0183425 0.00698709 0.00258057 0.000941322 0.0003417 0.000123775 4.47799e-05 1.61826e-05 5.84065e-06 2.10471e-06 7.5698e-07 2.71623e-07 9.71961e-08 3.46683e-08 1.23201e-08 4.35988e-09 1.53568e-09 5.3818e-10 1.87555e-10 6.50816e-11 2.23484e-11 7.72305e-12 2.73854e-12 9.01401e-13 2.98728e-13 -2.9255e-14 9.78965e-14 1.12075e-13 -6.56399e-14 0 0 -2.14518e-15 -8.67793e-16 -1.39124e-15 -2.06793e-15 -4.35357e-15 -2.29216e-15 -2.62496e-16 4.63826e-15 -3.85104e-15 -1.89613e-15 1.56413e-14 1.04509e-14 1.84795e-14 1.56086e-15 1.31505e-14 1.47014e-14 1.17308e-14 1.26452e-14 5.78034e-15 1.97791e-14 -2.83008e-15 4.74046e-15 -1.02315e-14 -9.20437e-15 1.27123e-14 2.59374e-14 9.55645e-15 7.963e-15 2.62103e-14 2.77794e-14 1.66855e-14 1.37337e-14 1.61254e-14 6.69692e-14 7.66024e-14 1.22001e-13 5.99355e-13 3.91578e-12 2.36738e-11 1.33731e-10 7.21134e-10 3.69179e-09 1.79163e-08 8.22347e-08 3.56097e-07 1.45064e-06 5.54143e-06 1.97757e-05 6.56443e-05 0.000201651 0.000569878 0.00147197 0.00345213 0.00731119 0.0139496 0.0240373 0.0377114 0.054557 0.0738732 0.094985 0.117404 0.140835 0.165121 0.190182 0.215986 0.242522 0.269797 0.297827 0.326637 0.356256 0.38672 0.41807 0.45035 0.483611 0.517904 0.553287 0.589818 0.627551 0.666536 0.706801 0.748331 0.791012 0.834506 0.877929 0.918972 0.951449 0.960447 0.95215 0.944364 0.93744 0.932485 0.929551 0.928055 0.927358 0.927027 0.926848 0.926745 0.926682 0.926605 0.926518 0.926637 0.92665 0.926643 0.926635 0.926625 0.926616 0.926607 0.926603 0.926603 0.926645 0.926792 0.926798 0.926756 0.926703 0.926639 0.926587 0.926531 0.926485 0.926443 0.926408 0.926377 0.926349 0.926322 0.926299 0.926283 0.926274 0.926276 0.926359 0.926507 0.926408 0.926361 0.926307 0.926236 0.926185 0.926127 0.926067 0.925973 0.925853 0.925716 0.925596 0.925531 0.925557 0.926036 0.926099 0.925998 0.925924 0.925844 0.926076 0.926126 0.925785 0.92492 0.924513 0.924361 0.926632 0.929932 0.925883 0.915154 0.916926 0.893268 0.886008 0.830914 0.812567 0.717976 0.655456 0.5358 0.420936 0.295216 0.183678 0.0980841 0.0449984 0.0183425 0.00698709 0.00258057 0.000941322 0.0003417 0.000123775 4.47799e-05 1.61826e-05 5.84065e-06 2.10471e-06 7.5698e-07 2.71623e-07 9.7196e-08 3.46683e-08 1.23201e-08 4.35987e-09 1.53579e-09 5.38199e-10 1.87627e-10 6.50665e-11 2.24193e-11 7.78025e-12 2.73668e-12 8.57446e-13 3.21754e-13 1.94434e-13 -6.43085e-14 1.3124e-13 1.49788e-13 0 0 2.42931e-15 4.11901e-15 9.18663e-16 -1.06304e-15 -4.6989e-15 -1.05898e-14 -6.67137e-15 1.19001e-14 -3.18529e-15 1.59986e-14 2.3189e-14 1.67254e-15 1.59175e-14 1.56734e-14 1.38675e-14 1.8307e-14 2.17012e-14 2.67512e-14 -2.34842e-15 2.50097e-15 1.19956e-14 -1.95131e-15 -1.6536e-14 -1.34097e-14 -2.53771e-14 2.73202e-14 2.00601e-14 1.1298e-14 1.31462e-14 3.06846e-14 9.52726e-15 1.44955e-15 -1.14916e-14 1.37471e-13 1.06764e-13 1.15111e-13 5.79237e-13 3.9163e-12 2.35993e-11 1.33775e-10 7.21211e-10 3.69174e-09 1.79163e-08 8.22347e-08 3.56097e-07 1.45064e-06 5.54143e-06 1.97757e-05 6.56443e-05 0.000201651 0.000569878 0.00147197 0.00345213 0.00731119 0.0139496 0.0240373 0.0377114 0.054557 0.0738732 0.094985 0.117404 0.140835 0.165121 0.190182 0.215986 0.242522 0.269797 0.297827 0.326637 0.356256 0.38672 0.41807 0.45035 0.483611 0.517904 0.553287 0.589818 0.627551 0.666536 0.706801 0.748331 0.791012 0.834506 0.877929 0.918972 0.951449 0.960447 0.95215 0.944364 0.93744 0.932485 0.929551 0.928055 0.927358 0.927027 0.926848 0.926745 0.926682 0.926605 0.926518 0.926637 0.92665 0.926643 0.926635 0.926625 0.926616 0.926607 0.926603 0.926603 0.926645 0.926792 0.926798 0.926756 0.926703 0.926639 0.926587 0.926531 0.926485 0.926443 0.926408 0.926377 0.926349 0.926322 0.926299 0.926283 0.926274 0.926276 0.926359 0.926507 0.926408 0.926361 0.926307 0.926236 0.926185 0.926127 0.926067 0.925973 0.925853 0.925716 0.925596 0.925531 0.925557 0.926036 0.926099 0.925998 0.925924 0.925844 0.926076 0.926126 0.925785 0.92492 0.924513 0.924361 0.926632 0.929932 0.925883 0.915154 0.916926 0.893268 0.886008 0.830914 0.812567 0.717976 0.655456 0.5358 0.420936 0.295216 0.183678 0.0980841 0.0449984 0.0183425 0.00698709 0.00258057 0.000941322 0.0003417 0.000123775 4.47799e-05 1.61826e-05 5.84065e-06 2.10471e-06 7.5698e-07 2.71623e-07 9.7196e-08 3.46683e-08 1.232e-08 4.35984e-09 1.53568e-09 5.38287e-10 1.87635e-10 6.5045e-11 2.26203e-11 7.70536e-12 2.7479e-12 9.05856e-13 2.07094e-13 1.35098e-13 -1.14136e-13 4.66688e-14 3.13424e-13 0 0 2.51076e-15 9.14812e-15 1.16452e-14 1.68936e-15 -3.93953e-16 -9.24682e-15 -2.46673e-14 9.25268e-15 5.45837e-15 3.95541e-14 1.20336e-14 1.80016e-14 -9.25049e-15 3.13876e-14 8.52081e-15 3.7447e-14 3.01485e-14 2.79517e-14 -1.98539e-14 -3.69163e-15 4.43313e-14 -1.23269e-14 -1.37248e-14 -3.66167e-14 -2.94707e-14 -2.55978e-14 6.57929e-14 -3.4493e-15 2.77827e-14 1.81891e-14 -1.42279e-14 3.3376e-14 -2.17862e-14 1.46341e-13 7.34884e-14 1.18507e-13 6.47208e-13 3.9151e-12 2.34944e-11 1.33839e-10 7.21245e-10 3.69169e-09 1.79162e-08 8.22347e-08 3.56097e-07 1.45064e-06 5.54143e-06 1.97757e-05 6.56443e-05 0.000201651 0.000569878 0.00147197 0.00345213 0.00731119 0.0139496 0.0240373 0.0377114 0.054557 0.0738732 0.094985 0.117404 0.140835 0.165121 0.190182 0.215986 0.242522 0.269797 0.297827 0.326637 0.356256 0.38672 0.41807 0.45035 0.483611 0.517904 0.553287 0.589818 0.627551 0.666536 0.706801 0.748331 0.791012 0.834506 0.877929 0.918972 0.951449 0.960447 0.95215 0.944364 0.93744 0.932485 0.929551 0.928055 0.927358 0.927027 0.926848 0.926745 0.926682 0.926605 0.926518 0.926637 0.92665 0.926643 0.926635 0.926625 0.926616 0.926607 0.926603 0.926603 0.926645 0.926792 0.926798 0.926756 0.926703 0.926639 0.926587 0.926531 0.926485 0.926443 0.926408 0.926377 0.926349 0.926322 0.926299 0.926283 0.926274 0.926276 0.926359 0.926507 0.926408 0.926361 0.926307 0.926236 0.926185 0.926127 0.926067 0.925973 0.925853 0.925716 0.925596 0.925531 0.925557 0.926036 0.926099 0.925998 0.925924 0.925844 0.926076 0.926126 0.925785 0.92492 0.924513 0.924361 0.926632 0.929932 0.925883 0.915154 0.916926 0.893268 0.886008 0.830914 0.812567 0.717976 0.655456 0.5358 0.420936 0.295216 0.183678 0.0980841 0.0449984 0.0183425 0.00698709 0.00258057 0.000941322 0.0003417 0.000123775 4.47799e-05 1.61826e-05 5.84065e-06 2.10471e-06 7.5698e-07 2.71623e-07 9.71962e-08 3.46682e-08 1.232e-08 4.35989e-09 1.5355e-09 5.38287e-10 1.87509e-10 6.52902e-11 2.25363e-11 7.64186e-12 2.86431e-12 9.72377e-13 -3.86915e-14 1.77485e-13 -5.86804e-14 2.64253e-14 8.46433e-14 0
				</DataArray>
				<DataArray Name="VitesseY" type="Float32" format="ascii">