<?xml version="1.0"?>
<VTKFile type="PolyData">
	<PolyData>
		<Piece NumberOfPoints="1206" NumberOfPolys="1000">
			<Points>
				<DataArray type="Float32" NumberOfComponents="3" format="ascii">
 0 0 0 0.005 0 0 0.01 0 0 0.015 0 0 0.02 0 0 0.025 0 0 0.03 0 0 0.035 0 0 0.04 0 0 0.045 0 0 0.05 0 0 0.055 0 0 0.06 0 0 0.065 0 0 0.07 0 0 0.075 0 0 0.08 0 0 0.085 0 0 0.09 0 0 0.095 0 0 0.1 0 0 0.105 0 0 0.11 0 0 0.115 0 0 0.12 0 0 0.125 0 0 0.13 0 0 0.135 0 0 0.14 0 0 0.145 0 0 0.15 0 0 0.155 0 0 0.16 0 0 0.165 0 0 0.17 0 0 0.175 0 0 0.18 0 0 0.185 0 0 0.19 0 0 0.195 0 0 0.2 0 0 0.205 0 0 0.21 0 0 0.215 0 0 0.22 0 0 0.225 0 0 0.23 0 0 0.235 0 0 0.24 0 0 0.245 0 0 0.25 0 0 0.255 0 0 0.26 0 0 0.265 0 0 0.27 0 0 0.275 0 0 0.28 0 0 0.285 0 0 0.29 0 0 0.295 0 0 0.3 0 0 0.305 0 0 0.31 0 0 0.315001 0 0 0.320003 0 0 0.32501 0 0 0.330028 0 0 0.335069 0 0 0.340152 0 0 0.345302 0 0 0.350545 0 0 0.355902 0 0 0.361393 0 0 0.367034 0 0 0.372839 0 0 0.378823 0 0 0.385 0 0 0.391385 0 0 0.397997 0 0 0.404855 0 0 0.411979 0 0 0.419394 0 0 0.427128 0 0 0.435213 0 0 0.443683 0 0 0.45258 0 0 0.46195 0 0 0.471845 0 0 0.482318 0 0 0.493413 0 0 0.505127 0 0 0.517286 0 0 0.529453 0 0 0.541487 0 0 0.553395 0 0 0.565212 0 0 0.57698 0 0 0.588725 0 0 0.600464 0 0 0.612201 0 0 0.62395 0 0 0.626561 0 0 0.629098 0 0 0.631589 0 0 0.63405 0 0 0.63649 0 0 0.638913 0 0 0.641327 0 0 0.643738 0 0 0.64615 0 0 0.648547 0 0 0.650932 0 0 0.653313 0 0 0.655691 0 0 0.65807 0 0 0.660448 0 0 0.662822 0 0 0.665194 0 0 0.667563 0 0 0.669932 0 0 0.6723 0 0 0.674665 0 0 0.677029 0 0 0.679393 0 0 0.681756 0 0 0.684119 0 0 0.686482 0 0 0.688845 0 0 0.691206 0 0 0.69357 0 0 0.695935 0 0 0.698301 0 0 0.700666 0 0 0.70303 0 0 0.705392 0 0 0.707754 0 0 0.710114 0 0 0.712478 0 0 0.714844 0 0 0.717219 0 0 0.719611 0 0 0.722029 0 0 0.724479 0 0 0.727033 0 0 0.729683 0 0 0.732504 0 0 0.735521 0 0 0.738823 0 0 0.742444 0 0 0.746421 0 0 0.750738 0 0 0.75534 0 0 0.760141 0 0 0.765054 0 0 0.77002 0 0 0.775007 0 0 0.780003 0 0 0.785001 0 0 0.79 0 0 0.795 0 0 0.8 0 0 0.805 0 0 0.81 0 0 0.815 0 0 0.82 0 0 0.825 0 0 0.83 0 0 0.835 0 0 0.84 0 0 0.845 0 0 0.85 0 0 0.855 0 0 0.86 0 0 0.865 0 0 0.87 0 0 0.875 0 0 0.88 0 0 0.885 0 0 0.89 0 0 0.895 0 0 0.9 0 0 0.905 0 0 0.91 0 0 0.915 0 0 0.92 0 0 0.925 0 0 0.93 0 0 0.935 0 0 0.94 0 0 0.945 0 0 0.95 0 0 0.955 0 0 0.96 0 0 0.965 0 0 0.97 0 0 0.975 0 0 0.98 0 0 0.985 0 0 0.99 0 0 0.995 0 0 1 0 0 0 0.02 0 0.005 0.02 0 0.01 0.02 0 0.015 0.02 0 0.02 0.02 0 0.025 0.02 0 0.03 0.02 0 0.035 0.02 0 0.04 0.02 0 0.045 0.02 0 0.05 0.02 0 0.055 0.02 0 0.06 0.02 0 0.065 0.02 0 0.07 0.02 0 0.075 0.02 0 0.08 0.02 0 0.085 0.02 0 0.09 0.02 0 0.095 0.02 0 0.1 0.02 0 0.105 0.02 0 0.11 0.02 0 0.115 0.02 0 0.12 0.02 0 0.125 0.02 0 0.13 0.02 0 0.135 0.02 0 0.14 0.02 0 0.145 0.02 0 0.15 0.02 0 0.155 0.02 0 0.16 0.02 0 0.165 0.02 0 0.17 0.02 0 0.175 0.02 0 0.18 0.02 0 0.185 0.02 0 0.19 0.02 0 0.195 0.02 0 0.2 0.02 0 0.205 0.02 0 0.21 0.02 0 0.215 0.02 0 0.22 0.02 0 0.225 0.02 0 0.23 0.02 0 0.235 0.02 0 0.24 0.02 0 0.245 0.02 0 0.25 0.02 0 0.255 0.02 0 0.26 0.02 0 0.265 0.02 0 0.27 0.02 0 0.275 0.02 0 0.28 0.02 0 0.285 0.02 0 0.29 0.02 0 0.295 0.02 0 0.3 0.02 0 0.305 0.02 0 0.31 0.02 0 0.315001 0.02 0 0.320003 0.02 0 0.32501 0.02 0 0.330028 0.02 0 0.335069 0.02 0 0.340152 0.02 0 0.345302 0.02 0 0.350545 0.02 0 0.355902 0.02 0 0.361393 0.02 0 0.367034 0.02 0 0.372839 0.02 0 0.378823 0.02 0 0.385 0.02 0 0.391385 0.02 0 0.397997 0.02 0 0.404855 0.02 0 0.411979 0.02 0 0.419394 0.02 0 0.427128 0.02 0 0.435213 0.02 0 0.443683 0.02 0 0.45258 0.02 0 0.46195 0.02 0 0.471845 0.02 0 0.482318 0.02 0 0.493413 0.02 0 0.505127 0.02 0 0.517286 0.02 0 0.529453 0.02 0 0.541487 0.02 0 0.553395 0.02 0 0.565212 0.02 0 0.57698 0.02 0 0.588725 0.02 0 0.600464 0.02 0 0.612201 0.02 0 0.62395 0.02 0 0.626561 0.02 0 0.629098 0.02 0 0.631589 0.02 0 0.63405 0.02 0 0.63649 0.02 0 0.638913 0.02 0 0.641327 0.02 0 0.643738 0.02 0 0.64615 0.02 0 0.648547 0.02 0 0.650932 0.02 0 0.653313 0.02 0 0.655691 0.02 0 0.65807 0.02 0 0.660448 0.02 0 0.662822 0.02 0 0.665194 0.02 0 0.667563 0.02 0 0.669932 0.02 0 0.6723 0.02 0 0.674665 0.02 0 0.677029 0.02 0 0.679393 0.02 0 0.681756 0.02 0 0.684119 0.02 0 0.686482 0.02 0 0.688845 0.02 0 0.691206 0.02 0 0.69357 0.02 0 0.695935 0.02 0 0.698301 0.02 0 0.700666 0.02 0 0.70303 0.02 0 0.705392 0.02 0 0.707754 0.02 0 0.710114 0.02 0 0.712478 0.02 0 0.714844 0.02 0 0.717219 0.02 0 0.719611 0.02 0 0.722029 0.02 0 0.724479 0.02 0 0.727033 0.02 0 0.729683 0.02 0 0.732504 0.02 0 0.735521 0.02 0 0.738823 0.02 0 0.742444 0.02 0 0.746421 0.02 0 0.750738 0.02 0 0.75534 0.02 0 0.760141 0.02 0 0.765054 0.02 0 0.77002 0.02 0 0.775007 0.02 0 0.780003 0.02 0 0.785001 0.02 0 0.79 0.02 0 0.795 0.02 0 0.8 0.02 0 0.805 0.02 0 0.81 0.02 0 0.815 0.02 0 0.82 0.02 0 0.825 0.02 0 0.83 0.02 0 0.835 0.02 0 0.84 0.02 0 0.845 0.02 0 0.85 0.02 0 0.855 0.02 0 0.86 0.02 0 0.865 0.02 0 0.87 0.02 0 0.875 0.02 0 0.88 0.02 0 0.885 0.02 0 0.89 0.02 0 0.895 0.02 0 0.9 0.02 0 0.905 0.02 0 0.91 0.02 0 0.915 0.02 0 0.92 0.02 0 0.925 0.02 0 0.93 0.02 0 0.935 0.02 0 0.94 0.02 0 0.945 0.02 0 0.95 0.02 0 0.955 0.02 0 0.96 0.02 0 0.965 0.02 0 0.97 0.02 0 0.975 0.02 0 0.98 0.02 0 0.985 0.02 0 0.99 0.02 0 0.995 0.02 0 1 0.02 0 0 0.04 0 0.005 0.04 0 0.01 0.04 0 0.015 0.04 0 0.02 0.04 0 0.025 0.04 0 0.03 0.04 0 0.035 0.04 0 0.04 0.04 0 0.045 0.04 0 0.05 0.04 0 0.055 0.04 0 0.06 0.04 0 0.065 0.04 0 0.07 0.04 0 0.075 0.04 0 0.08 0.04 0 0.085 0.04 0 0.09 0.04 0 0.095 0.04 0 0.1 0.04 0 0.105 0.04 0 0.11 0.04 0 0.115 0.04 0 0.12 0.04 0 0.125 0.04 0 0.13 0.04 0 0.135 0.04 0 0.14 0.04 0 0.145 0.04 0 0.15 0.04 0 0.155 0.04 0 0.16 0.04 0 0.165 0.04 0 0.17 0.04 0 0.175 0.04 0 0.18 0.04 0 0.185 0.04 0 0.19 0.04 0 0.195 0.04 0 0.2 0.04 0 0.205 0.04 0 0.21 0.04 0 0.215 0.04 0 0.22 0.04 0 0.225 0.04 0 0.23 0.04 0 0.235 0.04 0 0.24 0.04 0 0.245 0.04 0 0.25 0.04 0 0.255 0.04 0 0.26 0.04 0 0.265 0.04 0 0.27 0.04 0 0.275 0.04 0 0.28 0.04 0 0.285 0.04 0 0.29 0.04 0 0.295 0.04 0 0.3 0.04 0 0.305 0.04 0 0.31 0.04 0 0.315001 0.04 0 0.320003 0.04 0 0.32501 0.04 0 0.330028 0.04 0 0.335069 0.04 0 0.340152 0.04 0 0.345302 0.04 0 0.350545 0.04 0 0.355902 0.04 0 0.361393 0.04 0 0.367034 0.04 0 0.372839 0.04 0 0.378823 0.04 0 0.385 0.04 0 0.391385 0.04 0 0.397997 0.04 0 0.404855 0.04 0 0.411979 0.04 0 0.419394 0.04 0 0.427128 0.04 0 0.435213 0.04 0 0.443683 0.04 0 0.45258 0.04 0 0.46195 0.04 0 0.471845 0.04 0 0.482318 0.04 0 0.493413 0.04 0 0.505127 0.04 0 0.517286 0.04 0 0.529453 0.04 0 0.541487 0.04 0 0.553395 0.04 0 0.565212 0.04 0 0.57698 0.04 0 0.588725 0.04 0 0.600464 0.04 0 0.612201 0.04 0 0.62395 0.04 0 0.626561 0.04 0 0.629098 0.04 0 0.631589 0.04 0 0.63405 0.04 0 0.63649 0.04 0 0.638913 0.04 0 0.641327 0.04 0 0.643738 0.04 0 0.64615 0.04 0 0.648547 0.04 0 0.650932 0.04 0 0.653313 0.04 0 0.655691 0.04 0 0.65807 0.04 0 0.660448 0.04 0 0.662822 0.04 0 0.665194 0.04 0 0.667563 0.04 0 0.669932 0.04 0 0.6723 0.04 0 0.674665 0.04 0 0.677029 0.04 0 0.679393 0.04 0 0.681756 0.04 0 0.684119 0.04 0 0.686482 0.04 0 0.688845 0.04 0 0.691206 0.04 0 0.69357 0.04 0 0.695935 0.04 0 0.698301 0.04 0 0.700666 0.04 0 0.70303 0.04 0 0.705392 0.04 0 0.707754 0.04 0 0.710114 0.04 0 0.712478 0.04 0 0.714844 0.04 0 0.717219 0.04 0 0.719611 0.04 0 0.722029 0.04 0 0.724479 0.04 0 0.727033 0.04 0 0.729683 0.04 0 0.732504 0.04 0 0.735521 0.04 0 0.738823 0.04 0 0.742444 0.04 0 0.746421 0.04 0 0.750738 0.04 0 0.75534 0.04 0 0.760141 0.04 0 0.765054 0.04 0 0.77002 0.04 0 0.775007 0.04 0 0.780003 0.04 0 0.785001 0.04 0 0.79 0.04 0 0.795 0.04 0 0.8 0.04 0 0.805 0.04 0 0.81 0.04 0 0.815 0.04 0 0.82 0.04 0 0.825 0.04 0 0.83 0.04 0 0.835 0.04 0 0.84 0.04 0 0.845 0.04 0 0.85 0.04 0 0.855 0.04 0 0.86 0.04 0 0.865 0.04 0 0.87 0.04 0 0.875 0.04 0 0.88 0.04 0 0.885 0.04 0 0.89 0.04 0 0.895 0.04 0 0.9 0.04 0 0.905 0.04 0 0.91 0.04 0 0.915 0.04 0 0.92 0.04 0 0.925 0.04 0 0.93 0.04 0 0.935 0.04 0 0.94 0.04 0 0.945 0.04 0 0.95 0.04 0 0.955 0.04 0 0.96 0.04 0 0.965 0.04 0 0.97 0.04 0 0.975 0.04 0 0.98 0.04 0 0.985 0.04 0 0.99 0.04 0 0.995 0.04 0 1 0.04 0 0 0.06 0 0.005 0.06 0 0.01 0.06 0 0.015 0.06 0 0.02 0.06 0 0.025 0.06 0 0.03 0.06 0 0.035 0.06 0 0.04 0.06 0 0.045 0.06 0 0.05 0.06 0 0.055 0.06 0 0.06 0.06 0 0.065 0.06 0 0.07 0.06 0 0.075 0.06 0 0.08 0.06 0 0.085 0.06 0 0.09 0.06 0 0.095 0.06 0 0.1 0.06 0 0.105 0.06 0 0.11 0.06 0 0.115 0.06 0 0.12 0.06 0 0.125 0.06 0 0.13 0.06 0 0.135 0.06 0 0.14 0.06 0 0.145 0.06 0 0.15 0.06 0 0.155 0.06 0 0.16 0.06 0 0.165 0.06 0 0.17 0.06 0 0.175 0.06 0 0.18 0.06 0 0.185 0.06 0 0.19 0.06 0 0.195 0.06 0 0.2 0.06 0 0.205 0.06 0 0.21 0.06 0 0.215 0.06 0 0.22 0.06 0 0.225 0.06 0 0.23 0.06 0 0.235 0.06 0 0.24 0.06 0 0.245 0.06 0 0.25 0.06 0 0.255 0.06 0 0.26 0.06 0 0.265 0.06 0 0.27 0.06 0 0.275 0.06 0 0.28 0.06 0 0.285 0.06 0 0.29 0.06 0 0.295 0.06 0 0.3 0.06 0 0.305 0.06 0 0.31 0.06 0 0.315001 0.06 0 0.320003 0.06 0 0.32501 0.06 0 0.330028 0.06 0 0.335069 0.06 0 0.340152 0.06 0 0.345302 0.06 0 0.350545 0.06 0 0.355902 0.06 0 0.361393 0.06 0 0.367034 0.06 0 0.372839 0.06 0 0.378823 0.06 0 0.385 0.06 0 0.391385 0.06 0 0.397997 0.06 0 0.404855 0.06 0 0.411979 0.06 0 0.419394 0.06 0 0.427128 0.06 0 0.435213 0.06 0 0.443683 0.06 0 0.45258 0.06 0 0.46195 0.06 0 0.471845 0.06 0 0.482318 0.06 0 0.493413 0.06 0 0.505127 0.06 0 0.517286 0.06 0 0.529453 0.06 0 0.541487 0.06 0 0.553395 0.06 0 0.565212 0.06 0 0.57698 0.06 0 0.588725 0.06 0 0.600464 0.06 0 0.612201 0.06 0 0.62395 0.06 0 0.626561 0.06 0 0.629098 0.06 0 0.631589 0.06 0 0.63405 0.06 0 0.63649 0.06 0 0.638913 0.06 0 0.641327 0.06 0 0.643738 0.06 0 0.64615 0.06 0 0.648547 0.06 0 0.650932 0.06 0 0.653313 0.06 0 0.655691 0.06 0 0.65807 0.06 0 0.660448 0.06 0 0.662822 0.06 0 0.665194 0.06 0 0.667563 0.06 0 0.669932 0.06 0 0.6723 0.06 0 0.674665 0.06 0 0.677029 0.06 0 0.679393 0.06 0 0.681756 0.06 0 0.684119 0.06 0 0.686482 0.06 0 0.688845 0.06 0 0.691206 0.06 0 0.69357 0.06 0 0.695935 0.06 0 0.698301 0.06 0 0.700666 0.06 0 0.70303 0.06 0 0.705392 0.06 0 0.707754 0.06 0 0.710114 0.06 0 0.712478 0.06 
[...]
			<PointData Scalars="VitesseX">
				<DataArray Name="VitesseX" type="Float32" format="ascii">
 0 0 0 0 0 0 0 0 0 0 0 0 0 0 0 0 0 0 0 0 0 0 0 0 0 0 0 0 0 0 0 0 0 0 0 0 0 0 0 0 0 0 0 0 0 0 0 0 0 0 0 0 0 0 0 0 0 0 0 0 0 0 0 0 0 0 0 0 0 0 0 0 0 0 0 0 0 0 0 0 0 0 0 0 0 0 0 0 0 0 0 0 0 0 0 0 0 0 0 0 0 0 0 0 0 0 0 0 0 0 0 0 0 0 0 0 0 0 0 0 0 0 0 0 0 0 0 0 0 0 0 0 0 0 0 0 0 0 0 0 0 0 0 0 0 0 0 0 0 0 0 0 0 0 0 0 0 0 0 0 0 0 0 0 0 0 0 0 0 0 0 0 0 0 0 0 0 0 0 0 0 0 0 0 0 0 0 0 0 0 0 0 0 0 0 0 0 0 0 0 0 0 -1.1524e-15 7.92543e-16 2.21954e-16 1.02349e-15 2.49875e-15 2.18509e-15 4.57682e-15 3.72053e-15 5.90052e-15 5.6593e-15 4.65082e-15 5.73788e-15 4.56713e-15 3.46937e-15 1.35671e-14 2.20075e-16 1.17088e-14 -8.21094e-15 1.19601e-14 -3.23191e-15 -5.5692e-15 1.09004e-14 -8.45275e-16 5.03921e-15 7.17633e-15 2.42317e-14 -2.50737e-14 2.58556e-14 -5.43889e-15 -5.99309e-15 -2.37712e-15 1.80692e-14 2.11216e-15 -9.64106e-15 2.08965e-14 3.29858e-14 3.58232e-15 -4.32619e-15 3.03399e-14 -8.16726e-15 2.32802e-14 -2.16465e-14 6.52377e-15 8.92613e-15 1.62362e-14 2.74825e-14 1.2155e-14 1.5511e-14 6.97947e-14 1.01234e-13 5.5285e-13 4.08713e-12 2.96018e-11 2.02469e-10 1.30126e-09 7.84943e-09 4.4303e-08 2.3323e-07 1.141e-06 5.16509e-06 2.15277e-05 8.21254e-05 0.000284748 0.000889949 0.00248436 0.00613986 0.013352 0.0255467 0.0433624 0.0663518 0.0933985 0.123376 0.155504 0.189358 0.224745 0.261603 0.299935 0.339784 0.381221 0.424335 0.469234 0.516037 0.564871 0.615861 0.669102 0.724608 0.782169 0.840987 0.898588 0.94749 0.966416 0.954427 0.943939 0.935538 0.93064 0.928391 0.927465 0.927048 0.926799 0.926614 0.926649 0.926621 0.926592 0.926533 0.926453 0.926357 0.926263 0.926176 0.926109 0.926071 0.926059 0.926176 0.926633 0.926753 0.926687 0.926517 0.926385 0.92622 0.926026 0.925835 0.92566 0.925524 0.925443 0.925415 0.925529 0.925892 0.925812 0.925837 0.925927 0.926505 0.926487 0.925525 0.924402 0.923109 0.922529 0.924176 0.923907 0.924456 0.927636 0.903676 0.906692 0.864993 0.849204 0.777521 0.741382 0.628545 0.537498 0.407707 0.286045 0.175539 0.0928292 0.0421593 0.0170521 0.00645627 0.00237052 0.000858479 0.000308645 0.000110379 3.92742e-05 1.38971e-05 4.88691e-06 1.70646e-06 5.91235e-07 2.03089e-07 6.91115e-08 2.32837e-08 7.76075e-09 2.55783e-09 8.33123e-10 2.68009e-10 8.51686e-11 2.67096e-11 8.31479e-12 2.50991e-12 7.42526e-13 2.10919e-13 1.66664e-14 -6.94789e-14 -3.55909e-14 8.49137e-14 3.88739e-14 -2.87909e-14 -2.76992e-14 -7.7582e-14 9.32136e-14 -1.03835e-13 -5.23999e-14 2.95192e-14 -9.99745e-14 -9.27927e-14 6.25453e-15 2.83985e-14 -1.26723e-14 -2.46958e-14 5.17503e-14 -1.12245e-13 8.52415e-14 -3.27912e-14 -4.86092e-14 0 0 1.58444e-15 2.19243e-15 5.79357e-15 2.5418e-15 9.09834e-16 3.34018e-16 1.093e-15 7.39702e-15 -1.23997e-15 5.42552e-15 -1.43868e-15 3.24964e-15 3.46073e-15 1.39059e-14 4.73326e-15 -2.23742e-15 8.08237e-15 -5.66259e-15 3.10027e-15 -2.70482e-15 -9.87139e-15 2.68631e-14 -1.19464e-14 1.01452e-14 2.8538e-14 1.19716e-14 -2.04042e-15 -1.32258e-14 3.36695e-14 -2.34627e-14 3.3431e-14 2.18695e-15 -3.21436e-15 1.76053e-14 6.41712e-15 4.97719e-16 7.4111e-15 3.68701e-14 2.40936e-14 -8.44664e-15 1.34832e-14 1.667e-14 -2.49854e-14 1.81493e-14 1.92007e-14 1.58728e-14 1.69949e-14 2.49022e-14 3.26531e-14 9.51808e-14 6.02874e-13 4.05315e-12 2.9594e-11 2.02443e-10 1.30125e-09 7.8494e-09 4.43029e-08 2.33231e-07 1.141e-06 5.16509e-06 2.15277e-05 8.21254e-05 0.000284748 0.000889949 0.00248436 0.00613986 0.013352 0.0255467 0.0433624 0.0663518 0.0933985 0.123376 0.155504 0.189358 0.224745 0.261603 0.299935 0.339784 0.381221 0.424335 0.469234 0.516037 0.564871 0.615861 0.669102 0.724608 0.782169 0.840987 0.898588 0.94749 0.966416 0.954427 0.943939 0.935538 0.93064 0.928391 0.927465 0.927048 0.926799 0.926614 0.926649 0.926621 0.926592 0.926533 0.926453 0.926357 0.926263 0.926176 0.926109 0.926071 0.926059 0.926176 0.926633 0.926753 0.926687 0.926517 0.926385 0.92622 0.926026 0.925835 0.92566 0.925524 0.925443 0.925415 0.925529 0.925892 0.925812 0.925837 0.925927 0.926505 0.926487 0.925525 0.924402 0.923109 0.922529 0.924176 0.923907 0.924456 0.927636 0.903676 0.906692 0.864993 0.849204 0.777521 0.741382 0.628545 0.537498 0.407707 0.286045 0.175539 0.0928292 0.0421593 0.0170521 0.00645627 0.00237052 0.000858479 0.000308645 0.000110379 3.92742e-05 1.38971e-05 4.88691e-06 1.70646e-06 5.91235e-07 2.03089e-07 6.91116e-08 2.32837e-08 7.76078e-09 2.5579e-09 8.33106e-10 2.6813e-10 8.52216e-11 2.67169e-11 8.36997e-12 2.60633e-12 7.85692e-13 1.51532e-13 -3.30266e-14 -1.24114e-13 3.80978e-15 1.17025e-13 1.23092e-13 -1.53975e-13 -1.23512e-13 -1.08565e-14 2.84522e-14 -1.71696e-13 -7.80609e-15 -3.99051e-15 -4.02131e-14 -6.91666e-14 1.73358e-15 1.75863e-14 -5.64544e-14 -6.59579e-14 1.29666e-13 -2.11523e-14 2.00066e-14 -1.15294e-13 -5.92592e-14 0 0 3.15476e-15 4.8662e-15 2.88108e-15 4.53726e-15 1.69972e-15 -2.20408e-15 6.72261e-15 7.9059e-15 1.31242e-16 8.57396e-16 -8.6891e-15 -9.14693e-15 8.25066e-15 1.42237e-14 -2.10525e-15 5.60106e-15 8.72188e-16 -1.19364e-14 -4.05681e-15 1.04027e-15 1.46937e-14 1.80406e-15 2.12713e-14 1.16682e-14 1.44968e-14 8.2718e-15 1.81906e-14 -1.67336e-14 2.88167e-14 -9.4314e-15 2.41029e-14 3.2174e-14 2.07644e-14 -4.01138e-16 -5.72789e-15 5.65892e-15 7.06224e-15 2.06234e-14 -6.12655e-15 2.69008e-14 6.16955e-16 2.34339e-14 6.05337e-15 2.24005e-14 2.41751e-15 -2.24087e-15 -2.96345e-14 4.98642e-14 4.20929e-14 8.29351e-14 5.98704e-13 4.04497e-12 2.96423e-11 2.02451e-10 1.30122e-09 7.84931e-09 4.43029e-08 2.33231e-07 1.141e-06 5.16509e-06 2.15277e-05 8.21254e-05 0.000284748 0.000889949 0.00248436 0.00613986 0.013352 0.0255467 0.0433624 0.0663518 0.0933985 0.123376 0.155504 0.189358 0.224745 0.261603 0.299935 0.339784 0.381221 0.424335 0.469234 0.516037 0.564871 0.615861 0.669102 0.724608 0.782169 0.840987 0.898588 0.94749 0.966416 0.954427 0.943939 0.935538 0.93064 0.928391 0.927465 0.927048 0.926799 0.926614 0.926649 0.926621 0.926592 0.926533 0.926453 0.926357 0.926263 0.926176 0.926109 0.926071 0.926059 0.926176 0.926633 0.926753 0.926687 0.926517 0.926385 0.92622 0.926026 0.925835 0.92566 0.925524 0.925443 0.925415 0.925529 0.925892 0.925812 0.925837 0.925927 0.926505 0.926487 0.925525 0.924402 0.923109 0.922529 0.924176 0.923907 0.924456 0.927636 0.903676 0.906692 0.864993 0.849204 0.777521 0.741382 0.628545 0.537498 0.407707 0.286045 0.175539 0.0928292 0.0421593 0.0170521 0.00645627 0.00237052 0.000858479 0.000308645 0.000110379 3.92742e-05 1.38971e-05 4.88691e-06 1.70646e-06 5.91235e-07 2.03089e-07 6.91117e-08 2.32837e-08 7.76082e-09 2.55779e-09 8.33137e-10 2.68192e-10 8.52849e-11 2.67919e-11 8.29072e-12 2.65822e-12 7.02829e-13 -7.40709e-14 -7.96923e-14 5.67023e-14 2.68123e-13 1.48902e-13 -7.11001e-14 -1.24436e-13 6.29853e-15 -5.121e-14 -1.38832e-13 -1.18753e-14 -4.34768e-14 -3.82236e-14 1.29447e-13 -5.51114e-14 6.21462e-14 -3.03725e-14 -1.46035e-13 -1.52339e-13 2.11377e-15 7.18324e-14 -8.15856e-14 -5.75117e-14 4.14258e-14 0 0 1.8654e-15 3.17193e-15 2.12369e-15 2.70499e-15 1.55849e-15 -3.34515e-15 2.51251e-15 -2.10558e-15 4.71221e-15 -1.04444e-15 -7.26543e-15 -2.532e-15 2.1622e-15 -1.04824e-14 2.1785e-15 -1.8911e-15 -2.87567e-15 -1.70532e-14 5.25944e-15 9.08747e-15 -4.88085e-15 3.27385e-14 2.26475e-14 3.34536e-15 3.3621e-15 2.34254e-14 -4.5116e-15 2.17112e-14 -7.74868e-15 2.54326e-14 1.21103e-14 5.17906e-14 2.60397e-14 1.22902e-16 -1.12959e-14 -9.24997e-15 -8.26157e-15 -1.15537e-14 1.52481e-14 1.38083e-14 3.2695e-14 4.5722e-14 1.53862e-14 -7.51271e-15 -3.80077e-16 2.53442e-14 -6.24982e-14 3.57246e-14 6.3067e-14 1.2992e-13 5.82502e-13 4.08857e-12 2.95201e-11 2.02519e-10 1.30119e-09 7.84929e-09 4.43029e-08 2.3323e-07 1.141e-06 5.16509e-06 2.15277e-05 8.21254e-05 0.000284748 0.000889949 0.00248436 0.00613986 0.013352 0.0255467 0.0433624 0.0663518 0.0933985 0.123376 0.155504 0.189358 0.224745 0.261603 0.299935 0.339784 0.381221 0.424335 0.469234 0.516037 0.564871 0.615861 0.669102 0.724608 0.782169 0.840987 0.898588 0.94749 0.966416 0.954427 0.943939 0.935538 0.93064 0.928391 0.927465 0.927048 0.926799 0.926614 0.926649 0.926621 0.926592 0.926533 0.926453 0.926357 0.926263 0.926176 0.926109 0.926071 0.926059 0.926176 0.926633 0.926753 0.926687 0.926517 0.926385 0.92622 0.926026 0.925835 0.92566 0.925524 0.925443 0.925415 0.925529 0.925892 0.925812 0.925837 0.925927 0.926505 0.926487 0.925525 0.924402 0.923109 0.922529 0.924176 0.923907 0.924456 0.927636 0.903676 0.906692 0.864993 0.849204 0.777521 0.741382 0.628545 0.537498 0.407707 0.286045 0.175539 0.0928292 0.0421593 0.0170521 0.00645627 0.00237052 0.000858479 0.000308645 0.000110379 3.92742e-05 1.38971e-05 4.88691e-06 1.70646e-06 5.91235e-07 2.03089e-07 6.91116e-08 2.32837e-08 7.76079e-09 2.55778e-09 8.33258e-10 2.68109e-10 8.52038e-11 2.69209e-11 8.15825e-12 2.72004e-12 6.48917e-13 -1.5954e-13 -2.79265e-14 1.25888e-13 2.66516e-13 -1.26026e-13 3.54858e-14 5.15676e-14 4.60655e-14 -6.95907e-14 -3.51318e-14 -3.19819e-14 -4.35319e-14 7.92487e-15 1.96212e-13 -8.36296e-14 4.95214e-14 7.21572e-14 -8.4088e-14 -3.07192e-13 -1.93538e-14 -8.4709e-14 -6.26296e-14 -1.79465e-14 1.20582e-13 0 0 0 0 0 0 0 0 0 0 0 0 0 0 0 0 0 0 0 0 0 0 0 0 0 0 0 0 0 0 0 0 0 0 0 0 0 0 0 0 0 0 0 0 0 0 0 0 0 0 0 0 0 0 0 0 0 0 0 0 0 0 0 0 0 0 0 0 0 0 0 0 0 0 0 0 0 0 0 0 0 0 0 0 0 0 0 0 0 0 0 0 0 0 0 0 0 0 0 0 0 0 0 0 0 0 0 0 0 0 0 0 0 0 0 0 0 0 0 0 0 0 0 0 0 0 0 0 0 0 0 0 0 0 0 0 0 0 0 0 0 0 0 0 0 0 0 0 0 0 0 0 0 0 0 0 0 0 0 0 0 0 0 0 0 0 0 0 0 0 0 0 0 0 0 0 0 0 0 0 0 0 0 0 0 0 0 0 0 0 0 0 0 0 0 0 0 0 0 0 0 0
				</DataArray>
				<DataArray Name="VitesseY" type="Float32" format="ascii">
 0 0 0 0 0 0 0 0 0 0 0 0 0 0 0 0 0 0 0 0 0 0 0 0 0 0 0 0 0 0 0 0 0 0 0 0 0 0 0 0 0 0 0 0 0 0 0 0 0 0 0 0 0 0 0 0 0 0 0 0 0 0 0 0 0 0 0 0 0 0 0 0 0 0 0 0 0 0 0 0 0 0 0 0 0 0 0 0 0 0 0 0 0 0 0 0 0 0 0 0 0 0 0 0 0 0 0 0 0 0 0 0 0 0 0 0 0 0 0 0 0 0 0 0 0 0 0 0 0 0 0 0 0 0 0 0 0 0 0 0 0 0 0 0 0 0 0 0 0 0 0 0 0 0 0 0 0 0 0 0 0 0 0 0 0 0 0 0 0 0 0 0 0 0 0 0 0 0 0 0 0 0 0 0 0 0 0 0 0 0 0 0 0 0 0 0 0 0 0 0 0 0 -7.12564e-16 -5.44831e-16 7.39146e-17 6.62504e-16 9.75223e-16 7.88724e-16 9.80752e-16 3.21954e-15 3.99568e-15 3.27096e-15 3.10511e-15 4.09801e-15 4.32617e-15 9.22793e-16 1.61087e-15 3.36573e-16 9.28845e-16 2.75858e-16 -2.83879e-15 -1.18911e-15 -5.28405e-15 -4.2267e-15 -3.10502e-15 -3.18476e-15 -9.95411e-16 3.63392e-15 -1.09626e-15 -3.57085e-16 5.31262e-15 2.86361e-15 4.76029e-15 4.56654e-15 3.5949e-15 2.9813e-15 3.91873e-15 5.85968e-15 1.04663e-14 6.58901e-15 9.78545e-15 2.9134e-15 -7.45106e-16 9.54195e-15 6.34408e-15 6.75477e-16 1.43807e-15 7.62852e-15 1.44979e-14 6.43875e-15 -1.00028e-14 -5.87583e-15 1.30543e-14 1.63486e-14 -1.27882e-14 -1.51802e-14 -1.04833e-14 -3.90697e-15 -2.42527e-14 -3.27605e-14 -1.06998e-14 -1.80464e-14 -1.45132e-14 5.04269e-15 1.29981e-14 6.73173e-15 6.21817e-16 -1.26698e-14 -9.93545e-15 2.2501e-14 4.61644e-15 -1.74032e-14 1.8406e-14 4.59843e-15 3.64704e-15 5.40668e-15 3.66834e-16 -1.71218e-14 -1.65716e-14 3.35574e-14 1.50636e-14 -1.67544e-14 -1.02367e-14 2.48363e-15 7.96127e-15 1.08307e-15 1.00685e-14 -9.49267e-15 5.90302e-15 3.39738e-14 2.09877e-14 -2.22543e-14 -6.03273e-14 -4.62762e-14 -1.47706e-14 5.16537e-14 1.7174e-13 2.8593e-13 3.64566e-13 4.19379e-13 4.57866e-13 5.30898e-13 9.25224e-13 9.25494e-13 9.4661e-13 9.54336e-13 9.61844e-13 9.42729e-13 8.14339e-13 4.87808e-13 7.39577e-14 -2.66174e-13 -4.58547e-13 -5.08197e-13 -4.90039e-13 -4.32995e-13 -3.35476e-13 -2.09214e-13 -1.41181e-13 -7.34535e-14 7.17256e-15 6.8157e-14 1.4061e-13 1.99371e-13 2.82681e-13 3.66776e-13 4.01186e-13 4.25354e-13 4.56873e-13 4.816e-13 5.15064e-13 5.68114e-13 5.76049e-13 5.72717e-13 6.17395e-13 6.72101e-13 7.2703e-13 7.44413e-13 7.41143e-13 7.5134e-13 7.46213e-13 7.21144e-13 7.38418e-13 6.99915e-13 6.55682e-13 5.81655e-13 4.95583e-13 4.03183e-13 2.99427e-13 2.0105e-13 1.24785e-13 3.94795e-14 -5.81031e-15 -9.35163e-15 -3.04012e-14 -2.25288e-14 -1.16033e-14 -3.86467e-14 -6.06394e-14 -5.91933e-14 -6.04692e-14 -5.73101e-14 -5.48287e-14 -6.61117e-14 -8.40855e-14 -7.24916e-14 -7.2361e-14 -9.25017e-14 -1.10545e-13 -1.03135e-13 -5.62996e-14 -6.30061e-14 -6.23538e-14 -2.06827e-14 -2.58745e-14 -4.30389e-14 6.56956e-15 6.02501e-14 7.02389e-14 5.31597e-14 5.15018e-15 -2.72945e-14 8.56614e-15 4.48086e-14 2.469e-14 -5.59913e-16 4.73326e-14 1.22134e-14 -7.68891e-14 -2.00472e-14 2.5889e-14 8.71609e-15 -1.02178e-14 -1.16434e-14 -2.58453e-14 -4.56711e-14 3.7398e-14 4.17996e-14 -3.57083e-14 -2.86189e-14 -4.68219e-15 0 0 4.15514e-15 5.17644e-15 6.15715e-15 7.34491e-15 6.91569e-15 6.36049e-15 5.02156e-15 2.61595e-15 1.05711e-15 -1.25246e-16 -1.51081e-15 -4.56277e-15 -5.54363e-15 1.29487e-16 -1.79607e-16 -1.97287e-15 -4.08937e-15 -3.67223e-15 -2.0749e-15 -5.83582e-15 -2.56728e-15 -7.46438e-16 -6.42957e-16 -2.01723e-15 2.25682e-15 -1.0367e-16 7.41487e-15 2.66728e-15 -2.99717e-15 4.91495e-15 7.53028e-15 1.26037e-14 8.37587e-15 1.44785e-14 1.67579e-14 3.0557e-15 -8.87356e-15 6.46266e-15 1.19502e-14 1.73429e-14 1.83002e-14 1.50208e-14 2.00417e-14 2.02567e-14 2.24016e-14 1.41323e-14 5.54773e-15 1.71689e-14 2.67313e-14 1.17261e-14 3.79495e-15 4.49873e-15 2.32112e-14 1.69035e-14 3.38962e-15 -1.30051e-14 -2.73296e-14 -6.08505e-15 3.81836e-15 -8.83547e-15 -2.18618e-14 -2.00488e-14 -1.53742e-14 -6.59467e-15 2.29591e-15 1.72597e-15 -1.2247e-14 -2.51365e-14 -1.2375e-14 3.37199e-15 -1.71922e-14 -4.95688e-15 1.24092e-14 -3.03279e-15 -1.76604e-14 5.30943e-15 4.55754e-15 -2.42834e-14 -1.10338e-15 3.16515e-14 8.05761e-15 -9.98216e-15 3.80179e-15 -2.96946e-15 -2.64527e-14 4.02285e-15 3.78048e-14 1.15848e-14 -3.34608e-14 -3.32352e-14 -4.73338e-14 -9.03095e-14 -4.67306e-14 9.51515e-14 2.86072e-13 4.60692e-13 5.95092e-13 6.69836e-13 7.41076e-13 8.74314e-13 1.55542e-12 1.52675e-12 1.47666e-12 1.50401e-12 1.57876e-12 1.56687e-12 1.37539e-12 8.29407e-13 1.85764e-13 -4.00971e-13 -7.47133e-13 -8.15378e-13 -7.41015e-13 -6.09987e-13 -5.00025e-13 -4.08683e-13 -2.79346e-13 -1.10513e-13 2.50351e-15 1.22126e-13 2.42415e-13 3.13617e-13 3.79822e-13 4.81512e-13 5.95901e-13 7.11097e-13 7.74105e-13 8.15352e-13 9.12164e-13 9.63614e-13 1.01909e-12 1.08938e-12 1.12158e-12 1.14907e-12 1.17039e-12 1.20456e-12 1.22371e-12 1.21691e-12 1.23234e-12 1.18173e-12 1.14078e-12 1.03694e-12 9.87902e-13 8.79336e-13 7.60782e-13 6.35482e-13 4.59834e-13 2.99531e-13 1.48101e-13 3.82528e-14 -7.15765e-15 -3.92781e-14 -4.24264e-14 -6.7184e-14 -1.01611e-13 -7.31191e-14 -5.66783e-14 -6.6927e-14 -5.86838e-14 -7.29299e-14 -8.42477e-14 -6.78679e-14 -5.86495e-14 -8.96309e-14 -6.64624e-14 -3.46302e-14 -2.07604e-14 -5.03908e-15 -3.91594e-14 -6.33034e-15 3.66925e-14 1.00598e-14 3.09143e-14 8.5955e-14 7.1187e-14 1.34979e-14 -2.37586e-14 -3.2753e-14 1.13194e-14 6.15092e-14 5.47163e-14 8.11221e-15 -2.70641e-14 -9.23268e-15 -5.66122e-14 -5.46845e-14 2.85172e-14 -2.55248e-14 -6.48682e-14 -2.70219e-14 -3.14743e-15 -5.43733e-15 -5.00793e-15 -6.6628e-15 -8.05412e-14 -4.26703e-14 4.13516e-14 -2.6958e-15 -4.98548e-14 0 0 1.56935e-15 1.49304e-15 4.4339e-16 -9.58826e-16 3.88946e-17 2.55581e-16 2.43113e-15 6.3059e-15 8.29266e-15 8.63246e-15 7.21567e-15 5.48126e-15 4.57697e-15 1.14453e-16 -1.39668e-15 6.43002e-16 2.99613e-15 -7.88144e-16 -5.75931e-15 -2.91465e-15 9.80103e-16 -9.10738e-16 1.03495e-15 1.10872e-14 3.58949e-15 1.57374e-15 -1.78267e-15 7.17131e-15 1.05451e-14 5.08267e-15 3.5683e-15 3.60165e-15 2.13931e-14 1.68585e-14 6.88059e-15 1.88245e-14 3.19083e-14 1.26723e-14 -4.56673e-15 -8.43391e-15 -3.95062e-15 -2.35613e-15 2.17151e-15 1.07849e-14 5.51674e-15 5.1201e-15 -2.55811e-15 -1.95849e-14 -2.03474e-14 -6.22936e-15 -2.26618e-15 -6.15303e-15 -1.48567e-14 5.61069e-15 1.18891e-14 -2.51958e-15 1.32703e-15 -8.39962e-15 -1.92934e-14 -1.5346e-14 -9.89762e-15 -2.12983e-14 -3.75375e-14 -4.55666e-14 -3.73793e-14 -1.97172e-14 1.84003e-15 -1.22434e-14 -2.82308e-14 -1.82009e-14 -9.43252e-15 -2.30763e-14 -4.17394e-14 -3.05275e-14 -5.15543e-15 9.47135e-15 9.83399e-15 6.68894e-15 1.11379e-16 -1.77482e-14 -1.50991e-14 -2.00474e-14 -5.65333e-14 -1.42885e-14 2.22454e-15 -6.83677e-15 1.97954e-14 5.0677e-15 2.13808e-15 -2.04653e-14 -7.28056e-14 -7.92658e-14 -1.07084e-14 1.05772e-13 2.81267e-13 4.68873e-13 5.84053e-13 6.73524e-13 7.48768e-13 8.65263e-13 1.53706e-12 1.49482e-12 1.53052e-12 1.56323e-12 1.57694e-12 1.59449e-12 1.36639e-12 7.81051e-13 1.02111e-13 -4.59692e-13 -7.87469e-13 -8.52148e-13 -7.86086e-13 -6.9826e-13 -5.58991e-13 -3.94329e-13 -2.58366e-13 -1.47926e-13 -2.40277e-14 9.66994e-14 1.86585e-13 3.16958e-13 4.53495e-13 5.15488e-13 5.45216e-13 5.78691e-13 6.56393e-13 7.57807e-13 8.13599e-13 8.8891e-13 9.33048e-13 9.64695e-13 1.05606e-12 1.10963e-12 1.11532e-12 1.16862e-12 1.23688e-12 1.27464e-12 1.26576e-12 1.25165e-12 1.24068e-12 1.15983e-12 1.05014e-12 9.5666e-13 8.65478e-13 6.29885e-13 4.63608e-13 2.83858e-13 1.42427e-13 6.06487e-14 -2.76403e-14 -6.86675e-14 -8.20849e-14 -7.807e-14 -6.67937e-14 -1.07711e-13 -1.16717e-13 -1.00092e-13 -1.31265e-13 -1.00522e-13 -5.71164e-14 -5.33319e-14 -4.1025e-14 -1.33317e-14 -3.90525e-14 -6.26281e-14 -6.5438e-14 -9.78214e-14 -8.37921e-14 -9.34522e-14 -1.05215e-13 -4.40086e-14 -6.59942e-14 -1.27836e-13 -1.20814e-13 -1.40264e-13 -1.71184e-13 -1.28582e-13 -6.13217e-14 -3.74556e-14 -7.10167e-14 -6.57465e-14 9.41653e-15 1.40816e-14 9.51434e-15 5.7242e-15 -4.65024e-14 -9.96047e-15 6.35412e-14 7.15566e-14 6.62968e-14 7.16294e-14 3.67629e-14 -5.51254e-15 1.49644e-14 -3.1419e-14 -1.17609e-13 -8.44036e-14 2.27255e-15 0 0 1.26632e-14 1.1871e-14 1.22815e-14 1.30238e-14 1.15291e-14 1.10543e-14 7.49674e-15 1.48882e-16 -3.31396e-15 -2.97518e-15 -1.48817e-15 2.12587e-15 3.42013e-15 -4.67845e-17 -3.6342e-15 -6.44739e-15 -1.15529e-14 -1.00627e-14 -4.00894e-15 -2.55069e-15 -9.35658e-15 -4.53579e-15 1.49921e-15 -1.02366e-14 -7.71196e-15 -4.58491e-15 -3.1535e-15 -8.07004e-15 -1.11281e-14 -6.06358e-15 1.13324e-15 2.9914e-15 -8.51805e-15 -2.52537e-15 6.00818e-15 -1.08902e-14 -3.1568e-14 -2.41473e-14 -9.58088e-15 -3.5658e-15 -3.4479e-15 8.40746e-15 1.19302e-14 -1.8567e-15 -4.66118e-15 1.86938e-15 8.35534e-15 1.34256e-14 1.60711e-14 1.88509e-14 2.26777e-14 3.33204e-14 2.23444e-14 -1.16456e-14 -7.49381e-15 -5.77701e-15 -1.55881e-14 -2.69528e-14 -4.65702e-14 -4.90287e-14 -3.38401e-14 -2.32033e-14 -2.38641e-14 -2.16193e-15 1.6314e-14 -1.68064e-14 -3.88211e-14 -1.03351e-14 4.98735e-15 -1.34801e-14 -1.3431e-14 2.42488e-15 -1.25259e-14 2.13041e-15 -3.39758e-15 -4.86213e-14 -2.4645e-14 1.2187e-14 -7.1299e-15 -1.56285e-14 -1.04769e-14 9.94835e-15 3.05109e-14 -1.07368e-14 -7.97479e-15 8.14681e-16 -4.77336e-14 -3.87059e-14 -2.10826e-14 6.57364e-16 1.08869e-14 -3.64095e-14 -3.48381e-14 6.2988e-14 1.82862e-13 2.87554e-13 3.75974e-13 4.2111e-13 4.38538e-13 5.15303e-13 9.22708e-13 9.58996e-13 9.23858e-13 9.39041e-13 9.66162e-13 9.19124e-13 8.36246e-13 5.28441e-13 1.1955e-13 -2.74571e-13 -5.21562e-13 -5.75969e-13 -5.40941e-13 -3.78054e-13 -2.63675e-13 -2.22292e-13 -1.55909e-13 -6.85852e-14 3.71031e-14 8.041e-14 1.49105e-13 2.29635e-13 2.23853e-13 2.70688e-13 3.84129e-13 4.41962e-13 4.76946e-13 5.5406e-13 5.88266e-13 5.41469e-13 5.89504e-13 6.14719e-13 5.96725e-13 6.39773e-13 7.2592e-13 7.22331e-13 6.961e-13 7.03661e-13 7.10471e-13 7.35841e-13 7.12484e-13 7.04611e-13 6.64086e-13 5.53884e-13 5.0286e-13 4.05565e-13 3.17693e-13 2.01558e-13 1.14881e-13 4.59146e-14 -1.49464e-14 -4.70462e-14 -5.57823e-14 -3.52885e-14 -5.12864e-14 -4.04245e-14 -2.15237e-14 -3.36238e-14 -2.19945e-14 -1.94514e-14 -3.58783e-14 -6.94191e-14 -5.23238e-14 -2.73425e-14 -1.03412e-14 -1.47972e-15 -9.89549e-15 1.32113e-14 2.82069e-14 4.76832e-14 1.84721e-14 -3.06598e-14 -9.5412e-15 3.47224e-14 2.97143e-14 1.41779e-14 3.66468e-14 2.42288e-14 -2.61425e-14 -1.19101e-13 -1.27613e-13 -6.23662e-14 -8.35501e-14 -8.30067e-14 -5.70773e-14 -3.2522e-14 1.47557e-14 -1.04218e-14 -5.56663e-14 -5.40846e-14 -5.88772e-14 -4.18816e-14 3.40957e-14 5.32659e-14 -1.14043e-14 -9.474e-15 4.23482e-14 2.38653e-14 -3.32417e-14 0 0 0 0 0 0 0 0 0 0 0 0 0 0 0 0 0 0 0 0 0 0 0 0 0 0 0 0 0 0 0 0 0 0 0 0 0 0 0 0 0 0 0 0 0 0 0 0 0 0 0 0 0 0 0 0 0 0 0 0 0 0 0 0 0 0 0 0 0 0 0 0 0 0 0 0 0 0 0 0 0 0 0 0 0 0 0 0 0 0