<?xml version="1.0"?>
<VTKFile type="PolyData">
	<PolyData>
		<Piece NumberOfPoints="1206" NumberOfPolys="1000">
			<Points>
				<DataArray type="Float32" NumberOfComponents="3" format="ascii">
 0 0 0 0.005 0 0 0.01 0 0 0.015 0 0 0.02 0 0 0.025 0 0 0.03 0 0 0.035 0 0 0.04 0 0 0.045 0 0 0.05 0 0 0.055 0 0 0.06 0 0 0.065 0 0 0.07 0 0 0.075 0 0 0.08 0 0 0.085 0 0 0.09 0 0 0.095 0 0 0.1 0 0 0.105 0 0 0.11 0 0 0.115 0 0 0.12 0 0 0.125 0 0 0.13 0 0 0.135 0 0 0.14 0 0 0.145 0 0 0.15 0 0 0.155 0 0 0.16 0 0 0.165 0 0 0.17 0 0 0.175 0 0 0.18 0 0 0.185 0 0 0.19 0 0 0.195 0 0 0.2 0 0 0.205 0 0 0.21 0 0 0.215 0 0 0.22 0 0 0.225 0 0 0.23 0 0 0.235 0 0 0.24 0 0 0.245 0 0 0.25 0 0 0.255 0 0 0.26 0 0 0.265 0 0 0.27 0 0 0.275 0 0 0.28 0 0 0.285 0 0 0.29 0 0 0.295 0 0 0.3 0 0 0.305 0 0 0.31 0 0 0.315 0 0 0.32 0 0 0.325 0 0 0.33 0 0 0.335 0 0 0.34 0 0 0.345 0 0 0.35 0 0 0.355 0 0 0.36 0 0 0.365 0 0 0.37 0 0 0.375 0 0 0.38 0 0 0.385 0 0 0.39 0 0 0.395 0 0 0.4 0 0 0.405 0 0 0.41 0 0 0.415 0 0 0.42 0 0 0.425 0 0 0.43 0 0 0.435 0 0 0.44 0 0 0.445 0 0 0.45 0 0 0.455 0 0 0.46 0 0 0.465004 0 0 0.47003 0 0 0.475169 0 0 0.480681 0 0 0.487033 0 0 0.494925 0 0 0.505465 0 0 0.518574 0 0 0.521235 0 0 0.52374 0 0 0.526227 0 0 0.528786 0 0 0.531506 0 0 0.534485 0 0 0.537809 0 0 0.541546 0 0 0.545714 0 0 0.550262 0 0 0.555075 0 0 0.560017 0 0 0.565003 0 0 0.570001 0 0 0.575 0 0 0.58 0 0 0.585 0 0 0.59 0 0 0.595 0 0 0.6 0 0 0.605 0 0 0.61 0 0 0.615 0 0 0.62 0 0 0.625 0 0 0.63 0 0 0.635 0 0 0.64 0 0 0.645 0 0 0.65 0 0 0.655 0 0 0.66 0 0 0.665 0 0 0.67 0 0 0.675 0 0 0.68 0 0 0.685 0 0 0.69 0 0 0.695 0 0 0.7 0 0 0.705 0 0 0.71 0 0 0.715 0 0 0.72 0 0 0.725 0 0 0.73 0 0 0.735 0 0 0.74 0 0 0.745 0 0 0.75 0 0 0.755 0 0 0.76 0 0 0.765 0 0 0.77 0 0 0.775 0 0 0.78 0 0 0.785 0 0 0.79 0 0 0.795 0 0 0.8 0 0 0.805 0 0 0.81 0 0 0.815 0 0 0.82 0 0 0.825 0 0 0.83 0 0 0.835 0 0 0.84 0 0 0.845 0 0 0.85 0 0 0.855 0 0 0.86 0 0 0.865 0 0 0.87 0 0 0.875 0 0 0.88 0 0 0.885 0 0 0.89 0 0 0.895 0 0 0.9 0 0 0.905 0 0 0.91 0 0 0.915 0 0 0.92 0 0 0.925 0 0 0.93 0 0 0.935 0 0 0.94 0 0 0.945 0 0 0.95 0 0 0.955 0 0 0.96 0 0 0.965 0 0 0.97 0 0 0.975 0 0 0.98 0 0 0.985 0 0 0.99 0 0 0.995 0 0 1 0 0 0 0.02 0 0.005 0.02 0 0.01 0.02 0 0.015 0.02 0 0.02 0.02 0 0.025 0.02 0 0.03 0.02 0 0.035 0.02 0 0.04 0.02 0 0.045 0.02 0 0.05 0.02 0 0.055 0.02 0 0.06 0.02 0 0.065 0.02 0 0.07 0.02 0 0.075 0.02 0 0.08 0.02 0 0.085 0.02 0 0.09 0.02 0 0.095 0.02 0 0.1 0.02 0 0.105 0.02 0 0.11 0.02 0 0.115 0.02 0 0.12 0.02 0 0.125 0.02 0 0.13 0.02 0 0.135 0.02 0 0.14 0.02 0 0.145 0.02 0 0.15 0.02 0 0.155 0.02 0 0.16 0.02 0 0.165 0.02 0 0.17 0.02 0 0.175 0.02 0 0.18 0.02 0 0.185 0.02 0 0.19 0.02 0 0.195 0.02 0 0.2 0.02 0 0.205 0.02 0 0.21 0.02 0 0.215 0.02 0 0.22 0.02 0 0.225 0.02 0 0.23 0.02 0 0.235 0.02 0 0.24 0.02 0 0.245 0.02 0 0.25 0.02 0 0.255 0.02 0 0.26 0.02 0 0.265 0.02 0 0.27 0.02 0 0.275 0.02 0 0.28 0.02 0 0.285 0.02 0 0.29 0.02 0 0.295 0.02 0 0.3 0.02 0 0.305 0.02 0 0.31 0.02 0 0.315 0.02 0 0.32 0.02 0 0.325 0.02 0 0.33 0.02 0 0.335 0.02 0 0.34 0.02 0 0.345 0.02 0 0.35 0.02 0 0.355 0.02 0 0.36 0.02 0 0.365 0.02 0 0.37 0.02 0 0.375 0.02 0 0.38 0.02 0 0.385 0.02 0 0.39 0.02 0 0.395 0.02 0 0.4 0.02 0 0.405 0.02 0 0.41 0.02 0 0.415 0.02 0 0.42 0.02 0 0.425 0.02 0 0.43 0.02 0 0.435 0.02 0 0.44 0.02 0 0.445 0.02 0 0.45 0.02 0 0.455 0.02 0 0.46 0.02 0 0.465004 0.02 0 0.47003 0.02 0 0.475169 0.02 0 0.480681 0.02 0 0.487033 0.02 0 0.494925 0.02 0 0.505465 0.02 0 0.518574 0.02 0 0.521235 0.02 0 0.52374 0.02 0 0.526227 0.02 0 0.528786 0.02 0 0.531506 0.02 0 0.534485 0.02 0 0.537809 0.02 0 0.541546 0.02 0 0.545714 0.02 0 0.550262 0.02 0 0.555075 0.02 0 0.560017 0.02 0 0.565003 0.02 0 0.570001 0.02 0 0.575 0.02 0 0.58 0.02 0 0.585 0.02 0 0.59 0.02 0 0.595 0.02 0 0.6 0.02 0 0.605 0.02 0 0.61 0.02 0 0.615 0.02 0 0.62 0.02 0 0.625 0.02 0 0.63 0.02 0 0.635 0.02 0 0.64 0.02 0 0.645 0.02 0 0.65 0.02 0 0.655 0.02 0 0.66 0.02 0 0.665 0.02 0 0.67 0.02 0 0.675 0.02 0 0.68 0.02 0 0.685 0.02 0 0.69 0.02 0 0.695 0.02 0 0.7 0.02 0 0.705 0.02 0 0.71 0.02 0 0.715 0.02 0 0.72 0.02 0 0.725 0.02 0 0.73 0.02 0 0.735 0.02 0 0.74 0.02 0 0.745 0.02 0 0.75 0.02 0 0.755 0.02 0 0.76 0.02 0 0.765 0.02 0 0.77 0.02 0 0.775 0.02 0 0.78 0.02 0 0.785 0.02 0 0.79 0.02 0 0.795 0.02 0 0.8 0.02 0 0.805 0.02 0 0.81 0.02 0 0.815 0.02 0 0.82 0.02 0 0.825 0.02 0 0.83 0.02 0 0.835 0.02 0 0.84 0.02 0 0.845 0.02 0 0.85 0.02 0 0.855 0.02 0 0.86 0.02 0 0.865 0.02 0 0.87 0.02 0 0.875 0.02 0 0.88 0.02 0 0.885 0.02 0 0.89 0.02 0 0.895 0.02 0 0.9 0.02 0 0.905 0.02 0 0.91 0.02 0 0.915 0.02 0 0.92 0.02 0 0.925 0.02 0 0.93 0.02 0 0.935 0.02 0 0.94 0.02 0 0.945 0.02 0 0.95 0.02 0 0.955 0.02 0 0.96 0.02 0 0.965 0.02 0 0.97 0.02 0 0.975 0.02 0 0.98 0.02 0 0.985 0.02 0 0.99 0.02 0 0.995 0.02 0 1 0.02 0 0 0.04 0 0.005 0.04 0 0.01 0.04 0 0.015 0.04 0 0.02 0.04 0 0.025 0.04 0 0.03 0.04 0 0.035 0.04 0 0.04 0.04 0 0.045 0.04 0 0.05 0.04 0 0.055 0.04 0 0.06 0.04 0 0.065 0.04 0 0.07 0.04 0 0.075 0.04 0 0.08 0.04 0 0.085 0.04 0 0.09 0.04 0 0.095 0.04 0 0.1 0.04 0 0.105 0.04 0 0.11 0.04 0 0.115 0.04 0 0.12 0.04 0 0.125 0.04 0 0.13 0.04 0 0.135 0.04 0 0.14 0.04 0 0.145 0.04 0 0.15 0.04 0 0.155 0.04 0 0.16 0.04 0 0.165 0.04 0 0.17 0.04 0 0.175 0.04 0 0.18 0.04 0 0.185 0.04 0 0.19 0.04 0 0.195 0.04 0 0.2 0.04 0 0.205 0.04 0 0.21 0.04 0 0.215 0.04 0 0.22 0.04 0 0.225 0.04 0 0.23 0.04 0 0.235 0.04 0 0.24 0.04 0 0.245 0.04 0 0.25 0.04 0 0.255 0.04 0 0.26 0.04 0 0.265 0.04 0 0.27 0.04 0 0.275 0.04 0 0.28 0.04 0 0.285 0.04 0 0.29 0.04 0 0.295 0.04 0 0.3 0.04 0 0.305 0.04 0 0.31 0.04 0 0.315 0.04 0 0.32 0.04 0 0.325 0.04 0 0.33 0.04 0 0.335 0.04 0 0.34 0.04 0 0.345 0.04 0 0.35 0.04 0 0.355 0.04 0 0.36 0.04 0 0.365 0.04 0 0.37 0.04 0 0.375 0.04 0 0.38 0.04 0 0.385 0.04 0 0.39 0.04 0 0.395 0.04 0 0.4 0.04 0 0.405 0.04 0 0.41 0.04 0 0.415 0.04 0 0.42 0.04 0 0.425 0.04 0 0.43 0.04 0 0.435 0.04 0 0.44 0.04 0 0.445 0.04 0 0.45 0.04 0 0.455 0.04 0 0.46 0.04 0 0.465004 0.04 0 0.47003 0.04 0 0.475169 0.04 0 0.480681 0.04 0 0.487033 0.04 0 0.494925 0.04 0 0.505465 0.04 0 0.518574 0.04 0 0.521235 0.04 0 0.52374 0.04 0 0.526227 0.04 0 0.528786 0.04 0 0.531506 0.04 0 0.534485 0.04 0 0.537809 0.04 0 0.541546 0.04 0 0.545714 0.04 0 0.550262 0.04 0 0.555075 0.04 0 0.560017 0.04 0 0.565003 0.04 0 0.570001 0.04 0 0.575 0.04 0 0.58 0.04 0 0.585 0.04 0 0.59 0.04 0 0.595 0.04 0 0.6 0.04 0 0.605 0.04 0 0.61 0.04 0 0.615 0.04 0 0.62 0.04 0 0.625 0.04 0 0.63 0.04 0 0.635 0.04 0 0.64 0.04 0 0.645 0.04 0 0.65 0.04 0 0.655 0.04 0 0.66 0.04 0 0.665 0.04 0 0.67 0.04 0 0.675 0.04 0 0.68 0.04 0 0.685 0.04 0 0.69 0.04 0 0.695 0.04 0 0.7 0.04 0 0.705 0.04 0 0.71 0.04 0 0.715 0.04 0 0.72 0.04 0 0.725 0.04 0 0.73 0.04 0 0.735 0.04 0 0.74 0.04 0 0.745 0.04 0 0.75 0.04 0 0.755 0.04 0 0.76 0.04 0 0.765 0.04 0 0.77 0.04 0 0.775 0.04 0 0.78 0.04 0 0.785 0.04 0 0.79 0.04 0 0.795 0.04 0 0.8 0.04 0 0.805 0.04 0 0.81 0.04 0 0.815 0.04 0 0.82 0.04 0 0.825 0.04 0 0.83 0.04 0 0.835 0.04 0 0.84 0.04 0 0.845 0.04 0 0.85 0.04 0 0.855 0.04 0 0.86 0.04 0 0.865 0.04 0 0.87 0.04 0 0.875 0.04 0 0.88 0.04 0 0.885 0.04 0 0.89 0.04 0 0.895 0.04 0 0.9 0.04 0 0.905 0.04 0 0.91 0.04 0 0.915 0.04 0 0.92 0.04 0 0.925 0.04 0 0.93 0.04 0 0.935 0.04 0 0.94 0.04 0 0.945 0.04 0 0.95 0.04 0 0.955 0.04 0 0.96 0.04 0 0.965 0.04 0 0.97 0.04 0 0.975 0.04 0 0.98 0.04 0 0.985 0.04 0 0.99 0.04 0 0.995 0.04 0 1 0.04 0 0 0.06 0 0.005 0.06 0 0.01 0.06 0 0.015 0.06 0 0.02 0.06 0 0.025 0.06 0 0.03 0.06 0 0.035 0.06 0 0.04 0.06 0 0.045 0.06 0 0.05 0.06 0 0.055 0.06 0 0.06 0.06 0 0.065 0.06 0 0.07 0.06 0 0.075 0.06 0 0.08 0.06 0 0.085 0.06 0 0.09 0.06 0 0.095 0.06 0 0.1 0.06 0 0.105 0.06 0 0.11 0.06 0 0.115 0.06 0 0.12 0.06 0 0.125 0.06 0 0.13 0.06 0 0.135 0.06 0 0.14 0.06 0 0.145 0.06 0 0.15 0.06 0 0.155 0.06 0 0.16 0.06 0 0.165 0.06 0 0.17 0.06 0 0.175 0.06 0 0.18 0.06 0 0.185 0.06 0 0.19 0.06 0 0.195 0.06 0 0.2 0.06 0 0.205 0.06 0 0.21 0.06 0 0.215 0.06 0 0.22 0.06 0 0.225 0.06 0 0.23 0.06 0 0.235 0.06 0 0.24 0.06 0 0.245 0.06 0 0.25 0.06 0 0.255 0.06 0 0.26 0.06 0 0.265 0.06 0 0.27 0.06 0 0.275 0.06 0 0.28 0.06 0 0.285 0.06 0 0.29 0.06 0 0.295 0.06 0 0.3 0.06 0 0.305 0.06 0 0.31 0.06 0 0.315 0.06 0 0.32 0.06 0 0.325 0.06 0 0.33 0.06 0 0.335 0.06 0 0.34 0.06 0 0.345 0.06 0 0.35 0.06 0 0.355 0.06 0 0.36 0.06 0 0.365 0.06 0 0.37 0.06 0 0.375 0.06 0 0.38 0.06 0 0.385 0.06 0 0.39 0.06 0 0.395 0.06 0 0.4 0.06 0 0.405 0.06 0 0.41 0.06 0 0.415 0.06 0 0.42 0.06 0 0.425 0.06 0 0.43 0.06 0 0.435 0.06 0 0.44 0.06 0 0.445 0.06 0 0.45 0.06 0 0.455 0.06 0 0.46 0.06 0 0.465004 0.06 0 0.47003 0.06 0 0.475169 0.06 0 0.480681 0.06 0 0.487033 0.06 0 0.494925 0.06 0 0.505465 0.06 0 0.518574 0.06 0 0.521235 0.06 0 0.52374 0.06 0 0.526227 0.06 0 0.528786 0.06 0 0.531506 0.06 0 0.534485 0.06 0 0.537809 0.06 0 0.541546 0.06 0 0.545714 0.06 0 0.550262 0.06 0 0.555075 0.06 0 0.560017 0.06 0 0.565003 0.06 0 0.570001 0.06 0 0.575 0.06 0 0.58 0.06 0 0.585 0.06 0 0.59 0.06 0 0.595 0.06 0 0.6 0.06 0 0.605 0.06 0 0.61 0.06 0 0.615 0.06 0 0.62 0.06 0 0.625 0.06 0 0.63 0.06 0 0.635 0.06 0 0.64 0.06 0 0.645 0.06 0 0.65 0.06 0 0.655 0.06 0 0.66 0.06 0 0.665 0.06 0 0.67 0.06 0 0.675 0.06 0 0.68 0.06 0 0.685 0.06 0 0.69 0.06 0 0.695 0.06 0 0.7 0.06 0 0.705 0.06 0 0.71 0.06 0 0.715 0.06 0 0.72 0.06 0 0.725 0.06 0 0.73 0.06 0 0.735 0.06 0 0.74 0.06 0 0.745 0.06 0 0.75 0.06 0 0.755 0.06 0 0.76 0.06 0 0.765 0.06 0 0.77 0.06 0 0.775 0.06 0 0.78 0.06 0 0.785 0.06 0 0.79 0.06 0 0.795 0.06 0 0.8 0.06 0 0.805 0.06 0 0.81 0.06 0 0.815 0.06 0 0.82 0.06 0 0.825 0.06 0 0.83 0.06 0 0.835 0.06 0 0.84 0.06 0 0.845 0.06 0 0.85 0.06 0 0.855 0.06 0 0.86 0.06 0 0.865 0.06 0 0.87 0.06 0 0.875 0.06 0 0.88 0.06 0 0.885 0.06 0 0.89 0.06 0 0.895 0.06 0 0.9 0.06 0 0.905 0.06 0 0.91 0.06 0 0.915 0.06 0 0.92 0.06 0 0.925 0.06 0 0.93 0.06 0 0.935 0.06 0 0.94 0.06 0 0.945 0.06 0 0.95 0.06 0 0.955 0.06 0 0.96 0.06 0 0.965 0.06 0 0.97 0.06 0 0.975 0.06 0 0.98 0.06 0 0.985 0.06 0 0.99 0.06 0 0.995 0.06 0 1 0.06 0 0 0.08 0 0.005 0.08 0 0.01 0.08 0 0.015 0.08 0 0.02 0.08 0 0.025 0.08 0 0.03 0.08 0 0.035 0.08 0 0.04 0.08 0 0.045 0
[...]
			<PointData Scalars="VitesseX">
				<DataArray Name="VitesseX" type="Float32" format="ascii">
 0 0 0 0 0 0 0 0 0 0 0 0 0 0 0 0 0 0 0 0 0 0 0 0 0 0 0 0 0 0 0 0 0 0 0 0 0 0 0 0 0 0 0 0 0 0 0 0 0 0 0 0 0 0 0 0 0 0 0 0 0 0 0 0 0 0 0 0 0 0 0 0 0 0 0 0 0 0 0 0 0 0 0 0 0 0 0 0 0 0 0 0 0 0 0 0 0 0 0 0 0 0 0 0 0 0 0 0 0 0 0 0 0 0 0 0 0 0 0 0 0 0 0 0 0 0 0 0 0 0 0 0 0 0 0 0 0 0 0 0 0 0 0 0 0 0 0 0 0 0 0 0 0 0 0 0 0 0 0 0 0 0 0 0 0 0 0 0 0 0 0 0 0 0 0 0 0 0 0 0 0 0 0 0 0 0 0 0 0 0 0 0 0 0 0 0 0 0 0 0 0 0 0 -1.12661e-15 1.47505e-15 -1.69954e-15 5.5199e-16 -2.49194e-15 5.08382e-15 -4.92357e-15 5.57109e-15 -3.29597e-15 -4.20189e-16 3.56079e-16 -9.52092e-15 1.28889e-14 8.86118e-17 -9.94591e-15 8.79124e-15 -7.15889e-15 8.55547e-15 4.86733e-15 -1.32819e-14 -2.30116e-16 5.63475e-15 -3.55995e-15 1.37956e-14 -2.64226e-14 6.83635e-15 1.06827e-14 4.88728e-15 -8.61695e-15 2.02858e-14 -1.71041e-14 -1.50953e-14 1.88208e-14 -6.05559e-15 -8.2431e-15 3.18363e-15 1.4798e-14 -1.76869e-14 1.78624e-14 -4.2177e-15 -1.97703e-14 2.26371e-14 -9.46099e-15 1.7732e-15 -7.29615e-15 2.18153e-15 -9.03519e-15 2.27197e-14 6.22572e-15 -7.13186e-15 -1.41601e-14 2.17282e-14 -8.93475e-15 1.28552e-15 -1.04865e-14 -3.96849e-15 -2.25575e-14 3.29652e-14 9.95761e-15 -2.9595e-14 3.90612e-14 -1.3928e-14 7.08082e-15 -1.3163e-15 -4.00693e-14 3.21867e-14 -4.39118e-15 -8.6675e-16 3.29994e-14 -1.24208e-14 1.16918e-14 -1.30549e-14 -3.99672e-14 5.19887e-14 1.51187e-14 -1.26984e-14 -1.79652e-14 4.76871e-16 -3.06213e-14 2.9752e-14 -3.82538e-14 2.30317e-14 2.813e-14 7.66315e-14 1.58055e-12 5.87065e-11 1.80507e-09 4.60821e-08 9.60411e-07 1.59748e-05 0.000205763 0.00196873 0.0132397 0.0592674 0.175797 0.375086 0.648651 0.958609 0.930878 0.964467 0.979096 0.962739 0.9201 0.839969 0.724908 0.575326 0.406802 0.242759 0.113529 0.0388709 0.0100766 0.00220277 0.000434862 7.94235e-05 1.3524e-05 2.15383e-06 3.21419e-07 4.50029e-08 5.91746e-09 7.31332e-10 8.49677e-11 9.2941e-12 1.03051e-12 3.60477e-14 3.99178e-14 -8.58928e-15 -2.72982e-14 5.23538e-14 -8.08061e-14 6.98482e-14 -5.73963e-15 2.23618e-14 1.45097e-14 -5.59379e-14 2.27777e-14 -1.72549e-14 -9.12702e-15 4.16686e-14 -4.20497e-14 5.24161e-14 -9.77471e-15 -1.8149e-14 -1.43767e-14 7.2481e-14 -8.30283e-14 3.97394e-14 6.5779e-15 -4.71117e-16 2.69089e-14 -3.27825e-15 -2.74071e-15 -8.89754e-14 6.04956e-14 -2.2382e-14 7.01822e-14 7.47224e-14 -4.18824e-14 -8.70358e-14 8.59431e-14 -1.92129e-14 -2.29021e-14 2.8315e-15 6.69691e-14 -1.17877e-13 -4.90303e-14 1.12602e-13 -6.78369e-14 6.37043e-14 -9.46208e-14 -2.4412e-14 8.7767e-14 -3.31659e-14 2.93155e-14 -6.87005e-14 2.93339e-14 -2.62835e-15 -5.27616e-14 7.86495e-14 -5.13892e-14 -3.63573e-14 1.55867e-14 9.81009e-15 8.65395e-14 -9.48101e-14 6.65105e-14 -5.85797e-14 -4.2029e-15 6.70388e-14 -7.07826e-14 7.1512e-15 -2.4992e-15 -1.17829e-14 4.95156e-14 -2.77519e-14 -4.6564e-14 7.99759e-14 -5.30079e-14 -1.45516e-14 0 0 4.21797e-16 -2.516e-16 2.25038e-15 -2.06073e-16 -2.83823e-15 -2.67629e-15 3.77567e-15 6.12909e-16 -3.02906e-16 3.41901e-15 -8.80048e-15 4.13465e-15 -9.32945e-15 1.19809e-14 -3.88049e-15 9.39042e-16 1.30473e-14 -1.11319e-14 -2.85435e-15 5.26559e-15 -7.37152e-15 3.5332e-15 6.63283e-15 -7.43789e-15 1.811e-15 4.88693e-15 -2.48155e-14 2.62481e-14 1.43015e-15 -1.34415e-14 2.13746e-14 7.10473e-16 -1.71368e-14 2.84118e-15 -7.00899e-15 1.01745e-14 -2.20577e-14 2.72356e-14 -5.33504e-15 -9.84725e-15 1.03024e-14 -2.17731e-14 1.48627e-14 1.33769e-15 1.88202e-15 -6.05852e-15 1.36904e-14 -1.25643e-14 1.11469e-15 4.68076e-15 1.28295e-14 1.53395e-14 7.79029e-16 -1.233e-14 -1.41023e-14 4.11303e-14 -2.95532e-14 -2.36633e-14 4.52816e-14 -1.23528e-14 1.71068e-15 1.04729e-14 -1.82724e-14 9.98447e-15 -1.48902e-14 -4.15819e-14 4.38153e-14 3.31318e-14 -4.87932e-14 3.024e-14 3.22126e-14 -7.52848e-15 -1.55656e-14 -3.78538e-14 4.11228e-14 3.37789e-14 -8.68488e-15 -1.44785e-14 -4.12209e-14 4.68461e-14 -4.78698e-14 -4.9799e-15 1.92238e-14 5.49051e-15 7.56086e-14 1.56442e-12 5.87467e-11 1.80505e-09 4.60822e-08 9.60411e-07 1.59748e-05 0.000205763 0.00196873 0.0132397 0.0592674 0.175797 0.375086 0.648651 0.958609 0.930878 0.964467 0.979096 0.962739 0.9201 0.839969 0.724908 0.575326 0.406802 0.242759 0.113529 0.0388709 0.0100766 0.00220277 0.000434862 7.94235e-05 1.3524e-05 2.15383e-06 3.21419e-07 4.5003e-08 5.91744e-09 7.3131e-10 8.5035e-11 9.2913e-12 9.8038e-13 9.9864e-14 -4.6797e-14 8.73152e-14 -5.35013e-14 1.82913e-14 -8.05542e-14 3.51163e-14 1.77556e-14 4.15156e-14 -7.99355e-14 3.29794e-14 -1.94567e-14 7.30367e-14 -9.84234e-14 8.40007e-14 9.28625e-15 1.80039e-14 -9.12504e-14 9.04999e-14 -6.19102e-14 6.67392e-14 -6.93605e-14 1.99712e-14 3.67546e-14 -1.91955e-14 7.54965e-14 -3.28358e-14 -7.33146e-14 -3.69889e-15 9.45596e-15 3.34305e-14 6.07743e-14 7.87568e-14 -5.4343e-14 -8.09425e-14 1.45138e-14 2.7964e-14 -5.94781e-14 5.27919e-14 6.01122e-14 -1.70645e-14 3.08759e-14 -2.16625e-14 -7.08943e-16 -1.80862e-13 9.36947e-14 -1.0007e-13 2.63527e-14 8.02957e-14 -8.2546e-14 -1.32135e-14 4.68589e-15 -2.90351e-14 -8.64006e-15 2.73906e-14 2.00008e-14 -1.10799e-14 3.88363e-14 -2.78577e-14 3.85797e-14 -4.48899e-14 5.85455e-14 -7.9713e-14 -3.47489e-14 7.60827e-14 -3.50648e-14 -2.32109e-14 -1.10745e-14 -6.71036e-15 6.20618e-14 -3.27979e-14 2.68263e-15 -2.00007e-14 5.09675e-15 1.67733e-14 0 0 -9.13894e-16 2.27971e-15 -2.34631e-15 1.81423e-15 -6.36496e-16 -2.51867e-15 1.16145e-15 3.00448e-15 -3.978e-15 4.32954e-15 -6.64652e-15 3.81035e-15 -1.28381e-15 2.93418e-15 1.12036e-15 2.98551e-15 -1.24742e-14 1.26037e-14 -4.56827e-15 -1.25076e-14 5.33913e-15 2.07092e-14 -7.15853e-15 -6.7503e-15 7.78921e-15 -1.26912e-16 -1.03294e-14 3.77314e-15 -1.38497e-14 1.19873e-14 1.22275e-14 1.78195e-14 -1.89697e-14 -1.69639e-14 9.59962e-15 -1.77884e-14 1.59129e-14 -9.95052e-15 6.61458e-15 -1.06714e-14 1.11513e-14 1.34714e-14 -1.24962e-14 -1.63794e-14 1.22274e-14 6.76457e-15 1.12579e-14 -1.0331e-14 -1.76107e-14 2.9447e-14 3.57699e-15 4.58813e-14 -3.54917e-14 -4.93355e-15 6.83998e-15 8.71125e-15 -3.39341e-14 3.79567e-14 8.68178e-15 -1.71079e-14 2.65385e-14 -2.93717e-14 3.79668e-14 5.59863e-15 -6.42445e-14 -4.16665e-14 4.58026e-14 5.01579e-14 -4.81703e-14 7.34171e-15 2.79343e-14 -2.30547e-14 2.06918e-14 -5.56859e-15 1.89995e-14 -1.30984e-14 5.34279e-14 1.60479e-14 -3.42636e-14 2.33279e-14 -1.97629e-14 6.17775e-15 -5.15948e-14 -1.66867e-14 1.37546e-13 1.54421e-12 5.87551e-11 1.80504e-09 4.60821e-08 9.60411e-07 1.59748e-05 0.000205763 0.00196873 0.0132397 0.0592674 0.175797 0.375086 0.648651 0.958609 0.930878 0.964467 0.979096 0.962739 0.9201 0.839969 0.724908 0.575326 0.406802 0.242759 0.113529 0.0388709 0.0100766 0.00220277 0.000434862 7.94235e-05 1.3524e-05 2.15383e-06 3.21419e-07 4.50029e-08 5.91743e-09 7.31309e-10 8.51062e-11 9.34498e-12 8.60528e-13 1.37649e-13 -4.93917e-14 7.66864e-14 -2.82235e-14 -2.69458e-14 3.6571e-14 -8.41352e-14 6.68309e-14 -2.76079e-14 -9.50384e-14 1.44466e-13 -1.10555e-13 2.97555e-14 3.34329e-14 1.01998e-13 -3.35215e-14 1.07924e-14 -8.29387e-14 1.07372e-13 -1.2508e-13 4.49713e-14 5.0573e-16 -4.30978e-14 1.44142e-13 -1.13253e-13 6.21061e-14 3.96275e-15 -9.16721e-14 4.99888e-14 -4.06333e-14 7.52424e-14 7.3041e-14 1.01983e-13 -9.96917e-14 -8.70987e-14 -8.53078e-14 3.06692e-14 1.217e-13 4.93422e-15 4.93836e-14 5.10558e-14 4.37427e-15 -8.7255e-14 -3.60026e-14 -1.49002e-13 6.72901e-14 -6.68278e-14 -6.85313e-14 1.07823e-13 -1.90152e-14 1.42233e-14 8.13853e-14 -1.49102e-13 1.9293e-14 1.78152e-14 3.71639e-14 2.74043e-14 7.82947e-14 -7.0331e-14 -8.80111e-14 1.86349e-14 9.5358e-14 -4.07334e-14 -1.04221e-14 -5.25017e-14 4.29294e-14 -8.5887e-14 -8.05045e-14 5.79394e-14 9.10358e-14 -2.22777e-14 -7.80341e-14 -1.86976e-14 3.37665e-14 -6.97108e-15 0 0 -7.69277e-16 2.42064e-15 -2.38322e-15 -3.04778e-15 2.56636e-15 -1.62482e-15 4.83172e-15 -2.02147e-15 2.95473e-15 -5.64933e-15 2.3864e-15 1.43148e-15 -4.46216e-15 1.2882e-14 -1.85774e-15 -2.2755e-15 -1.17044e-14 3.33539e-15 1.45347e-14 3.90103e-15 -2.93225e-15 4.51485e-15 3.01528e-16 1.18817e-14 -3.23702e-15 -3.21647e-14 1.38778e-14 -1.3455e-14 -3.83055e-16 9.07139e-15 2.8598e-15 1.55009e-14 -1.11475e-15 -2.98751e-15 -7.97948e-15 -1.94361e-14 2.04465e-14 -2.00758e-14 -2.39188e-15 2.41469e-14 -7.97545e-15 5.64169e-15 -2.37232e-14 -1.41362e-14 8.19431e-15 1.66547e-14 1.0932e-14 2.01234e-15 -7.54158e-16 9.25403e-15 -3.81266e-15 4.64024e-14 -3.13083e-14 -3.01113e-14 1.53719e-14 -5.53943e-15 -2.35046e-14 4.75053e-14 -3.01448e-14 1.78233e-14 6.3046e-15 2.40557e-15 3.89872e-14 -4.66826e-15 -4.7573e-14 -2.79984e-15 -2.31637e-14 7.52707e-14 -1.95712e-14 -1.67146e-14 -1.68155e-14 1.29547e-14 4.21836e-14 -1.81118e-14 1.04553e-15 1.222e-14 6.21367e-14 6.4363e-14 -1.00587e-13 3.30028e-14 1.30036e-13 -1.06297e-13 -5.54043e-14 -4.05423e-14 2.49027e-13 1.45677e-12 5.87458e-11 1.80503e-09 4.6082e-08 9.60411e-07 1.59748e-05 0.000205763 0.00196873 0.0132397 0.0592674 0.175797 0.375086 0.648651 0.958609 0.930878 0.964467 0.979096 0.962739 0.9201 0.839969 0.724908 0.575326 0.406802 0.242759 0.113529 0.0388709 0.0100766 0.00220277 0.000434862 7.94235e-05 1.3524e-05 2.15383e-06 3.21419e-07 4.50028e-08 5.91749e-09 7.31307e-10 8.50512e-11 9.3756e-12 8.72088e-13 5.73894e-14 1.1493e-14 3.25317e-14 -5.95862e-14 1.10887e-13 3.83032e-14 -1.27509e-13 1.03392e-13 -3.88436e-14 -1.12021e-13 1.10931e-13 -9.15516e-14 -4.80732e-14 1.25771e-13 9.96892e-14 -1.31722e-13 2.02807e-13 -2.2116e-13 2.26493e-15 2.28501e-14 4.70756e-14 2.68003e-16 -1.1253e-13 1.1369e-13 -6.53091e-14 1.51168e-15 8.20785e-14 -6.82991e-14 1.47294e-15 8.27643e-14 1.13323e-14 3.26722e-14 7.19772e-14 -1.41303e-13 -4.55194e-15 -9.08574e-14 4.7733e-14 1.18816e-13 -3.18564e-14 6.18838e-14 2.45464e-14 -9.36198e-14 -3.39107e-14 -9.55457e-14 4.83348e-14 -4.95372e-14 -2.50736e-14 1.31751e-14 -2.1835e-14 8.28602e-14 -4.32583e-15 1.36015e-13 -2.0847e-14 -9.18066e-14 -8.93915e-14 8.97688e-14 -3.69164e-14 9.78647e-14 -1.01506e-13 -1.53398e-14 -4.85754e-15 4.51191e-14 8.27811e-15 5.02052e-14 -9.41671e-14 4.90143e-14 -1.13029e-13 3.62961e-15 -1.82254e-14 3.74334e-14 1.05434e-14 -9.6615e-14 7.62206e-14 3.97014e-14 -7.51341e-14 0 0 0 0 0 0 0 0 0 0 0 0 0 0 0 0 0 0 0 0 0 0 0 0 0 0 0 0 0 0 0 0 0 0 0 0 0 0 0 0 0 0 0 0 0 0 0 0 0 0 0 0 0 0 0 0 0 0 0 0 0 0 0 0 0 0 0 0 0 0 0 0 0 0 0 0 0 0 0 0 0 0 0 0 0 0 0 0 0 0 0 0 0 0 0 0 0 0 0 0 0 0 0 0 0 0 0 0 0 0 0 0 0 0 0 0 0 0 0 0 0 0 0 0 0 0 0 0 0 0 0 0 0 0 0 0 0 0 0 0 0 0 0 0 0 0 0 0 0 0 0 0 0 0 0 0 0 0 0 0 0 0 0 0 0 0 0 0 0 0 0 0 0 0 0 0 0 0 0 0 0 0 0 0 0 0 0 0 0 0 0 0 0 0 0 0 0 0 0 0 0 0
				</DataArray>
				<DataArray Name="VitesseY" type="Float32" format="ascii">