<?xml version="1.0"?>
<VTKFile type="PolyData">
	<PolyData>
		<Piece NumberOfPoints="1206" NumberOfPolys="1000">
			<Points>
				<DataArray type="Float32" NumberOfComponents="3" format="ascii">
 0 0 0 0.005 0 0 0.01 0 0 0.015 0 0 0.02 0 0 0.025 0 0 0.03 0 0 0.035 0 0 0.04 0 0 0.045 0 0 0.05 0 0 0.055 0 0 0.06 0 0 0.065 0 0 0.07 0 0 0.075 0 0 0.08 0 0 0.085 0 0 0.09 0 0 0.095 0 0 0.1 0 0 0.105 0 0 0.11 0 0 0.115 0 0 0.12 0 0 0.125 0 0 0.13 0 0 0.135 0 0 0.14 0 0 0.145 0 0 0.15 0 0 0.155 0 0 0.16 0 0 0.165 0 0 0.17 0 0 0.175 0 0 0.18 0 0 0.185 0 0 0.19 0 0 0.195 0 0 0.2 0 0 0.205 0 0 0.21 0 0 0.215 0 0 0.22 0 0 0.225 0 0 0.23 0 0 0.235 0 0 0.24 0 0 0.245 0 0 0.25 0 0 0.255 0 0 0.26 0 0 0.265 0 0 0.27 0 0 0.275 0 0 0.28 0 0 0.285 0 0 0.29 0 0 0.295 0 0 0.3 0 0 0.305 0 0 0.31 0 0 0.315 0 0 0.32 0 0 0.325 0 0 0.33 0 0 0.335 0 0 0.34 0 0 0.345 0 0 0.35 0 0 0.355 0 0 0.36 0 0 0.365 0 0 0.37 0 0 0.375 0 0 0.38 0 0 0.385 0 0 0.39 0 0 0.395 0 0 0.4 0 0 0.405 0 0 0.41 0 0 0.415 0 0 0.420001 0 0 0.425005 0 0 0.430024 0 0 0.435087 0 0 0.440258 0 0 0.445633 0 0 0.451319 0 0 0.457424 0 0 0.464055 0 0 0.471343 0 0 0.479453 0 0 0.488605 0 0 0.499062 0 0 0.510955 0 0 0.523436 0 0 0.535528 0 0 0.54741 0 0 0.550031 0 0 0.552578 0 0 0.55508 0 0 0.557553 0 0 0.560006 0 0 0.562446 0 0 0.564879 0 0 0.567313 0 0 0.569749 0 0 0.572177 0 0 0.574591 0 0 0.577014 0 0 0.579471 0 0 0.582014 0 0 0.584634 0 0 0.587439 0 0 0.59045 0 0 0.593713 0 0 0.597326 0 0 0.601302 0 0 0.605638 0 0 0.610269 0 0 0.615099 0 0 0.620033 0 0 0.62501 0 0 0.630003 0 0 0.635001 0 0 0.64 0 0 0.645 0 0 0.65 0 0 0.655 0 0 0.66 0 0 0.665 0 0 0.67 0 0 0.675 0 0 0.68 0 0 0.685 0 0 0.69 0 0 0.695 0 0 0.7 0 0 0.705 0 0 0.71 0 0 0.715 0 0 0.72 0 0 0.725 0 0 0.73 0 0 0.735 0 0 0.74 0 0 0.745 0 0 0.75 0 0 0.755 0 0 0.76 0 0 0.765 0 0 0.77 0 0 0.775 0 0 0.78 0 0 0.785 0 0 0.79 0 0 0.795 0 0 0.8 0 0 0.805 0 0 0.81 0 0 0.815 0 0 0.82 0 0 0.825 0 0 0.83 0 0 0.835 0 0 0.84 0 0 0.845 0 0 0.85 0 0 0.855 0 0 0.86 0 0 0.865 0 0 0.87 0 0 0.875 0 0 0.88 0 0 0.885 0 0 0.89 0 0 0.895 0 0 0.9 0 0 0.905 0 0 0.91 0 0 0.915 0 0 0.92 0 0 0.925 0 0 0.93 0 0 0.935 0 0 0.94 0 0 0.945 0 0 0.95 0 0 0.955 0 0 0.96 0 0 0.965 0 0 0.97 0 0 0.975 0 0 0.98 0 0 0.985 0 0 0.99 0 0 0.995 0 0 1 0 0 0 0.02 0 0.005 0.02 0 0.01 0.02 0 0.015 0.02 0 0.02 0.02 0 0.025 0.02 0 0.03 0.02 0 0.035 0.02 0 0.04 0.02 0 0.045 0.02 0 0.05 0.02 0 0.055 0.02 0 0.06 0.02 0 0.065 0.02 0 0.07 0.02 0 0.075 0.02 0 0.08 0.02 0 0.085 0.02 0 0.09 0.02 0 0.095 0.02 0 0.1 0.02 0 0.105 0.02 0 0.11 0.02 0 0.115 0.02 0 0.12 0.02 0 0.125 0.02 0 0.13 0.02 0 0.135 0.02 0 0.14 0.02 0 0.145 0.02 0 0.15 0.02 0 0.155 0.02 0 0.16 0.02 0 0.165 0.02 0 0.17 0.02 0 0.175 0.02 0 0.18 0.02 0 0.185 0.02 0 0.19 0.02 0 0.195 0.02 0 0.2 0.02 0 0.205 0.02 0 0.21 0.02 0 0.215 0.02 0 0.22 0.02 0 0.225 0.02 0 0.23 0.02 0 0.235 0.02 0 0.24 0.02 0 0.245 0.02 0 0.25 0.02 0 0.255 0.02 0 0.26 0.02 0 0.265 0.02 0 0.27 0.02 0 0.275 0.02 0 0.28 0.02 0 0.285 0.02 0 0.29 0.02 0 0.295 0.02 0 0.3 0.02 0 0.305 0.02 0 0.31 0.02 0 0.315 0.02 0 0.32 0.02 0 0.325 0.02 0 0.33 0.02 0 0.335 0.02 0 0.34 0.02 0 0.345 0.02 0 0.35 0.02 0 0.355 0.02 0 0.36 0.02 0 0.365 0.02 0 0.37 0.02 0 0.375 0.02 0 0.38 0.02 0 0.385 0.02 0 0.39 0.02 0 0.395 0.02 0 0.4 0.02 0 0.405 0.02 0 0.41 0.02 0 0.415 0.02 0 0.420001 0.02 0 0.425005 0.02 0 0.430024 0.02 0 0.435087 0.02 0 0.440258 0.02 0 0.445633 0.02 0 0.451319 0.02 0 0.457424 0.02 0 0.464055 0.02 0 0.471343 0.02 0 0.479453 0.02 0 0.488605 0.02 0 0.499062 0.02 0 0.510955 0.02 0 0.523436 0.02 0 0.535528 0.02 0 0.54741 0.02 0 0.550031 0.02 0 0.552578 0.02 0 0.55508 0.02 0 0.557553 0.02 0 0.560006 0.02 0 0.562446 0.02 0 0.564879 0.02 0 0.567313 0.02 0 0.569749 0.02 0 0.572177 0.02 0 0.574591 0.02 0 0.577014 0.02 0 0.579471 0.02 0 0.582014 0.02 0 0.584634 0.02 0 0.587439 0.02 0 0.59045 0.02 0 0.593713 0.02 0 0.597326 0.02 0 0.601302 0.02 0 0.605638 0.02 0 0.610269 0.02 0 0.615099 0.02 0 0.620033 0.02 0 0.62501 0.02 0 0.630003 0.02 0 0.635001 0.02 0 0.64 0.02 0 0.645 0.02 0 0.65 0.02 0 0.655 0.02 0 0.66 0.02 0 0.665 0.02 0 0.67 0.02 0 0.675 0.02 0 0.68 0.02 0 0.685 0.02 0 0.69 0.02 0 0.695 0.02 0 0.7 0.02 0 0.705 0.02 0 0.71 0.02 0 0.715 0.02 0 0.72 0.02 0 0.725 0.02 0 0.73 0.02 0 0.735 0.02 0 0.74 0.02 0 0.745 0.02 0 0.75 0.02 0 0.755 0.02 0 0.76 0.02 0 0.765 0.02 0 0.77 0.02 0 0.775 0.02 0 0.78 0.02 0 0.785 0.02 0 0.79 0.02 0 0.795 0.02 0 0.8 0.02 0 0.805 0.02 0 0.81 0.02 0 0.815 0.02 0 0.82 0.02 0 0.825 0.02 0 0.83 0.02 0 0.835 0.02 0 0.84 0.02 0 0.845 0.02 0 0.85 0.02 0 0.855 0.02 0 0.86 0.02 0 0.865 0.02 0 0.87 0.02 0 0.875 0.02 0 0.88 0.02 0 0.885 0.02 0 0.89 0.02 0 0.895 0.02 0 0.9 0.02 0 0.905 0.02 0 0.91 0.02 0 0.915 0.02 0 0.92 0.02 0 0.925 0.02 0 0.93 0.02 0 0.935 0.02 0 0.94 0.02 0 0.945 0.02 0 0.95 0.02 0 0.955 0.02 0 0.96 0.02 0 0.965 0.02 0 0.97 0.02 0 0.975 0.02 0 0.98 0.02 0 0.985 0.02 0 0.99 0.02 0 0.995 0.02 0 1 0.02 0 0 0.04 0 0.005 0.04 0 0.01 0.04 0 0.015 0.04 0 0.02 0.04 0 0.025 0.04 0 0.03 0.04 0 0.035 0.04 0 0.04 0.04 0 0.045 0.04 0 0.05 0.04 0 0.055 0.04 0 0.06 0.04 0 0.065 0.04 0 0.07 0.04 0 0.075 0.04 0 0.08 0.04 0 0.085 0.04 0 0.09 0.04 0 0.095 0.04 0 0.1 0.04 0 0.105 0.04 0 0.11 0.04 0 0.115 0.04 0 0.12 0.04 0 0.125 0.04 0 0.13 0.04 0 0.135 0.04 0 0.14 0.04 0 0.145 0.04 0 0.15 0.04 0 0.155 0.04 0 0.16 0.04 0 0.165 0.04 0 0.17 0.04 0 0.175 0.04 0 0.18 0.04 0 0.185 0.04 0 0.19 0.04 0 0.195 0.04 0 0.2 0.04 0 0.205 0.04 0 0.21 0.04 0 0.215 0.04 0 0.22 0.04 0 0.225 0.04 0 0.23 0.04 0 0.235 0.04 0 0.24 0.04 0 0.245 0.04 0 0.25 0.04 0 0.255 0.04 0 0.26 0.04 0 0.265 0.04 0 0.27 0.04 0 0.275 0.04 0 0.28 0.04 0 0.285 0.04 0 0.29 0.04 0 0.295 0.04 0 0.3 0.04 0 0.305 0.04 0 0.31 0.04 0 0.315 0.04 0 0.32 0.04 0 0.325 0.04 0 0.33 0.04 0 0.335 0.04 0 0.34 0.04 0 0.345 0.04 0 0.35 0.04 0 0.355 0.04 0 0.36 0.04 0 0.365 0.04 0 0.37 0.04 0 0.375 0.04 0 0.38 0.04 0 0.385 0.04 0 0.39 0.04 0 0.395 0.04 0 0.4 0.04 0 0.405 0.04 0 0.41 0.04 0 0.415 0.04 0 0.420001 0.04 0 0.425005 0.04 0 0.430024 0.04 0 0.435087 0.04 0 0.440258 0.04 0 0.445633 0.04 0 0.451319 0.04 0 0.457424 0.04 0 0.464055 0.04 0 0.471343 0.04 0 0.479453 0.04 0 0.488605 0.04 0 0.499062 0.04 0 0.510955 0.04 0 0.523436 0.04 0 0.535528 0.04 0 0.54741 0.04 0 0.550031 0.04 0 0.552578 0.04 0 0.55508 0.04 0 0.557553 0.04 0 0.560006 0.04 0 0.562446 0.04 0 0.564879 0.04 0 0.567313 0.04 0 0.569749 0.04 0 0.572177 0.04 0 0.574591 0.04 0 0.577014 0.04 0 0.579471 0.04 0 0.582014 0.04 0 0.584634 0.04 0 0.587439 0.04 0 0.59045 0.04 0 0.593713 0.04 0 0.597326 0.04 0 0.601302 0.04 0 0.605638 0.04 0 0.610269 0.04 0 0.615099 0.04 0 0.620033 0.04 0 0.62501 0.04 0 0.630003 0.04 0 0.635001 0.04 0 0.64 0.04 0 0.645 0.04 0 0.65 0.04 0 0.655 0.04 0 0.66 0.04 0 0.665 0.04 0 0.67 0.04 0 0.675 0.04 0 0.68 0.04 0 0.685 0.04 0 0.69 0.04 0 0.695 0.04 0 0.7 0.04 0 0.705 0.04 0 0.71 0.04 0 0.715 0.04 0 0.72 0.04 0 0.725 0.04 0 0.73 0.04 0 0.735 0.04 0 0.74 0.04 0 0.745 0.04 0 0.75 0.04 0 0.755 0.04 0 0.76 0.04 0 0.765 0.04 0 0.77 0.04 0 0.775 0.04 0 0.78 0.04 0 0.785 0.04 0 0.79 0.04 0 0.795 0.04 0 0.8 0.04 0 0.805 0.04 0 0.81 0.04 0 0.815 0.04 0 0.82 0.04 0 0.825 0.04 0 0.83 0.04 0 0.835 0.04 0 0.84 0.04 0 0.845 0.04 0 0.85 0.04 0 0.855 0.04 0 0.86 0.04 0 0.865 0.04 0 0.87 0.04 0 0.875 0.04 0 0.88 0.04 0 0.885 0.04 0 0.89 0.04 0 0.895 0.04 0 0.9 0.04 0 0.905 0.04 0 0.91 0.04 0 0.915 0.04 0 0.92 0.04 0 0.925 0.04 0 0.93 0.04 0 0.935 0.04 0 0.94 0.04 0 0.945 0.04 0 0.95 0.04 0 0.955 0.04 0 0.96 0.04 0 0.965 0.04 0 0.97 0.04 0 0.975 0.04 0 0.98 0.04 0 0.985 0.04 0 0.99 0.04 0 0.995 0.04 0 1 0.04 0 0 0.06 0 0.005 0.06 0 0.01 0.06 0 0.015 0.06 0 0.02 0.06 0 0.025 0.06 0 0.03 0.06 0 0.035 0.06 0 0.04 0.06 0 0.045 0.06 0 0.05 0.06 0 0.055 0.06 0 0.06 0.06 0 0.065 0.06 0 0.07 0.06 0 0.075 0.06 0 0.08 0.06 0 0.085 0.06 0 0.09 0.06 0 0.095 0.06 0 0.1 0.06 0 0.105 0.06 0 0.11 0.06 0 0.115 0.06 0 0.12 0.06 0 0.125 0.06 0 0.13 0.06 0 0.135 0.06 0 0.14 0.06 0 0.145 0.06 0 0.15 0.06 0 0.155 0.06 0 0.16 0.06 0 0.165 0.06 0 0.17 0.06 0 0.175 0.06 0 0.18 0.06 0 0.185 0.06 0 0.19 0.06 0 0.195 0.06 0 0.2 0.06 0 0.205 0.06 0 0.21 0.06 0 0.215 0.06 0 0.22 0.06 0 0.225 0.06 0 0.23 0.06 0 0.235 0.06 0 0.24 0.06 0 0.245 0.06 0 0.25 0.06 0 0.255 0.06 0 0.26 0.06 0 0.265 0.06 0 0.27 0.06 0 0.275 0.06 0 0.28 0.06 0 0.285 0.06 0 0.29 0.06 0 0.295 0.06 0 0.3 0.06 0 0.305 0.06 0 0.31 0.06 0 0.315 0.06 0 0.32 0.06 0 0.325 0.06 0 0.33 0.06 0 0.335 0.06 0 0.34 0.06 0 0.345 0.06 0 0.35 0.06 0 0.355 0.06 0 0.36 0.06 0 0.365 0.06 0 0.37 0.06 0 0.375 0.06 0 0.38 0.06 0 0.385 0.06 0 0.39 0.06 0 0.395 0.06 0 0.4 0.06 0 0.405 0.06 0 0.41 0.06 0 0.415 0.06 0 0.420001 0.06 0 0.425005 0.06 0 0.430024 0.06 0 0.435087 0.06 0 0.440258 0.06 0 0.445633 0.06 0 0.451319 0.06 0 0.457424 0.06 0 0.464055 0.06 0 0.471343 0.06 0 0.479453 0.06 0 0.488605 0.06 0 0.499062 0.06 0 0.510955 0.06 0 0.523436 0.06 0 0.535528 0.06 0 0.54741 0.06 0 0.550031 0.06 0 0.552578 0.06 0 0.55508 0.06 0 0.557553 0.06 0 0.560006 0.06 0 0.562446 0.06 0 0.564879 0.06 0 0.567313 0.06 0 0.569749 0.06 0 0.572177 0.06 0 0.574591 0.06 0 0.577014 0.06 0 0.579471 0.06 0 0.582014 0.06 0 0.584634 0.06 0 0.587439 0.06 0 0.59045 0.06 0 0.593713 0.06 0 0.597326 0.06 0 0.601302 0.06 0 0.605638 0.06 0 0.610269 0.06 0 0.615099 0.06 0 0.620033 0.06 0 0.62501 0.06 0 0.630003 0.06 0 0.635001 0.06 0 0.64 0.06 0 0.645 0.06 0 0.65 0.06 0 0.655 0.06 0 0.66 0.06 0 0.665 0.06 0 0.67 0.06 0 0.675 0.06 0 0.68 0.06 0 0.685 0.06 0 0.69 0.06 0 0.695 0.06 0 0.7 0.06 0 0.705 0.06 0 0.71 0.06 0 0.715 0.06 0 0.72 0.06 0 0.725 0.06 0 0.73 0.06 0 0.735 0.06 0 0.74 0.06 0 0.745 0.06 0 0.75 0.06 0 0.755 0.06 0 0.76 0.06 0 0.765 0.06 0 0.77 0.06 0 0.775 0.06 0 0.78 0.06 0 0.785 0.06 0 0.79 0.06 0 0.795 0.06 0 0.8 0.06 0 0.805 0.06 0 0.81 0.06 0 0.815 0.06 0 0.82 0.06 0 0.825 0.06 0 0.83 0.06 0 0.835 0.06 0 0.84 0.06 0 0.845 0.06 0 0.85 0.06 0 0.855 0.06 0 0.86 0.06 0 0.865 0.06 0 0.87 0.06 0 0.875 0.06 0 0.88 0.06 0 0.885 0.06 0 0.89 0.06 0 0.895 0.06 0 0.9 0.06 0 0.905 0.06 0 0.91 0.06 0 0.915 0.06 0 0.92 0.06 0 0.925 0.0
[...]
			<PointData Scalars="VitesseX">
				<DataArray Name="VitesseX" type="Float32" format="ascii">
 0 0 0 0 0 0 0 0 0 0 0 0 0 0 0 0 0 0 0 0 0 0 0 0 0 0 0 0 0 0 0 0 0 0 0 0 0 0 0 0 0 0 0 0 0 0 0 0 0 0 0 0 0 0 0 0 0 0 0 0 0 0 0 0 0 0 0 0 0 0 0 0 0 0 0 0 0 0 0 0 0 0 0 0 0 0 0 0 0 0 0 0 0 0 0 0 0 0 0 0 0 0 0 0 0 0 0 0 0 0 0 0 0 0 0 0 0 0 0 0 0 0 0 0 0 0 0 0 0 0 0 0 0 0 0 0 0 0 0 0 0 0 0 0 0 0 0 0 0 0 0 0 0 0 0 0 0 0 0 0 0 0 0 0 0 0 0 0 0 0 0 0 0 0 0 0 0 0 0 0 0 0 0 0 0 0 0 0 0 0 0 0 0 0 0 0 0 0 0 0 0 0 -1.32619e-15 1.42412e-16 -1.56278e-15 2.76253e-15 -3.48248e-15 3.10734e-15 1.51375e-15 -9.11404e-16 1.58943e-15 -3.33154e-16 -3.79194e-15 1.1942e-15 1.03959e-14 -5.04601e-15 -8.16448e-15 5.42989e-15 -7.87228e-15 9.40382e-15 -8.31898e-15 3.42434e-15 -5.26129e-15 3.63994e-15 1.31273e-14 -1.11364e-14 1.8283e-14 -4.01716e-16 1.42082e-14 -4.3797e-15 -8.02385e-15 1.26881e-14 -1.49205e-14 9.92417e-15 -4.58126e-15 -1.16751e-14 -1.05497e-14 2.14148e-14 -1.384e-14 1.74563e-14 -1.97778e-14 -1.23221e-14 1.20547e-14 -1.52556e-14 1.13515e-14 -6.63312e-15 3.41919e-15 6.38501e-15 1.74244e-14 -1.45359e-14 -1.90926e-15 -2.99705e-15 4.75406e-14 -6.85681e-15 -6.71715e-15 2.64308e-14 2.42312e-14 -8.19098e-15 -3.208e-15 -1.6391e-14 2.78181e-15 2.08889e-14 -3.13945e-14 4.17091e-14 2.32865e-14 -9.63151e-15 1.09643e-15 -4.81529e-15 1.91988e-14 -2.12998e-14 1.73504e-14 1.17958e-16 1.34696e-15 -3.35583e-15 -1.13228e-14 4.35606e-14 4.28062e-13 6.4276e-12 9.28029e-11 1.20417e-09 1.39783e-08 1.44159e-07 1.30958e-06 1.03714e-05 7.06955e-05 0.000408111 0.00195507 0.00759033 0.0233844 0.0568548 0.11151 0.1847 0.271949 0.370805 0.480978 0.603137 0.737129 0.876163 0.980726 0.960657 0.938533 0.927769 0.927158 0.926712 0.926277 0.925819 0.925269 0.92483 0.924466 0.922418 0.921912 0.914367 0.916858 0.904521 0.873491 0.888251 0.788843 0.722344 0.683106 0.541189 0.426076 0.289588 0.172891 0.0857662 0.0353514 0.0125751 0.00408176 0.00125256 0.000368881 0.000104779 2.87435e-05 7.61666e-06 1.94932e-06 4.81734e-07 1.14936e-07 2.64717e-08 5.88521e-09 1.26305e-09 2.61671e-10 5.22891e-11 1.01021e-11 1.9489e-12 3.75803e-13 -8.9352e-16 4.81111e-14 6.89021e-14 -6.95795e-15 -9.9789e-14 5.99394e-14 -5.39447e-14 -6.76466e-15 1.00226e-13 -1.3102e-14 1.00503e-14 -4.12587e-15 5.98046e-14 6.35747e-14 -9.32193e-14 -7.83587e-15 6.2738e-14 5.95644e-14 -9.34618e-14 1.82535e-14 -7.64368e-15 8.4748e-14 -4.33488e-14 -7.69723e-14 1.18549e-13 -7.3069e-14 3.2164e-14 -9.64317e-14 9.5187e-14 -1.09421e-13 3.03365e-14 6.01837e-14 -2.48398e-14 5.57436e-14 -1.13119e-13 3.43082e-14 -6.70034e-14 -2.7504e-15 -3.71423e-15 5.42637e-14 -1.01363e-13 2.90242e-14 -8.90452e-14 9.85186e-14 -3.47562e-14 4.05372e-15 -1.31631e-13 4.78712e-14 -4.42134e-14 -7.35302e-14 -3.28826e-15 -2.26154e-14 -6.04257e-14 6.88497e-14 -1.65994e-14 -9.96937e-14 6.02052e-14 1.28431e-14 0 0 -2.27425e-15 -1.02203e-15 -1.53708e-15 3.21839e-15 2.48805e-15 -2.77552e-15 -4.21633e-15 5.4646e-15 5.72893e-15 -5.17857e-15 1.15972e-17 4.50492e-15 8.61999e-15 -5.40075e-15 8.03281e-15 -1.04231e-14 -7.65046e-15 1.07148e-14 -5.11311e-15 5.87192e-15 -8.01946e-15 9.84806e-15 -4.53242e-15 -3.49275e-15 2.0004e-14 5.48284e-15 7.52085e-15 -1.35424e-14 8.64924e-15 9.88369e-15 -1.73269e-17 8.30167e-15 -1.81707e-14 -1.54227e-14 -8.33818e-15 3.1128e-14 -2.47505e-14 9.61909e-15 -2.0306e-14 -7.13074e-15 1.52853e-14 6.22843e-15 -7.67438e-15 -1.35534e-14 1.30692e-14 1.28499e-14 -1.66337e-14 1.78219e-14 -3.35268e-15 -4.88932e-15 3.97059e-14 8.47191e-15 -3.96638e-14 2.04921e-14 4.95098e-14 -2.62162e-14 4.08024e-15 1.24098e-14 -3.81725e-14 3.76331e-14 -3.83183e-14 8.18107e-14 2.29633e-14 8.1342e-15 5.00297e-15 -3.36443e-14 5.70903e-14 -4.33017e-14 -2.12573e-14 -3.40092e-15 5.73379e-14 1.71952e-15 -3.30957e-14 4.90511e-14 4.02551e-13 6.43745e-12 9.28014e-11 1.20412e-09 1.39784e-08 1.44158e-07 1.30958e-06 1.03714e-05 7.06955e-05 0.000408111 0.00195507 0.00759033 0.0233844 0.0568548 0.11151 0.1847 0.271949 0.370805 0.480978 0.603137 0.737129 0.876163 0.980726 0.960657 0.938533 0.927769 0.927158 0.926712 0.926277 0.925819 0.925269 0.92483 0.924466 0.922418 0.921912 0.914367 0.916858 0.904521 0.873491 0.888251 0.788843 0.722344 0.683106 0.541189 0.426076 0.289588 0.172891 0.0857662 0.0353514 0.0125751 0.00408176 0.00125256 0.000368881 0.000104779 2.87435e-05 7.61666e-06 1.94932e-06 4.81734e-07 1.14936e-07 2.64716e-08 5.88522e-09 1.26302e-09 2.61695e-10 5.23621e-11 1.00473e-11 1.94679e-12 3.46394e-13 1.65938e-14 4.92233e-14 8.98472e-14 6.98598e-15 -2.47216e-14 1.68171e-14 -5.97177e-14 -3.13065e-14 3.49265e-14 8.62051e-14 3.58751e-14 -1.48915e-14 -1.70811e-14 2.74182e-14 -2.73899e-14 -1.868e-14 9.97902e-14 -1.16096e-13 8.29503e-14 -3.71834e-14 9.95746e-14 1.21142e-13 -8.56614e-14 -1.32521e-13 -9.48949e-14 1.27094e-13 -8.81584e-15 6.85762e-14 -5.64005e-14 8.65454e-14 5.69915e-14 2.65702e-14 -8.86315e-14 3.31235e-14 -1.33967e-13 7.82002e-14 -1.03009e-14 2.48459e-14 1.05488e-14 -5.62289e-14 -1.43723e-13 -1.48279e-14 -7.56987e-14 9.18881e-14 6.94897e-15 -9.76817e-14 -1.24074e-13 1.07672e-13 -6.37186e-14 -5.89297e-14 -4.47901e-14 -1.15858e-13 3.44404e-14 3.83303e-14 -4.62449e-14 -6.37722e-15 4.50011e-14 -8.96377e-14 0 0 -9.37164e-17 -1.72013e-15 3.88368e-16 -7.86799e-16 3.63085e-15 5.25732e-16 -4.33477e-15 3.42492e-16 4.59016e-15 -2.08886e-15 1.29452e-15 4.31855e-15 9.20808e-16 -3.07381e-15 1.08679e-14 -1.42803e-14 1.06981e-14 -5.49242e-15 6.74052e-15 -4.87339e-16 -2.77203e-15 6.2456e-15 4.72321e-15 4.17693e-16 -3.8711e-15 5.04323e-15 -1.35261e-15 -8.41921e-15 5.34604e-14 -1.37938e-14 1.66711e-14 -2.98083e-14 -1.96024e-14 1.36221e-14 3.95788e-15 -1.45392e-14 -1.60746e-14 -1.53615e-14 1.39504e-14 6.44923e-15 2.67832e-15 2.55305e-14 -4.48573e-14 1.28064e-15 2.18272e-14 2.7155e-14 -6.31908e-15 7.62159e-15 -4.2685e-15 -1.42202e-14 1.47197e-14 4.29158e-14 -5.74504e-14 -1.46832e-14 4.7762e-14 -1.06065e-14 1.39123e-15 4.74522e-14 -4.9393e-14 -6.01772e-15 3.98766e-14 1.75096e-14 2.73804e-14 9.51705e-15 3.25241e-14 -1.0018e-14 8.4425e-15 7.93546e-15 -7.98666e-15 -2.94118e-14 6.52988e-14 6.81901e-14 -1.82352e-14 6.34957e-14 3.53049e-13 6.38078e-12 9.28184e-11 1.2041e-09 1.39784e-08 1.44158e-07 1.30958e-06 1.03714e-05 7.06955e-05 0.000408111 0.00195507 0.00759033 0.0233844 0.0568548 0.11151 0.1847 0.271949 0.370805 0.480978 0.603137 0.737129 0.876163 0.980726 0.960657 0.938533 0.927769 0.927158 0.926712 0.926277 0.925819 0.925269 0.92483 0.924466 0.922418 0.921912 0.914367 0.916858 0.904521 0.873491 0.888251 0.788843 0.722344 0.683106 0.541189 0.426076 0.289588 0.172891 0.0857662 0.0353514 0.0125751 0.00408176 0.00125256 0.000368881 0.000104779 2.87435e-05 7.61666e-06 1.94932e-06 4.81734e-07 1.14936e-07 2.64717e-08 5.88516e-09 1.26304e-09 2.61648e-10 5.23843e-11 1.0069e-11 1.92745e-12 2.92344e-13 6.67817e-14 2.44768e-14 -7.19816e-15 1.73494e-13 -1.03538e-14 -7.49685e-14 -3.95485e-14 3.0768e-14 1.54e-15 1.55463e-13 -2.19175e-14 9.77842e-15 -6.10599e-14 5.55319e-14 1.26343e-13 2.41914e-14 -8.39767e-14 -8.01232e-14 6.13969e-14 2.60886e-14 9.85114e-14 -7.3755e-15 -1.32516e-13 3.18928e-14 -8.91075e-14 7.49479e-14 3.56852e-14 8.07271e-14 -1.24983e-13 1.15782e-13 4.04951e-14 1.72537e-13 -2.83852e-15 -3.03432e-13 1.71853e-13 -3.7746e-14 -1.01858e-13 4.05836e-14 7.53051e-14 -2.76434e-13 4.23273e-14 -1.95335e-13 1.25519e-13 -5.55136e-14 5.21649e-14 -2.346e-13 6.47817e-14 -4.06076e-14 6.08474e-14 -1.66333e-13 -3.73322e-14 -9.88293e-14 -2.01579e-14 4.45239e-14 2.96724e-14 1.66055e-14 -8.80898e-14 5.82832e-14 0 0 -7.34378e-16 -1.53957e-15 8.10587e-16 5.64481e-16 -9.61195e-16 6.69559e-15 2.186e-15 -3.61747e-15 -1.30719e-15 5.09238e-15 -2.98836e-15 5.97225e-15 6.58209e-15 -2.10879e-15 3.09018e-15 4.34337e-15 2.12679e-15 -1.2596e-14 6.39126e-15 -1.25625e-15 -2.82099e-15 8.91838e-15 1.2298e-14 -6.96751e-16 -1.19191e-14 6.60613e-15 -9.45744e-15 8.05743e-15 3.93238e-14 -2.0789e-14 1.02967e-14 -3.11825e-14 -2.94643e-15 -3.47253e-16 1.71869e-14 -1.46187e-14 -2.5355e-14 4.60197e-15 1.54969e-14 -1.65616e-14 1.89903e-14 1.87865e-15 -2.64504e-14 1.41863e-14 2.0049e-14 1.38087e-14 1.92461e-14 -1.4211e-14 1.85106e-14 -2.87911e-14 2.66364e-15 3.10544e-14 -3.78896e-14 1.47938e-14 -8.626e-15 1.13143e-14 1.99253e-14 2.97685e-14 7.1451e-15 -4.97925e-14 4.51142e-14 -2.60951e-14 3.84609e-14 -2.05248e-14 3.20008e-14 3.81764e-14 -3.21979e-14 -4.20509e-15 5.95095e-14 -1.06189e-14 -1.01767e-14 8.10881e-14 -1.96156e-15 1.57417e-13 3.17986e-13 6.34746e-12 9.28174e-11 1.20414e-09 1.39782e-08 1.44159e-07 1.30958e-06 1.03714e-05 7.06955e-05 0.000408111 0.00195507 0.00759033 0.0233844 0.0568548 0.11151 0.1847 0.271949 0.370805 0.480978 0.603137 0.737129 0.876163 0.980726 0.960657 0.938533 0.927769 0.927158 0.926712 0.926277 0.925819 0.925269 0.92483 0.924466 0.922418 0.921912 0.914367 0.916858 0.904521 0.873491 0.888251 0.788843 0.722344 0.683106 0.541189 0.426076 0.289588 0.172891 0.0857662 0.0353514 0.0125751 0.00408176 0.00125256 0.000368881 0.000104779 2.87435e-05 7.61666e-06 1.94932e-06 4.81734e-07 1.14936e-07 2.64718e-08 5.88504e-09 1.26323e-09 2.61642e-10 5.22735e-11 1.00932e-11 2.02654e-12 4.01425e-13 -1.16522e-13 1.01412e-13 -9.48565e-14 1.34986e-13 -8.81746e-14 6.17683e-14 7.65735e-14 -1.32821e-13 4.20416e-14 1.03805e-13 -8.72301e-14 1.30281e-13 -1.54704e-13 3.83325e-14 1.07902e-13 4.78752e-14 -1.27101e-14 4.09702e-14 1.80553e-14 1.1981e-14 7.46229e-14 -6.79384e-14 -4.95219e-14 9.46651e-15 1.073e-14 -5.95634e-14 2.65432e-13 -1.40126e-14 -8.62882e-14 -1.59539e-13 5.35416e-16 1.98524e-13 -1.18238e-13 -2.76915e-13 3.27709e-13 -7.63067e-14 -1.46363e-13 2.25562e-14 -6.49922e-15 3.60499e-14 3.30591e-14 -2.40699e-13 1.09673e-13 -1.07352e-13 4.67584e-14 -9.38158e-14 1.04504e-15 1.04937e-14 -2.1801e-14 -1.72057e-13 -1.68909e-14 1.91107e-14 -1.39831e-13 7.8808e-14 2.73854e-14 -8.26187e-14 -7.62551e-14 6.70842e-14 0 0 0 0 0 0 0 0 0 0 0 0 0 0 0 0 0 0 0 0 0 0 0 0 0 0 0 0 0 0 0 0 0 0 0 0 0 0 0 0 0 0 0 0 0 0 0 0 0 0 0 0 0 0 0 0 0 0 0 0 0 0 0 0 0 0 0 0 0 0 0 0 0 0 0 0 0 0 0 0 0 0 0 0 0 0 0 0 0 0 0 0 0 0 0 0 0 0 0 0 0 0 0 0 0 0 0 0 0 0 0 0 0 0 0 0 0 0 0 0 0 0 0 0 0 0 0 0 0 0 0 0 0 0 0 0 0 0 0 0 0 0 0 0 0 0 0 0 0 0 0 0 0 0 0 0 0 0 0 0 0 0 0 0 0 0 0 0 0 0 0 0 0 0 0 0 0 0 0 0 0 0 0 0 0 0 0 0 0 0 0 0 0 0 0 0 0 0 0 0 0 0
				</DataArray>
				<DataArray Name="VitesseY" type="Float32" format="ascii">