<?xml version="1.0"?>
<VTKFile type="PolyData">
	<PolyData>
		<Piece NumberOfPoints="1206" NumberOfPolys="1000">
			<Points>
				<DataArray type="Float32" NumberOfComponents="3" format="ascii">
 0 0 0 0.005 0 0 0.01 0 0 0.015 0 0 0.02 0 0 0.025 0 0 0.03 0 0 0.035 0 0 0.04 0 0 0.045 0 0 0.05 0 0 0.055 0 0 0.06 0 0 0.065 0 0 0.07 0 0 0.075 0 0 0.08 0 0 0.085 0 0 0.09 0 0 0.095 0 0 0.1 0 0 0.105 0 0 0.11 0 0 0.115 0 0 0.12 0 0 0.125 0 0 0.13 0 0 0.135 0 0 0.14 0 0 0.145 0 0 0.15 0 0 0.155 0 0 0.16 0 0 0.165 0 0 0.17 0 0 0.175 0 0 0.18 0 0 0.185 0 0 0.19 0 0 0.195 0 0 0.2 0 0 0.205 0 0 0.21 0 0 0.215 0 0 0.22 0 0 0.225 0 0 0.23 0 0 0.235 0 0 0.24 0 0 0.245 0 0 0.25 0 0 0.255 0 0 0.26 0 0 0.265 0 0 0.27 0 0 0.275 0 0 0.28 0 0 0.285 0 0 0.29 0 0 0.295 0 0 0.3 0 0 0.305 0 0 0.31 0 0 0.315 0 0 0.32 0 0 0.325 0 0 0.33 0 0 0.335 0 0 0.34 0 0 0.345 0 0 0.35 0 0 0.355 0 0 0.36 0 0 0.365 0 0 0.37 0 0 0.375 0 0 0.38 0 0 0.385 0 0 0.39 0 0 0.395 0 0 0.4 0 0 0.405001 0 0 0.410003 0 0 0.415013 0 0 0.420048 0 0 0.425146 0 0 0.43037 0 0 0.435801 0 0 0.441516 0 0 0.44759 0 0 0.454096 0 0 0.461121 0 0 0.46877 0 0 0.477177 0 0 0.486512 0 0 0.49697 0 0 0.508665 0 0 0.521094 0 0 0.533267 0 0 0.545188 0 0 0.557002 0 0 0.559622 0 0 0.562169 0 0 0.56467 0 0 0.56714 0 0 0.569589 0 0 0.572022 0 0 0.574445 0 0 0.576865 0 0 0.579285 0 0 0.58169 0 0 0.584086 0 0 0.586479 0 0 0.588875 0 0 0.591278 0 0 0.593692 0 0 0.596124 0 0 0.598607 0 0 0.601189 0 0 0.603878 0 0 0.606753 0 0 0.609842 0 0 0.61324 0 0 0.616976 0 0 0.621079 0 0 0.625516 0 0 0.630215 0 0 0.635079 0 0 0.640027 0 0 0.645009 0 0 0.650003 0 0 0.655001 0 0 0.66 0 0 0.665 0 0 0.67 0 0 0.675 0 0 0.68 0 0 0.685 0 0 0.69 0 0 0.695 0 0 0.7 0 0 0.705 0 0 0.71 0 0 0.715 0 0 0.72 0 0 0.725 0 0 0.73 0 0 0.735 0 0 0.74 0 0 0.745 0 0 0.75 0 0 0.755 0 0 0.76 0 0 0.765 0 0 0.77 0 0 0.775 0 0 0.78 0 0 0.785 0 0 0.79 0 0 0.795 0 0 0.8 0 0 0.805 0 0 0.81 0 0 0.815 0 0 0.82 0 0 0.825 0 0 0.83 0 0 0.835 0 0 0.84 0 0 0.845 0 0 0.85 0 0 0.855 0 0 0.86 0 0 0.865 0 0 0.87 0 0 0.875 0 0 0.88 0 0 0.885 0 0 0.89 0 0 0.895 0 0 0.9 0 0 0.905 0 0 0.91 0 0 0.915 0 0 0.92 0 0 0.925 0 0 0.93 0 0 0.935 0 0 0.94 0 0 0.945 0 0 0.95 0 0 0.955 0 0 0.96 0 0 0.965 0 0 0.97 0 0 0.975 0 0 0.98 0 0 0.985 0 0 0.99 0 0 0.995 0 0 1 0 0 0 0.02 0 0.005 0.02 0 0.01 0.02 0 0.015 0.02 0 0.02 0.02 0 0.025 0.02 0 0.03 0.02 0 0.035 0.02 0 0.04 0.02 0 0.045 0.02 0 0.05 0.02 0 0.055 0.02 0 0.06 0.02 0 0.065 0.02 0 0.07 0.02 0 0.075 0.02 0 0.08 0.02 0 0.085 0.02 0 0.09 0.02 0 0.095 0.02 0 0.1 0.02 0 0.105 0.02 0 0.11 0.02 0 0.115 0.02 0 0.12 0.02 0 0.125 0.02 0 0.13 0.02 0 0.135 0.02 0 0.14 0.02 0 0.145 0.02 0 0.15 0.02 0 0.155 0.02 0 0.16 0.02 0 0.165 0.02 0 0.17 0.02 0 0.175 0.02 0 0.18 0.02 0 0.185 0.02 0 0.19 0.02 0 0.195 0.02 0 0.2 0.02 0 0.205 0.02 0 0.21 0.02 0 0.215 0.02 0 0.22 0.02 0 0.225 0.02 0 0.23 0.02 0 0.235 0.02 0 0.24 0.02 0 0.245 0.02 0 0.25 0.02 0 0.255 0.02 0 0.26 0.02 0 0.265 0.02 0 0.27 0.02 0 0.275 0.02 0 0.28 0.02 0 0.285 0.02 0 0.29 0.02 0 0.295 0.02 0 0.3 0.02 0 0.305 0.02 0 0.31 0.02 0 0.315 0.02 0 0.32 0.02 0 0.325 0.02 0 0.33 0.02 0 0.335 0.02 0 0.34 0.02 0 0.345 0.02 0 0.35 0.02 0 0.355 0.02 0 0.36 0.02 0 0.365 0.02 0 0.37 0.02 0 0.375 0.02 0 0.38 0.02 0 0.385 0.02 0 0.39 0.02 0 0.395 0.02 0 0.4 0.02 0 0.405001 0.02 0 0.410003 0.02 0 0.415013 0.02 0 0.420048 0.02 0 0.425146 0.02 0 0.43037 0.02 0 0.435801 0.02 0 0.441516 0.02 0 0.44759 0.02 0 0.454096 0.02 0 0.461121 0.02 0 0.46877 0.02 0 0.477177 0.02 0 0.486512 0.02 0 0.49697 0.02 0 0.508665 0.02 0 0.521094 0.02 0 0.533267 0.02 0 0.545188 0.02 0 0.557002 0.02 0 0.559622 0.02 0 0.562169 0.02 0 0.56467 0.02 0 0.56714 0.02 0 0.569589 0.02 0 0.572022 0.02 0 0.574445 0.02 0 0.576865 0.02 0 0.579285 0.02 0 0.58169 0.02 0 0.584086 0.02 0 0.586479 0.02 0 0.588875 0.02 0 0.591278 0.02 0 0.593692 0.02 0 0.596124 0.02 0 0.598607 0.02 0 0.601189 0.02 0 0.603878 0.02 0 0.606753 0.02 0 0.609842 0.02 0 0.61324 0.02 0 0.616976 0.02 0 0.621079 0.02 0 0.625516 0.02 0 0.630215 0.02 0 0.635079 0.02 0 0.640027 0.02 0 0.645009 0.02 0 0.650003 0.02 0 0.655001 0.02 0 0.66 0.02 0 0.665 0.02 0 0.67 0.02 0 0.675 0.02 0 0.68 0.02 0 0.685 0.02 0 0.69 0.02 0 0.695 0.02 0 0.7 0.02 0 0.705 0.02 0 0.71 0.02 0 0.715 0.02 0 0.72 0.02 0 0.725 0.02 0 0.73 0.02 0 0.735 0.02 0 0.74 0.02 0 0.745 0.02 0 0.75 0.02 0 0.755 0.02 0 0.76 0.02 0 0.765 0.02 0 0.77 0.02 0 0.775 0.02 0 0.78 0.02 0 0.785 0.02 0 0.79 0.02 0 0.795 0.02 0 0.8 0.02 0 0.805 0.02 0 0.81 0.02 0 0.815 0.02 0 0.82 0.02 0 0.825 0.02 0 0.83 0.02 0 0.835 0.02 0 0.84 0.02 0 0.845 0.02 0 0.85 0.02 0 0.855 0.02 0 0.86 0.02 0 0.865 0.02 0 0.87 0.02 0 0.875 0.02 0 0.88 0.02 0 0.885 0.02 0 0.89 0.02 0 0.895 0.02 0 0.9 0.02 0 0.905 0.02 0 0.91 0.02 0 0.915 0.02 0 0.92 0.02 0 0.925 0.02 0 0.93 0.02 0 0.935 0.02 0 0.94 0.02 0 0.945 0.02 0 0.95 0.02 0 0.955 0.02 0 0.96 0.02 0 0.965 0.02 0 0.97 0.02 0 0.975 0.02 0 0.98 0.02 0 0.985 0.02 0 0.99 0.02 0 0.995 0.02 0 1 0.02 0 0 0.04 0 0.005 0.04 0 0.01 0.04 0 0.015 0.04 0 0.02 0.04 0 0.025 0.04 0 0.03 0.04 0 0.035 0.04 0 0.04 0.04 0 0.045 0.04 0 0.05 0.04 0 0.055 0.04 0 0.06 0.04 0 0.065 0.04 0 0.07 0.04 0 0.075 0.04 0 0.08 0.04 0 0.085 0.04 0 0.09 0.04 0 0.095 0.04 0 0.1 0.04 0 0.105 0.04 0 0.11 0.04 0 0.115 0.04 0 0.12 0.04 0 0.125 0.04 0 0.13 0.04 0 0.135 0.04 0 0.14 0.04 0 0.145 0.04 0 0.15 0.04 0 0.155 0.04 0 0.16 0.04 0 0.165 0.04 0 0.17 0.04 0 0.175 0.04 0 0.18 0.04 0 0.185 0.04 0 0.19 0.04 0 0.195 0.04 0 0.2 0.04 0 0.205 0.04 0 0.21 0.04 0 0.215 0.04 0 0.22 0.04 0 0.225 0.04 0 0.23 0.04 0 0.235 0.04 0 0.24 0.04 0 0.245 0.04 0 0.25 0.04 0 0.255 0.04 0 0.26 0.04 0 0.265 0.04 0 0.27 0.04 0 0.275 0.04 0 0.28 0.04 0 0.285 0.04 0 0.29 0.04 0 0.295 0.04 0 0.3 0.04 0 0.305 0.04 0 0.31 0.04 0 0.315 0.04 0 0.32 0.04 0 0.325 0.04 0 0.33 0.04 0 0.335 0.04 0 0.34 0.04 0 0.345 0.04 0 0.35 0.04 0 0.355 0.04 0 0.36 0.04 0 0.365 0.04 0 0.37 0.04 0 0.375 0.04 0 0.38 0.04 0 0.385 0.04 0 0.39 0.04 0 0.395 0.04 0 0.4 0.04 0 0.405001 0.04 0 0.410003 0.04 0 0.415013 0.04 0 0.420048 0.04 0 0.425146 0.04 0 0.43037 0.04 0 0.435801 0.04 0 0.441516 0.04 0 0.44759 0.04 0 0.454096 0.04 0 0.461121 0.04 0 0.46877 0.04 0 0.477177 0.04 0 0.486512 0.04 0 0.49697 0.04 0 0.508665 0.04 0 0.521094 0.04 0 0.533267 0.04 0 0.545188 0.04 0 0.557002 0.04 0 0.559622 0.04 0 0.562169 0.04 0 0.56467 0.04 0 0.56714 0.04 0 0.569589 0.04 0 0.572022 0.04 0 0.574445 0.04 0 0.576865 0.04 0 0.579285 0.04 0 0.58169 0.04 0 0.584086 0.04 0 0.586479 0.04 0 0.588875 0.04 0 0.591278 0.04 0 0.593692 0.04 0 0.596124 0.04 0 0.598607 0.04 0 0.601189 0.04 0 0.603878 0.04 0 0.606753 0.04 0 0.609842 0.04 0 0.61324 0.04 0 0.616976 0.04 0 0.621079 0.04 0 0.625516 0.04 0 0.630215 0.04 0 0.635079 0.04 0 0.640027 0.04 0 0.645009 0.04 0 0.650003 0.04 0 0.655001 0.04 0 0.66 0.04 0 0.665 0.04 0 0.67 0.04 0 0.675 0.04 0 0.68 0.04 0 0.685 0.04 0 0.69 0.04 0 0.695 0.04 0 0.7 0.04 0 0.705 0.04 0 0.71 0.04 0 0.715 0.04 0 0.72 0.04 0 0.725 0.04 0 0.73 0.04 0 0.735 0.04 0 0.74 0.04 0 0.745 0.04 0 0.75 0.04 0 0.755 0.04 0 0.76 0.04 0 0.765 0.04 0 0.77 0.04 0 0.775 0.04 0 0.78 0.04 0 0.785 0.04 0 0.79 0.04 0 0.795 0.04 0 0.8 0.04 0 0.805 0.04 0 0.81 0.04 0 0.815 0.04 0 0.82 0.04 0 0.825 0.04 0 0.83 0.04 0 0.835 0.04 0 0.84 0.04 0 0.845 0.04 0 0.85 0.04 0 0.855 0.04 0 0.86 0.04 0 0.865 0.04 0 0.87 0.04 0 0.875 0.04 0 0.88 0.04 0 0.885 0.04 0 0.89 0.04 0 0.895 0.04 0 0.9 0.04 0 0.905 0.04 0 0.91 0.04 0 0.915 0.04 0 0.92 0.04 0 0.925 0.04 0 0.93 0.04 0 0.935 0.04 0 0.94 0.04 0 0.945 0.04 0 0.95 0.04 0 0.955 0.04 0 0.96 0.04 0 0.965 0.04 0 0.97 0.04 0 0.975 0.04 0 0.98 0.04 0 0.985 0.04 0 0.99 0.04 0 0.995 0.04 0 1 0.04 0 0 0.06 0 0.005 0.06 0 0.01 0.06 0 0.015 0.06 0 0.02 0.06 0 0.025 0.06 0 0.03 0.06 0 0.035 0.06 0 0.04 0.06 0 0.045 0.06 0 0.05 0.06 0 0.055 0.06 0 0.06 0.06 0 0.065 0.06 0 0.07 0.06 0 0.075 0.06 0 0.08 0.06 0 0.085 0.06 0 0.09 0.06 0 0.095 0.06 0 0.1 0.06 0 0.105 0.06 0 0.11 0.06 0 0.115 0.06 0 0.12 0.06 0 0.125 0.06 0 0.13 0.06 0 0.135 0.06 0 0.14 0.06 0 0.145 0.06 0 0.15 0.06 0 0.155 0.06 0 0.16 0.06 0 0.165 0.06 0 0.17 0.06 0 0.175 0.06 0 0.18 0.06 0 0.185 0.06 0 0.19 0.06 0 0.195 0.06 0 0.2 0.06 0 0.205 0.06 0 0.21 0.06 0 0.215 0.06 0 0.22 0.06 0 0.225 0.06 0 0.23 0.06 0 0.235 0.06 0 0.24 0.06 0 0.245 0.06 0 0.25 0.06 0 0.255 0.06 0 0.26 0.06 0 0.265 0.06 0 0.27 0.06 0 0.275 0.06 0 0.28 0.06 0 0.285 0.06 0 0.29 0.06 0 0.295 0.06 0 0.3 0.06 0 0.305 0.06 0 0.31 0.06 0 0.315 0.06 0 0.32 0.06 0 0.325 0.06 0 0.33 0.06 0 0.335 0.06 0 0.34 0.06 0 0.345 0.06 0 0.35 0.06 0 0.355 0.06 0 0.36 0.06 0 0.365 0.06 0 0.37 0.06 0 0.375 0.06 0 0.38 0.06 0 0.385 0.06 0 0.39 0.06 0 0.395 0.06 0 0.4 0.06 0 0.405001 0.06 0 0.410003 0.06 0 0.415013 0.06 0 0.420048 0.06 0 0.425146 0.06 0 0.43037 0.06 0 0.435801 0.06 0 0.441516 0.06 0 0.44759 0.06 0 0.454096 0.06 0 0.461121 0.06 0 0.46877 0.06 0 0.477177 0.06 0 0.486512 0.06 0 0.49697 0.06 0 0.508665 0.06 0 0.521094 0.06 0 0.533267 0.06 0 0.545188 0.06 0 0.557002 0.06 0 0.559622 0.06 0 0.562169 0.06 0 0.56467 0.06 0 0.56714 0.06 0 0.569589 0.06 0 0.572022 0.06 0 0.574445 0.06 0 0.576865 0.06 0 0.579285 0.06 0 0.58169 0.06 0 0.584086 0.06 0 0.586479 0.06 0 0.588875 0.06 0 0.591278 0.06 0 0.593692 0.06 0 0.596124 0.06 0 0.598607 0.06 0 0.601189 0.06 0 0.603878 0.06 0 0.606753 0.06 0 0.609842 0.06 0 0.61324 0.06 0 0.616976 0.06 0 0.621079 0.06 0 0.625516 0.06 0 0.630215 0.06 0 0.635079 0.06 0 0.640027 0.06 0 0.645009 0.06 0 0.650003 0.06 0 0.655001 0.06 0 0.66 0.06 0 0.665 0.06 0 0.67 0.06 0 0.675 0.06 0 0.68 0.06 0 0.685 0.06 0 0.69 0.06 0 0.695 0.06 0 0.7 0.06 0 0.705 0.06 0 0.71 0.06 0 0.715 0.06 0 0.72 0.06 0 0.725 0.06 0 0.73 0.06 0 0.735 0.06 0 0.74 0.06 0 0.745 0.06 0 0.75 0.06 0 0.755 0.06 0 0.76 0.06 0 0.765 0.06 0 0.77 0.06 0 0.775 0.06 0 0.78 0.06 0 0.785 0.06 0 0.79 0.06 0 0.795 0.06 0 0.8 0.06 0 0.805 0.06 0 0.81 0.06 0 0.815 0.06 0 0.82 0.06 0 0.825 0.06 0 0.83 0.06 0 0.835 0.06 0 0.84 0.06 0 0.845 0.06 0 0.85 0.06 0 0.855 0.06 0 0.86 0.06 0 0.865 0.06 0 0.87 0.06 0 0.875 0.06 0 0.88 0.06 0 0.885 0.06 0 0.89 0.06 0 0.8
[...]
			<PointData Scalars="VitesseX">
				<DataArray Name="VitesseX" type="Float32" format="ascii">
 0 7.11601e-16 1.24777e-15 -3.86779e-16 1.51459e-15 1.46986e-15 -1.54586e-15 -4.80016e-15 -6.06393e-15 6.78332e-15 1.98087e-15 4.63716e-15 6.59672e-15 -1.03839e-14 1.06892e-14 -1.28516e-14 -7.63957e-15 4.97084e-15 -2.65825e-15 1.15115e-14 -5.58485e-15 -1.58451e-15 8.11788e-15 -5.75499e-15 4.94111e-15 1.54286e-14 2.92431e-15 1.55715e-14 -1.92121e-14 1.74817e-14 1.40658e-14 -2.01113e-14 -1.80065e-14 4.05604e-15 9.94046e-15 -5.91256e-15 -1.17701e-14 1.84972e-14 -4.21167e-15 -1.88952e-14 3.43625e-15 -2.70883e-14 2.75386e-14 -4.19704e-15 1.34928e-14 -1.18094e-14 -7.27026e-15 9.90824e-15 9.66816e-15 -1.67062e-14 4.17194e-14 -1.79944e-15 3.12548e-14 1.73293e-15 -2.8775e-14 3.84074e-14 2.7556e-14 -1.2648e-15 -2.91313e-15 -3.10714e-14 2.81132e-14 -7.71078e-15 3.81091e-14 -4.55407e-14 2.40745e-14 1.72617e-14 4.56383e-14 -1.89501e-14 1.28541e-14 -4.17897e-15 -1.88418e-14 7.36303e-14 7.23136e-13 9.69884e-12 1.18595e-10 1.31935e-09 1.32788e-08 1.20155e-07 9.70584e-07 6.93948e-06 4.34618e-05 0.000235378 0.00108469 0.00417239 0.0131406 0.0334999 0.0696307 0.121549 0.185949 0.259668 0.341234 0.430482 0.527888 0.634032 0.748621 0.866944 0.965203 0.970606 0.944821 0.931661 0.928111 0.928117 0.928054 0.927875 0.927515 0.926902 0.926033 0.924865 0.923598 0.922444 0.9215 0.921064 0.921948 0.925148 0.920043 0.900704 0.902637 0.861348 0.842848 0.765572 0.725861 0.604176 0.505792 0.369895 0.246497 0.140651 0.0675902 0.0274953 0.009923 0.00333695 0.00107535 0.000335753 0.000101893 3.00672e-05 8.62377e-06 2.40295e-06 6.50219e-07 1.70809e-07 4.35517e-08 1.07764e-08 2.5875e-09 6.02778e-10 1.36309e-10 2.98687e-11 6.40593e-12 1.30055e-12 3.23591e-13 -9.4832e-15 3.04214e-14 -1.00426e-14 -7.59532e-14 9.52365e-14 9.44394e-14 6.70956e-14 -5.41428e-14 -5.53276e-14 1.9272e-14 -8.90356e-15 5.67925e-14 -8.02602e-14 9.56276e-14 -3.46441e-14 6.02025e-14 7.94747e-14 -6.94544e-14 8.7757e-14 -1.78159e-13 1.0955e-13 1.15651e-14 -7.90946e-15 -4.90601e-14 4.02026e-16 -4.95815e-14 5.68536e-14 -1.12059e-13 7.6045e-14 -6.83852e-14 4.97941e-14 -9.13698e-14 -1.25217e-13 8.47567e-14 -5.08845e-14 1.80331e-14 1.07697e-13 -8.22727e-14 -6.3713e-14 4.92991e-14 -7.87619e-14 3.08397e-14 -3.73893e-14 -3.55907e-14 -2.01223e-14 -1.22021e-13 -2.14318e-14 6.85679e-14 -6.88722e-14 -4.67096e-14 -7.08406e-14 8.12639e-14 7.02109e-14 0 0 2.31389e-16 8.31511e-16 -9.02703e-17 1.24252e-15 -1.15054e-15 1.17216e-15 1.66469e-15 -5.16844e-15 4.3174e-15 3.18295e-16 3.684e-15 3.59168e-15 9.37655e-15 -1.25886e-14 -1.03072e-14 9.62178e-15 -8.09951e-15 4.12785e-15 3.37649e-15 1.20622e-15 -3.27085e-15 2.0925e-15 4.00889e-15 4.9278e-16 1.5868e-14 5.71317e-15 -3.81142e-15 1.53777e-14 -3.32161e-16 -1.86114e-14 1.05088e-14 -1.46476e-14 7.22869e-15 7.61943e-15 -8.46495e-15 -7.73364e-15 1.41201e-14 -1.89288e-15 -1.45872e-14 -9.60529e-15 2.26769e-15 9.6343e-15 -3.60912e-15 1.61444e-14 -2.54283e-14 2.37626e-14 -2.0473e-14 1.51882e-14 -1.31993e-14 1.91019e-14 3.0361e-14 -2.34244e-14 2.64707e-14 1.6641e-16 2.49555e-14 2.71677e-14 -2.67301e-14 -3.51748e-16 9.10241e-15 -2.06024e-14 4.85907e-14 -2.41684e-14 4.19499e-15 3.79682e-14 2.64348e-14 -7.918e-17 -3.49844e-14 3.30627e-14 2.34744e-14 -3.91136e-15 2.09695e-14 7.17767e-13 9.74379e-12 1.18517e-10 1.31938e-09 1.32788e-08 1.20155e-07 9.70584e-07 6.93948e-06 4.34618e-05 0.000235378 0.00108469 0.00417239 0.0131406 0.0334999 0.0696307 0.121549 0.185949 0.259668 0.341234 0.430482 0.527888 0.634032 0.748621 0.866944 0.965203 0.970606 0.944821 0.931661 0.928111 0.928117 0.928054 0.927875 0.927515 0.926902 0.926033 0.924865 0.923598 0.922444 0.9215 0.921064 0.921948 0.925148 0.920043 0.900704 0.902637 0.861348 0.842848 0.765572 0.725861 0.604176 0.505792 0.369895 0.246497 0.140651 0.0675902 0.0274953 0.009923 0.00333695 0.00107535 0.000335753 0.000101893 3.00672e-05 8.62377e-06 2.40295e-06 6.50219e-07 1.70809e-07 4.35517e-08 1.07764e-08 2.5875e-09 6.02821e-10 1.36352e-10 2.98736e-11 6.30847e-12 1.37716e-12 2.6935e-13 7.30228e-14 -1.02797e-14 -9.28953e-15 8.72308e-15 6.94537e-14 8.83715e-14 -4.00425e-14 -1.02198e-14 5.44319e-15 -8.15656e-15 -5.74172e-14 2.4265e-14 8.79846e-14 -8.09403e-14 5.56434e-14 7.73527e-14 4.65744e-14 -1.03817e-13 1.22957e-13 -6.58628e-14 -7.80618e-14 3.08571e-14 -7.25772e-14 6.79222e-14 1.90072e-14 4.14589e-14 -9.22099e-14 8.63932e-14 1.2656e-15 -5.96585e-14 -9.48945e-15 -2.65801e-14 1.26143e-14 -1.16815e-14 -5.67111e-14 2.35836e-15 -4.21633e-14 -2.32911e-14 -1.31785e-15 -1.11602e-13 3.36629e-14 -7.11007e-14 2.13329e-14 -4.71717e-14 -8.70931e-14 -4.61697e-14 3.15395e-15 -2.19679e-14 -5.48837e-14 3.80157e-16 -1.97382e-14 -2.25113e-14 9.43668e-14 0 0 7.46256e-16 1.62104e-15 8.13321e-16 2.24598e-15 -3.13746e-15 6.41378e-16 1.55094e-15 -3.42683e-15 3.34055e-15 -2.12987e-15 6.69465e-15 3.39153e-15 4.96679e-15 3.33974e-15 -1.28948e-14 1.14772e-14 -7.82061e-15 -9.70665e-16 -5.57557e-15 5.61784e-15 7.84584e-15 9.10286e-16 7.01221e-15 1.1204e-16 1.97125e-14 -1.21322e-14 -5.22321e-15 1.57315e-14 -1.40852e-14 -2.66661e-15 2.1509e-15 7.12422e-15 3.12334e-14 6.93119e-15 -4.07155e-14 3.49005e-15 2.77582e-15 -1.91314e-14 -1.99678e-15 1.2851e-14 -3.22572e-17 4.56439e-15 -6.36102e-15 1.8672e-14 -2.71799e-14 2.61221e-14 -1.43869e-14 2.73852e-15 -1.19358e-14 5.32411e-15 2.94296e-14 3.2299e-15 -3.22152e-14 -1.70089e-14 2.20571e-14 4.94028e-14 -1.28505e-14 1.93855e-14 3.78273e-15 -3.77561e-16 2.99123e-14 -4.36655e-14 2.41445e-14 5.69895e-14 5.93748e-14 -1.38275e-14 -3.87371e-14 2.89142e-14 2.92729e-14 3.42237e-14 2.17023e-14 6.96216e-13 9.69188e-12 1.18542e-10 1.31942e-09 1.32787e-08 1.20155e-07 9.70584e-07 6.93948e-06 4.34618e-05 0.000235378 0.00108469 0.00417239 0.0131406 0.0334999 0.0696307 0.121549 0.185949 0.259668 0.341234 0.430482 0.527888 0.634032 0.748621 0.866944 0.965203 0.970606 0.944821 0.931661 0.928111 0.928117 0.928054 0.927875 0.927515 0.926902 0.926033 0.924865 0.923598 0.922444 0.9215 0.921064 0.921948 0.925148 0.920043 0.900704 0.902637 0.861348 0.842848 0.765572 0.725861 0.604176 0.505792 0.369895 0.246497 0.140651 0.0675902 0.0274953 0.009923 0.00333695 0.00107535 0.000335753 0.000101893 3.00672e-05 8.62377e-06 2.40295e-06 6.50219e-07 1.70809e-07 4.35516e-08 1.07764e-08 2.58751e-09 6.02849e-10 1.36339e-10 2.9898e-11 6.4818e-12 1.23952e-12 3.06331e-13 8.70987e-14 3.94265e-14 -7.31531e-14 7.54444e-14 1.7897e-14 7.40348e-14 -5.43428e-14 -2.06567e-14 -4.63751e-15 -4.63481e-14 8.48228e-14 2.73115e-14 1.01312e-13 -1.58971e-13 6.59568e-14 -1.88832e-14 7.45779e-14 9.25727e-15 -5.57333e-14 1.36561e-13 -1.87382e-13 -4.23512e-14 -1.40401e-13 3.07136e-13 1.53413e-14 1.16173e-13 -6.79438e-14 1.15688e-14 5.11067e-14 4.91958e-14 -1.39418e-13 -4.72674e-14 7.9528e-14 1.06217e-14 -1.47631e-13 -1.02067e-13 -7.58492e-14 -8.73779e-14 2.73573e-14 -8.55051e-14 -4.84468e-14 -9.85091e-15 -1.58694e-14 -1.87084e-15 -1.09273e-13 -1.33129e-14 -8.91618e-16 2.01307e-14 -7.33282e-14 -8.31574e-14 5.02e-14 1.78463e-14 -3.4111e-14 0 0 6.89495e-16 1.48786e-16 -1.87258e-16 3.65875e-15 -2.51345e-15 -3.43895e-15 7.90666e-16 5.06212e-15 -1.43252e-15 5.84043e-15 -7.43809e-17 3.09238e-15 -9.38699e-15 1.3491e-14 -7.94363e-15 5.96773e-15 1.93813e-15 -6.41845e-15 1.39625e-14 -5.89758e-15 -1.63027e-15 1.71111e-14 -3.80838e-15 2.76887e-15 1.34372e-14 -2.82199e-14 2.63873e-14 1.08388e-14 -2.47983e-14 -9.88876e-15 1.68193e-14 4.60521e-15 3.47499e-14 -2.95931e-15 -3.58051e-14 -9.41432e-15 1.59973e-14 -2.91396e-14 1.57697e-14 2.58285e-14 -1.39047e-14 -6.86087e-15 -1.05472e-14 1.04474e-14 -1.13944e-14 -4.22898e-15 4.83956e-14 -2.57228e-14 -1.1825e-14 5.04595e-16 3.45371e-14 2.64686e-14 -2.85435e-14 -3.74205e-14 -6.48477e-15 1.71812e-14 2.65579e-14 3.4628e-14 3.23157e-14 4.55515e-14 -3.41377e-14 -6.68969e-15 3.58492e-14 -2.4574e-14 8.05523e-14 -5.07709e-14 3.0928e-14 8.9024e-15 6.73133e-14 2.04109e-15 1.09039e-13 7.08643e-13 9.57187e-12 1.18592e-10 1.31943e-09 1.32787e-08 1.20155e-07 9.70584e-07 6.93948e-06 4.34618e-05 0.000235378 0.00108469 0.00417239 0.0131406 0.0334999 0.0696307 0.121549 0.185949 0.259668 0.341234 0.430482 0.527888 0.634032 0.748621 0.866944 0.965203 0.970606 0.944821 0.931661 0.928111 0.928117 0.928054 0.927875 0.927515 0.926902 0.926033 0.924865 0.923598 0.922444 0.9215 0.921064 0.921948 0.925148 0.920043 0.900704 0.902637 0.861348 0.842848 0.765572 0.725861 0.604176 0.505792 0.369895 0.246497 0.140651 0.0675902 0.0274953 0.009923 0.00333695 0.00107535 0.000335753 0.000101893 3.00672e-05 8.62377e-06 2.40295e-06 6.50219e-07 1.70809e-07 4.35516e-08 1.07765e-08 2.58755e-09 6.02779e-10 1.36344e-10 2.98917e-11 6.51344e-12 1.20719e-12 4.50488e-13 -6.29092e-14 9.51386e-14 3.76477e-14 2.4335e-14 -7.00443e-14 3.93635e-14 6.27313e-14 -3.13755e-14 -4.28685e-14 1.04102e-13 6.86234e-14 4.15267e-14 -1.79072e-13 -5.83598e-14 5.78441e-14 -6.01831e-14 1.7794e-13 3.37376e-14 1.06766e-13 1.1166e-14 -1.29474e-13 -1.20862e-13 -1.50796e-13 2.94926e-13 4.73945e-14 -1.90583e-14 4.81993e-14 -4.96541e-14 1.49438e-13 -5.92414e-14 -6.55807e-14 -8.49078e-14 -8.49377e-14 -1.11619e-13 1.29113e-13 -2.86087e-13 2.94788e-14 -1.52264e-13 -7.42288e-14 6.56558e-14 9.23695e-15 5.14162e-14 8.50536e-14 -1.45376e-13 -6.65455e-14 -5.18593e-14 -8.38838e-14 1.30955e-13 -1.16371e-13 -6.17977e-14 6.58111e-15 -1.66388e-14 -6.41712e-14 0 0 -5.27291e-16 -3.97425e-16 -1.44531e-15 4.01909e-15 -1.63086e-15 -2.9853e-16 4.57391e-15 8.77515e-15 3.74278e-15 5.44194e-15 -5.84774e-15 3.94397e-15 5.59487e-16 -7.55725e-15 6.73584e-15 2.85297e-15 -1.1647e-14 2.98672e-15 1.096e-14 6.05738e-15 2.61228e-14 -7.10919e-15 1.03187e-14 -1.16999e-15 -8.52603e-15 -1.31934e-14 2.72377e-14 1.13536e-14 -1.9738e-14 -2.42615e-14 2.04714e-14 -1.35457e-14 2.05814e-14 -2.09812e-14 -1.6263e-14 -2.29097e-15 2.78621e-14 -7.2997e-15 1.14861e-15 -2.49655e-15 -4.90941e-15 -2.28749e-14 2.28458e-14 -1.64833e-15 -1.60507e-14 1.43262e-14 5.37618e-14 -1.99348e-14 -3.18375e-15 -1.00821e-14 2.21839e-14 -2.1893e-14 4.45552e-14 -2.22385e-14 -1.02998e-14 2.15262e-14 1.12029e-14 2.11847e-14 6.03496e-14 3.16221e-14 -1.29821e-14 3.10747e-14 -2.27964e-14 -3.77267e-14 3.85607e-14 -5.54718e-14 2.70406e-14 5.36204e-14 9.39504e-14 -3.05311e-15 1.07049e-13 7.1544e-13 9.59208e-12 1.18577e-10 1.31933e-09 1.32787e-08 1.20155e-07 9.70584e-07 6.93948e-06 4.34618e-05 0.000235378 0.00108469 0.00417239 0.0131406 0.0334999 0.0696307 0.121549 0.185949 0.259668 0.341234 0.430482 0.527888 0.634032 0.748621 0.866944 0.965203 0.970606 0.944821 0.931661 0.928111 0.928117 0.928054 0.927875 0.927515 0.926902 0.926033 0.924865 0.923598 0.922444 0.9215 0.921064 0.921948 0.925148 0.920043 0.900704 0.902637 0.861348 0.842848 0.765572 0.725861 0.604176 0.505792 0.369895 0.246497 0.140651 0.0675902 0.0274953 0.009923 0.00333695 0.00107535 0.000335753 0.000101893 3.00672e-05 8.62377e-06 2.40295e-06 6.50219e-07 1.70809e-07 4.35517e-08 1.07764e-08 2.58754e-09 6.02733e-10 1.36437e-10 2.99403e-11 6.33512e-12 1.41286e-12 3.08127e-13 -1.27366e-14 7.63607e-14 8.10142e-14 -7.2872e-14 7.60716e-14 8.90746e-15 -4.77973e-14 1.75649e-14 1.5174e-14 2.87541e-14 -5.36186e-14 1.40135e-13 -1.8601e-13 2.40695e-14 6.41336e-15 9.09725e-14 3.92898e-14 -1.14533e-13 3.08144e-13 -7.22462e-14 7.07132e-14 -1.68585e-13 -1.92396e-14 4.89221e-14 2.22054e-14 -2.46629e-13 -2.42348e-14 2.07254e-13 9.47828e-14 -1.99582e-13 -7.97124e-14 5.86927e-14 6.76238e-16 -2.20296e-13 4.7968e-14 -2.55885e-13 1.54017e-13 8.59052e-14 -1.58299e-13 -4.81247e-14 1.88356e-14 -5.24178e-14 4.27724e-14 -4.23486e-14 3.03211e-13 -1.15324e-13 -1.75095e-13 -6.57821e-14 -1.9911e-13 1.43176e-13 -4.14026e-14 -1.00912e-13 -2.48604e-15 0 0 -6.92238e-16 1.7344e-15 -1.09571e-15 4.24219e-15 -7.38825e-16 3.67341e-15 2.53885e-15 4.84534e-15 1.51802e-14 -3.71245e-15 -8.88264e-16 7.89961e-15 6.89578e-16 4.49305e-16 1.13323e-14 -1.01583e-14 -2.16416e-14 5.95507e-15 -1.23977e-14 2.71483e-14 7.61549e-14 -4.26871e-14 2.85059e-14 -3.6981e-15 -2.0809e-14 -2.71361e-15 1.44489e-14 -1.74748e-14 9.63625e-17 1.721e-14 -2.9523e-14 -1.07646e-14 2.37284e-14 -2.74798e-14 -3.13293e-14 2.4924e-14 1.95383e-14 4.99102e-15 -2.29566e-14 -8.30119e-15 -1.36976e-14 -1.46292e-14 5.70851e-14 -5.64335e-15 -2.4625e-14 3.45593e-14 3.28127e-14 -3.65527e-15 3.10327e-15 -7.0095e-15 -2.83686e-14 -1.21598e-14 3.05585e-14 -3.27617e-14 2.49805e-14 8.07161e-14 -4.21552e-15 9.67482e-15 1.4357e-14 4.0704e-14 -2.75624e-15 7.46436e-14 -1.22933e-13 3.58118e-14 -8.41253e-16 8.73988e-15 -3.42303e-14 9.39932e-14 6.06921e-14 4.724e-14 7.1117e-14 6.93627e-13 9.63546e-12 1.18616e-10 1.31924e-09 1.32787e-08 1.20155e-07 9.70584e-07 6.93948e-06 4.34618e-05 0.000235378 0.00108469 0.00417239 0.0131406 0.0334999 0.0696307 0.121549 0.185949 0.259668 0.341234 0.430482 0.527888 0.634032 0.748621 0.866944 0.965203 0.970606 0.944821 0.931661 0.928111 0.928117 0.928054 0.927875 0.927515 0.926902 0.926033 0.924865 0.923598 0.922444 0.9215 0.921064 0.921948 0.925148 0.920043 0.900704 0.902637 0.861348 0.842848 0.765572 0.725861 0.604176 0.505792 0.369895 0.246497 0.140651 0.0675902 0.0274953 0.009923 0.00333695 0.00107535 0.000335753 0.000101893 3.00672e-05 8.62377e-06 2.40295e-06 6.50219e-07 1.70809e-07 4.35517e-08 1.07764e-08 2.58749e-09 6.02742e-10 1.36469e-10 3.00145e-11 6.39591e-12 1.43676e-12 1.12963e-13 1.19033e-13 9.23331e-14 -5.11999e-14 -1.37015e-13 2.84299e-13 4.60863e-15 -1.82452e-13 2.27897e-14 4.05395e-14 -2.0766e-13 3.11825e-14 2.60132e-13 -6.74546e-14 1.04445e-13 -1.17044e-13 1.69692e-13 -1.42129e-13 -1.3968e-13 1.33426e-13 5.99401e-14 2.90723e-13 -2.30532e-13 1.19673e-13 -6.27903e-14 -5.72139e-14 -3.55284e-13 -3.96029e-14 2.5214e-13 6.64412e-14 -1.31542e-13 -2.38218e-13 1.54764e-13 1.79714e-13 -8.82851e-14 -3.95214e-13 -1.30741e-13 2.89236e-13 2.6607e-13 -1.74694e-13 -1.26083e-13 -2.23501e-13 -5.45796e-14 -1.96098e-13 2.61803e-13 6.75157e-13 -1.83498e-13 -2.11986e-13 -2.40791e-13 -2.71816e-13 1.9594e-13 -2.65451e-14 -6.49332e-15 -6.3872e-14 0
				</DataArray>
				<DataArray Name="VitesseY" type="Float32" format="ascii">