<?xml version="1.0"?>
<VTKFile type="PolyData">
	<PolyData>
		<Piece NumberOfPoints="1206" NumberOfPolys="1000">
			<Points>
				<DataArray type="Float32" NumberOfComponents="3" format="ascii">
 0 0 0 0.005 0 0 0.01 0 0 0.015 0 0 0.02 0 0 0.025 0 0 0.03 0 0 0.035 0 0 0.04 0 0 0.045 0 0 0.05 0 0 0.055 0 0 0.06 0 0 0.065 0 0 0.07 0 0 0.075 0 0 0.08 0 0 0.085 0 0 0.09 0 0 0.095 0 0 0.1 0 0 0.105 0 0 0.11 0 0 0.115 0 0 0.12 0 0 0.125 0 0 0.13 0 0 0.135 0 0 0.14 0 0 0.145 0 0 0.15 0 0 0.155 0 0 0.16 0 0 0.165 0 0 0.17 0 0 0.175 0 0 0.18 0 0 0.185 0 0 0.19 0 0 0.195 0 0 0.2 0 0 0.205 0 0 0.21 0 0 0.215 0 0 0.22 0 0 0.225 0 0 0.23 0 0 0.235 0 0 0.24 0 0 0.245 0 0 0.25 0 0 0.255 0 0 0.26 0 0 0.265 0 0 0.27 0 0 0.275 0 0 0.28 0 0 0.285 0 0 0.290001 0 0 0.295004 0 0 0.30001 0 0 0.305027 0 0 0.310064 0 0 0.315138 0 0 0.320267 0 0 0.325473 0 0 0.330774 0 0 0.336187 0 0 0.341724 0 0 0.347395 0 0 0.353212 0 0 0.359185 0 0 0.365324 0 0 0.371642 0 0 0.378151 0 0 0.384865 0 0 0.391799 0 0 0.398969 0 0 0.406396 0 0 0.414098 0 0 0.4221 0 0 0.430429 0 0 0.439113 0 0 0.448187 0 0 0.457687 0 0 0.467655 0 0 0.478131 0 0 0.489152 0 0 0.500725 0 0 0.512762 0 0 0.524936 0 0 0.537005 0 0 0.548961 0 0 0.560819 0 0 0.572611 0 0 0.584367 0 0 0.596107 0 0 0.607841 0 0 0.619574 0 0 0.631307 0 0 0.643053 0 0 0.645663 0 0 0.648199 0 0 0.650691 0 0 0.653151 0 0 0.655591 0 0 0.658014 0 0 0.660428 0 0 0.662839 0 0 0.665251 0 0 0.667648 0 0 0.670033 0 0 0.672413 0 0 0.67479 0 0 0.677167 0 0 0.679543 0 0 0.681916 0 0 0.684287 0 0 0.686655 0 0 0.689024 0 0 0.691392 0 0 0.693758 0 0 0.696122 0 0 0.698486 0 0 0.700849 0 0 0.703213 0 0 0.705574 0 0 0.707937 0 0 0.7103 0 0 0.712663 0 0 0.715028 0 0 0.717391 0 0 0.719752 0 0 0.722113 0 0 0.724473 0 0 0.726834 0 0 0.729195 0 0 0.731558 0 0 0.733922 0 0 0.736287 0 0 0.738651 0 0 0.741012 0 0 0.743371 0 0 0.74573 0 0 0.748091 0 0 0.750454 0 0 0.752824 0 0 0.755209 0 0 0.75761 0 0 0.760062 0 0 0.762582 0 0 0.765213 0 0 0.767981 0 0 0.770959 0 0 0.774181 0 0 0.777729 0 0 0.781624 0 0 0.785867 0 0 0.790411 0 0 0.795174 0 0 0.800068 0 0 0.805025 0 0 0.810009 0 0 0.815003 0 0 0.820001 0 0 0.825 0 0 0.83 0 0 0.835 0 0 0.84 0 0 0.845 0 0 0.85 0 0 0.855 0 0 0.86 0 0 0.865 0 0 0.87 0 0 0.875 0 0 0.88 0 0 0.885 0 0 0.89 0 0 0.895 0 0 0.9 0 0 0.905 0 0 0.91 0 0 0.915 0 0 0.92 0 0 0.925 0 0 0.93 0 0 0.935 0 0 0.94 0 0 0.945 0 0 0.95 0 0 0.955 0 0 0.96 0 0 0.965 0 0 0.97 0 0 0.975 0 0 0.98 0 0 0.985 0 0 0.99 0 0 0.995 0 0 1 0 0 0 0.02 0 0.005 0.02 0 0.01 0.02 0 0.015 0.02 0 0.02 0.02 0 0.025 0.02 0 0.03 0.02 0 0.035 0.02 0 0.04 0.02 0 0.045 0.02 0 0.05 0.02 0 0.055 0.02 0 0.06 0.02 0 0.065 0.02 0 0.07 0.02 0 0.075 0.02 0 0.08 0.02 0 0.085 0.02 0 0.09 0.02 0 0.095 0.02 0 0.1 0.02 0 0.105 0.02 0 0.11 0.02 0 0.115 0.02 0 0.12 0.02 0 0.125 0.02 0 0.13 0.02 0 0.135 0.02 0 0.14 0.02 0 0.145 0.02 0 0.15 0.02 0 0.155 0.02 0 0.16 0.02 0 0.165 0.02 0 0.17 0.02 0 0.175 0.02 0 0.18 0.02 0 0.185 0.02 0 0.19 0.02 0 0.195 0.02 0 0.2 0.02 0 0.205 0.02 0 0.21 0.02 0 0.215 0.02 0 0.22 0.02 0 0.225 0.02 0 0.23 0.02 0 0.235 0.02 0 0.24 0.02 0 0.245 0.02 0 0.25 0.02 0 0.255 0.02 0 0.26 0.02 0 0.265 0.02 0 0.27 0.02 0 0.275 0.02 0 0.28 0.02 0 0.285 0.02 0 0.290001 0.02 0 0.295004 0.02 0 0.30001 0.02 0 0.305027 0.02 0 0.310064 0.02 0 0.315138 0.02 0 0.320267 0.02 0 0.325473 0.02 0 0.330774 0.02 0 0.336187 0.02 0 0.341724 0.02 0 0.347395 0.02 0 0.353212 0.02 0 0.359185 0.02 0 0.365324 0.02 0 0.371642 0.02 0 0.378151 0.02 0 0.384865 0.02 0 0.391799 0.02 0 0.398969 0.02 0 0.406396 0.02 0 0.414098 0.02 0 0.4221 0.02 0 0.430429 0.02 0 0.439113 0.02 0 0.448187 0.02 0 0.457687 0.02 0 0.467655 0.02 0 0.478131 0.02 0 0.489152 0.02 0 0.500725 0.02 0 0.512762 0.02 0 0.524936 0.02 0 0.537005 0.02 0 0.548961 0.02 0 0.560819 0.02 0 0.572611 0.02 0 0.584367 0.02 0 0.596107 0.02 0 0.607841 0.02 0 0.619574 0.02 0 0.631307 0.02 0 0.643053 0.02 0 0.645663 0.02 0 0.648199 0.02 0 0.650691 0.02 0 0.653151 0.02 0 0.655591 0.02 0 0.658014 0.02 0 0.660428 0.02 0 0.662839 0.02 0 0.665251 0.02 0 0.667648 0.02 0 0.670033 0.02 0 0.672413 0.02 0 0.67479 0.02 0 0.677167 0.02 0 0.679543 0.02 0 0.681916 0.02 0 0.684287 0.02 0 0.686655 0.02 0 0.689024 0.02 0 0.691392 0.02 0 0.693758 0.02 0 0.696122 0.02 0 0.698486 0.02 0 0.700849 0.02 0 0.703213 0.02 0 0.705574 0.02 0 0.707937 0.02 0 0.7103 0.02 0 0.712663 0.02 0 0.715028 0.02 0 0.717391 0.02 0 0.719752 0.02 0 0.722113 0.02 0 0.724473 0.02 0 0.726834 0.02 0 0.729195 0.02 0 0.731558 0.02 0 0.733922 0.02 0 0.736287 0.02 0 0.738651 0.02 0 0.741012 0.02 0 0.743371 0.02 0 0.74573 0.02 0 0.748091 0.02 0 0.750454 0.02 0 0.752824 0.02 0 0.755209 0.02 0 0.75761 0.02 0 0.760062 0.02 0 0.762582 0.02 0 0.765213 0.02 0 0.767981 0.02 0 0.770959 0.02 0 0.774181 0.02 0 0.777729 0.02 0 0.781624 0.02 0 0.785867 0.02 0 0.790411 0.02 0 0.795174 0.02 0 0.800068 0.02 0 0.805025 0.02 0 0.810009 0.02 0 0.815003 0.02 0 0.820001 0.02 0 0.825 0.02 0 0.83 0.02 0 0.835 0.02 0 0.84 0.02 0 0.845 0.02 0 0.85 0.02 0 0.855 0.02 0 0.86 0.02 0 0.865 0.02 0 0.87 0.02 0 0.875 0.02 0 0.88 0.02 0 0.885 0.02 0 0.89 0.02 0 0.895 0.02 0 0.9 0.02 0 0.905 0.02 0 0.91 0.02 0 0.915 0.02 0 0.92 0.02 0 0.925 0.02 0 0.93 0.02 0 0.935 0.02 0 0.94 0.02 0 0.945 0.02 0 0.95 0.02 0 0.955 0.02 0 0.96 0.02 0 0.965 0.02 0 0.97 0.02 0 0.975 0.02 0 0.98 0.02 0 0.985 0.02 0 0.99 0.02 0 0.995 0.02 0 1 0.02 0 0 0.04 0 0.005 0.04 0 0.01 0.04 0 0.015 0.04 0 0.02 0.04 0 0.025 0.04 0 0.03 0.04 0 0.035 0.04 0 0.04 0.04 0 0.045 0.04 0 0.05 0.04 0 0.055 0.04 0 0.06 0.04 0 0.065 0.04 0 0.07 0.04 0 0.075 0.04 0 0.08 0.04 0 0.085 0.04 0 0.09 0.04 0 0.095 0.04 0 0.1 0.04 0 0.105 0.04 0 0.11 0.04 0 0.115 0.04 0 0.12 0.04 0 0.125 0.04 0 0.13 0.04 0 0.135 0.04 0 0.14 0.04 0 0.145 0.04 0 0.15 0.04 0 0.155 0.04 0 0.16 0.04 0 0.165 0.04 0 0.17 0.04 0 0.175 0.04 0 0.18 0.04 0 0.185 0.04 0 0.19 0.04 0 0.195 0.04 0 0.2 0.04 0 0.205 0.04 0 0.21 0.04 0 0.215 0.04 0 0.22 0.04 0 0.225 0.04 0 0.23 0.04 0 0.235 0.04 0 0.24 0.04 0 0.245 0.04 0 0.25 0.04 0 0.255 0.04 0 0.26 0.04 0 0.265 0.04 0 0.27 0.04 0 0.275 0.04 0 0.28 0.04 0 0.285 0.04 0 0.290001 0.04 0 0.295004 0.04 0 0.30001 0.04 0 0.305027 0.04 0 0.310064 0.04 0 0.315138 0.04 0 0.320267 0.04 0 0.325473 0.04 0 0.330774 0.04 0 0.336187 0.04 0 0.341724 0.04 0 0.347395 0.04 0 0.353212 0.04 0 0.359185 0.04 0 0.365324 0.04 0 0.371642 0.04 0 0.378151 0.04 0 0.384865 0.04 0 0.391799 0.04 0 0.398969 0.04 0 0.406396 0.04 0 0.414098 0.04 0 0.4221 0.04 0 0.430429 0.04 0 0.439113 0.04 0 0.448187 0.04 0 0.457687 0.04 0 0.467655 0.04 0 0.478131 0.04 0 0.489152 0.04 0 0.500725 0.04 0 0.512762 0.04 0 0.524936 0.04 0 0.537005 0.04 0 0.548961 0.04 0 0.560819 0.04 0 0.572611 0.04 0 0.584367 0.04 0 0.596107 0.04 0 0.607841 0.04 0 0.619574 0.04 0 0.631307 0.04 0 0.643053 0.04 0 0.645663 0.04 0 0.648199 0.04 0 0.650691 0.04 0 0.653151 0.04 0 0.655591 0.04 0 0.658014 0.04 0 0.660428 0.04 0 0.662839 0.04 0 0.665251 0.04 0 0.667648 0.04 0 0.670033 0.04 0 0.672413 0.04 0 0.67479 0.04 0 0.677167 0.04 0 0.679543 0.04 0 0.681916 0.04 0 0.684287 0.04 0 0.686655 0.04 0 0.689024 0.04 0 0.691392 0.04 0 0.693758 0.04 0 0.696122 0.04 0 0.698486 0.04 0 0.700849 0.04 0 0.703213 0.04 0 0.705574 0.04 0 0.707937 0.04 0 0.7103 0.04 0 0.712663 0.04 0 0.715028 0.04 0 0.717391 0.04 0 0.719752 0.04 0 0.722113 0.04 0 0.724473 0.04 0 0.726834 0.04 0 0.729195 0.04 0 0.731558 0.04 0 0.733922 0.04 0 0.736287 0.04 0 0.738651 0.04 0 0.741012 0.04 0 0.743371 0.04 0 0.74573 0.04 0 0.748091 0.04 0 0.750454 0.04 0 0.752824 0.04 0 0.755209 0.04 0 0.75761 0.04 0 0.760062 0.04 0 0.762582 0.04 0 0.765213 0.04 0 0.767981 0.04 0 0.770959 0.04 0 0.774181 0.04 0 0.777729 0.04 0 0.781624 0.04 0 0.785867 0.04 0 0.790411 0.04 0 0.795174 0.04 0 0.800068 0.04 0 0.805025 0.04 0 0.810009 0.04 0 0.815003 0.04 0 0.820001 0.04 0 0.825 0.04 0 0.83 0.04 0 0.835 0.04 0 0.84 0.04 0 0.845 0.04 0 0.85 0.04 0 0.855 0.04 0 0.86 0.04 0 0.865 0.04 0 0.87 0.04 0 0.875 0.04 0 0.88 0.04 0 0.885 0.04 0 0.89 0.04 0 0.895 0.04 0 0.9 0.04 0 0.905 0.04 0 0.91 0.04 0 0.915 0.04 0 0.92 0.04 0 0.925 0.04 0 0.93 0.04 0 0.935 0.04 0 0.94 0.04 0 0.945 0.04 0 0.95 0.04 0 0.955 0.04 0 0.96 0.04 0 0.965 0.04 0 0.97 0.04 0 0.975 0.04 0 0.98 0.04 0 0.985 0.04 0 0.99 0.04 0 0.995 0.04 0 1 0.04 0 0 0.06 0 0.005 0.06 0 0.01 0.06 0 0.015 0.06 0 0.02 0.06 0 0.025 0.06 0 0.03 0.06 0 0.035 0.06 0 0.04 0.06 0 0.045 0.06 0 0.05 0.06 0 0.055 0.06 0 0.06 0.06 0 0.065 0.06 0 0.07 0.06 0 0.075 0.06 0 0.08 0.06 0 0.085 0.06 0 0.09 0.06 0 0.095 0.06 0 0.1 0.06 0 0.105 0.06 0 0.11 0.06 0 0.115 0.06 0 0.12 0.06 0 0.125 0.06 0 0.13 0.06 0 0.135 0.06 0 0.14 0.06 0 0.145 0.06 0 0.15 0.06 0 0.155 0.06 0 0.16 0.06 0 0.165 0.06 0 0.17 0.06 0 0.175 0.06 0 0.18 0.06 0 0.185 0.06 0 0.19 0.06 0 0.195 0.06 0 0.2 0.06 0 0.205 0.06 0 0.21 0.06 0 0.215 0.06 0 0.22 0.06 0 0.225 0.06 0 0.23 0.06 0 0.235 0.06 0 0.24 0.06 0 0.245 0.06 0 0.25 0.06 0 0.255 0.06 0 0.26 0.06 0 0.265 0.06 0 0.27 0.06 0 0.275 0.06 0 0.28 0.06 0 0.285 0.06 0 0.290001 0.06 0 0.295004 0.06 0 0.30001 0.06 0 0.305027 0.06 0 0.310064 0.06 0 0.315138 0.06 0 0.320267 0.06 0 0.325473 0.06 0 0.330774 0.06 0 0.336187 0.06 0 0.341724 0.06 0 0.347395 0.06 0 0.353212 0.06 0 0.359185 0.06 0 0.365324 0.06 0 0.371642 0.06 0 0.378151 0.06 0 0.384865 0.06 0 0.391799 0.06 0 0.398969 0.06 0 0.406396 0.06 0 0.414098 0.06 0 0.4221 0.06 0 0.430429 0.06 0 0.439113 0.06 0 0.448187 0.06 0 0.457687 0.06 0 0.467655 0.06 0 0.478131 0.06 0 0.489152 0.06 0 0.500725 0.06 0 0.512762 0.06 0 0.524936 0.06 0 0.537005 0.06 0 0.548961 0.06 0 0.560819 0.06 0 0.572611 0.06 0 0.584367 0.06 0 0.596107 0.06 0 0.607841 0.06 0 0.619574 0.06 0 0.631307 0.06 0 0.643053 0.06 0 0.645663 0.06 0 0.648199 0.06 0 0.650691 0.06 0 0.653151 0.06 0 0.655591 0.06 0 0.658014 0.06 0 0.660428 0.06 0 0.662839 0.06 0 0.665251 0.06 0 0.667648 0.06 0 0.670033 0.06 0 0.672413 0.06 0 0.67479 0.06 0 0.677167 0.06 0 0.679543 0.06 0 0.681916 0.06 0 0.684287 0.06 0 0.686655 0.06 0 0.689024 0.06 0 0.691392 0.06 0 0.693758 0.06 0 0.696122 0.06 0 0.698486 0.06 0 0.700849 0.06 0 0.703213 0
[...]
			<PointData Scalars="VitesseX">
				<DataArray Name="VitesseX" type="Float32" format="ascii">
 0 0 0 0 0 0 0 0 0 0 0 0 0 0 0 0 0 0 0 0 0 0 0 0 0 0 0 0 0 0 0 0 0 0 0 0 0 0 0 0 0 0 0 0 0 0 0 0 0 0 0 0 0 0 0 0 0 0 0 0 0 0 0 0 0 0 0 0 0 0 0 0 0 0 0 0 0 0 0 0 0 0 0 0 0 0 0 0 0 0 0 0 0 0 0 0 0 0 0 0 0 0 0 0 0 0 0 0 0 0 0 0 0 0 0 0 0 0 0 0 0 0 0 0 0 0 0 0 0 0 0 0 0 0 0 0 0 0 0 0 0 0 0 0 0 0 0 0 0 0 0 0 0 0 0 0 0 0 0 0 0 0 0 0 0 0 0 0 0 0 0 0 0 0 0 0 0 0 0 0 0 0 0 0 0 0 0 0 0 0 0 0 0 0 0 0 0 0 0 0 0 0 7.86768e-16 1.63063e-15 1.47495e-15 2.61405e-15 3.62626e-15 1.96017e-15 1.32026e-15 5.8856e-15 6.38007e-15 8.79252e-15 -2.3973e-15 -4.08001e-16 1.05728e-14 5.3028e-15 1.32274e-14 -5.94791e-17 -4.04696e-15 1.24183e-14 7.60144e-15 6.70912e-15 -5.54298e-15 5.19025e-15 4.78045e-15 1.32061e-14 1.42703e-14 -1.24194e-14 2.39936e-14 1.23292e-14 2.89606e-14 -1.33922e-14 2.00215e-14 -1.02296e-14 1.93718e-14 7.82263e-15 1.74789e-14 1.38517e-14 2.29765e-14 8.3266e-15 -3.33821e-15 4.37967e-14 2.76864e-14 2.01475e-14 5.56218e-14 1.01969e-13 3.28062e-13 2.02253e-12 1.38366e-11 8.86929e-11 5.37158e-10 3.07285e-09 1.65624e-08 8.3893e-08 3.98152e-07 1.76451e-06 7.27372e-06 2.7763e-05 9.75939e-05 0.000313961 0.000917583 0.00241691 0.00569419 0.011938 0.0222703 0.0372215 0.056492 0.0792214 0.104476 0.131558 0.160055 0.189754 0.220564 0.252455 0.285434 0.319528 0.354782 0.39125 0.428999 0.468104 0.508649 0.550721 0.594412 0.639803 0.686955 0.735861 0.786358 0.837893 0.888884 0.934839 0.963153 0.957317 0.948161 0.939306 0.933151 0.929678 0.928043 0.927336 0.927005 0.926805 0.926634 0.926472 0.926507 0.926648 0.926846 0.926763 0.926728 0.926644 0.926549 0.926447 0.926354 0.926273 0.926207 0.926162 0.926139 0.926133 0.926197 0.926451 0.926531 0.926494 0.926396 0.926321 0.926232 0.926135 0.926055 0.926 0.925982 0.926104 0.926785 0.927047 0.92686 0.926444 0.926121 0.925782 0.925448 0.925248 0.925161 0.925475 0.927068 0.92634 0.925573 0.924356 0.923495 0.923078 0.924523 0.925686 0.92661 0.921696 0.923835 0.901003 0.865641 0.857507 0.808634 0.72439 0.679768 0.551302 0.440207 0.312558 0.198707 0.108841 0.0511362 0.0211781 0.00812866 0.00300941 0.00109729 0.00039743 0.000143414 5.16003e-05 1.85103e-05 6.61758e-06 2.35652e-06 8.35333e-07 2.94566e-07 1.03264e-07 3.59648e-08 1.24362e-08 4.26684e-09 1.45167e-09 4.89613e-10 1.63534e-10 5.41127e-11 1.76902e-11 5.74369e-12 1.85726e-12 5.67415e-13 1.26341e-13 -5.45122e-14 1.472e-13 -1.42702e-13 2.43186e-14 4.11622e-14 5.82333e-14 2.83482e-14 9.44388e-15 -6.02112e-14 2.55599e-14 -9.01597e-14 1.1312e-13 3.85858e-14 5.901e-14 -1.43269e-14 0 0 1.26126e-16 -9.50205e-16 -3.39127e-15 2.78624e-15 -1.16924e-16 4.51364e-15 -6.11491e-16 3.55589e-15 3.64516e-15 7.17519e-15 -4.11091e-15 -4.93585e-15 1.30027e-14 4.3275e-15 7.31963e-15 4.19675e-15 -7.59654e-15 1.18049e-14 1.01127e-14 1.57116e-14 1.88625e-15 3.01259e-15 5.11955e-15 5.66935e-15 1.42801e-14 9.82467e-15 1.37563e-14 2.06608e-14 1.85082e-14 -7.9365e-15 2.17631e-15 1.51517e-14 2.37717e-14 -8.8435e-15 2.10941e-14 4.40964e-14 2.78246e-14 -1.90847e-14 2.93393e-14 1.92883e-14 3.39015e-14 -3.31081e-15 7.87373e-14 1.03054e-13 3.00079e-13 1.97033e-12 1.38861e-11 8.86833e-11 5.37143e-10 3.07284e-09 1.65624e-08 8.38929e-08 3.98152e-07 1.76451e-06 7.27372e-06 2.7763e-05 9.75939e-05 0.000313961 0.000917583 0.00241691 0.00569419 0.011938 0.0222703 0.0372215 0.056492 0.0792214 0.104476 0.131558 0.160055 0.189754 0.220564 0.252455 0.285434 0.319528 0.354782 0.39125 0.428999 0.468104 0.508649 0.550721 0.594412 0.639803 0.686955 0.735861 0.786358 0.837893 0.888884 0.934839 0.963153 0.957317 0.948161 0.939306 0.933151 0.929678 0.928043 0.927336 0.927005 0.926805 0.926634 0.926472 0.926507 0.926648 0.926846 0.926763 0.926728 0.926644 0.926549 0.926447 0.926354 0.926273 0.926207 0.926162 0.926139 0.926133 0.926197 0.926451 0.926531 0.926494 0.926396 0.926321 0.926232 0.926135 0.926055 0.926 0.925982 0.926104 0.926785 0.927047 0.92686 0.926444 0.926121 0.925782 0.925448 0.925248 0.925161 0.925475 0.927068 0.92634 0.925573 0.924356 0.923495 0.923078 0.924523 0.925686 0.92661 0.921696 0.923835 0.901003 0.865641 0.857507 0.808634 0.72439 0.679768 0.551302 0.440207 0.312558 0.198707 0.108841 0.0511362 0.0211781 0.00812866 0.00300941 0.00109729 0.00039743 0.000143414 5.16003e-05 1.85103e-05 6.61758e-06 2.35652e-06 8.35334e-07 2.94566e-07 1.03264e-07 3.59648e-08 1.24362e-08 4.26694e-09 1.45172e-09 4.89569e-10 1.63595e-10 5.4132e-11 1.76849e-11 5.74963e-12 1.98637e-12 5.90281e-13 1.50388e-13 3.53292e-14 -1.95174e-13 -3.88805e-16 5.68085e-14 -1.85568e-14 -3.78901e-14 -5.27368e-14 1.31059e-13 -1.71309e-14 -7.5272e-14 -1.01281e-14 -1.38257e-13 3.85651e-14 -3.494e-15 6.6451e-14 0 0 -2.05992e-15 -1.2048e-15 -2.16154e-15 3.22743e-15 5.40676e-15 -4.15833e-15 -2.65257e-15 -7.94378e-15 -3.13726e-16 6.3351e-16 1.41971e-14 7.59665e-17 3.23834e-16 4.36733e-15 -1.51294e-14 9.43301e-15 6.48646e-15 1.59e-14 -3.72383e-16 1.14395e-14 1.82285e-14 1.64315e-14 7.0399e-15 -1.06428e-14 1.6022e-14 2.59753e-14 1.22185e-14 2.36343e-14 1.01454e-14 3.60347e-15 -1.1099e-14 4.22858e-14 -1.84537e-14 -4.32586e-16 1.98198e-14 3.33039e-14 1.53699e-14 -1.43259e-15 2.25492e-14 4.02259e-14 -1.29239e-14 3.52714e-14 8.34686e-14 7.39887e-14 2.8045e-13 1.97151e-12 1.39713e-11 8.86299e-11 5.37087e-10 3.07285e-09 1.65625e-08 8.38928e-08 3.98152e-07 1.76451e-06 7.27372e-06 2.7763e-05 9.75939e-05 0.000313961 0.000917583 0.00241691 0.00569419 0.011938 0.0222703 0.0372215 0.056492 0.0792214 0.104476 0.131558 0.160055 0.189754 0.220564 0.252455 0.285434 0.319528 0.354782 0.39125 0.428999 0.468104 0.508649 0.550721 0.594412 0.639803 0.686955 0.735861 0.786358 0.837893 0.888884 0.934839 0.963153 0.957317 0.948161 0.939306 0.933151 0.929678 0.928043 0.927336 0.927005 0.926805 0.926634 0.926472 0.926507 0.926648 0.926846 0.926763 0.926728 0.926644 0.926549 0.926447 0.926354 0.926273 0.926207 0.926162 0.926139 0.926133 0.926197 0.926451 0.926531 0.926494 0.926396 0.926321 0.926232 0.926135 0.926055 0.926 0.925982 0.926104 0.926785 0.927047 0.92686 0.926444 0.926121 0.925782 0.925448 0.925248 0.925161 0.925475 0.927068 0.92634 0.925573 0.924356 0.923495 0.923078 0.924523 0.925686 0.92661 0.921696 0.923835 0.901003 0.865641 0.857507 0.808634 0.72439 0.679768 0.551302 0.440207 0.312558 0.198707 0.108841 0.0511362 0.0211781 0.00812866 0.00300941 0.00109729 0.00039743 0.000143414 5.16003e-05 1.85103e-05 6.61758e-06 2.35652e-06 8.35333e-07 2.94566e-07 1.03264e-07 3.59649e-08 1.24361e-08 4.26696e-09 1.45187e-09 4.8959e-10 1.63602e-10 5.40363e-11 1.76948e-11 5.98888e-12 1.8068e-12 6.85237e-13 1.82109e-13 3.98963e-14 -2.22415e-13 6.47244e-14 9.18119e-14 4.74965e-14 -9.3674e-14 -1.2451e-13 1.20849e-13 -3.23436e-14 -2.06523e-14 4.11074e-14 -1.169e-13 -1.97651e-13 -9.19619e-14 9.04621e-15 0 0 -1.85239e-15 -2.56016e-15 -5.39039e-16 -8.2197e-15 -7.58852e-16 5.99085e-16 -3.88789e-15 -6.23657e-15 2.76926e-15 3.81389e-15 2.11685e-15 -6.58434e-15 -1.20556e-14 2.19799e-15 -9.94459e-15 5.30381e-15 -1.24131e-16 1.38798e-14 9.12347e-15 8.41066e-15 8.70766e-15 1.19778e-14 2.29074e-14 -6.95813e-15 3.19139e-14 3.63604e-14 4.73495e-14 2.42089e-14 8.9964e-15 -3.18167e-14 1.99426e-14 -1.93462e-14 -3.50048e-14 3.77622e-14 2.53238e-14 1.66046e-14 -7.23561e-15 2.56733e-14 -2.4937e-14 3.21293e-14 -1.05563e-14 7.31543e-14 9.94336e-14 6.39083e-14 3.05139e-13 1.98382e-12 1.39466e-11 8.86877e-11 5.37091e-10 3.07279e-09 1.65624e-08 8.38928e-08 3.98152e-07 1.76451e-06 7.27372e-06 2.7763e-05 9.75939e-05 0.000313961 0.000917583 0.00241691 0.00569419 0.011938 0.0222703 0.0372215 0.056492 0.0792214 0.104476 0.131558 0.160055 0.189754 0.220564 0.252455 0.285434 0.319528 0.354782 0.39125 0.428999 0.468104 0.508649 0.550721 0.594412 0.639803 0.686955 0.735861 0.786358 0.837893 0.888884 0.934839 0.963153 0.957317 0.948161 0.939306 0.933151 0.929678 0.928043 0.927336 0.927005 0.926805 0.926634 0.926472 0.926507 0.926648 0.926846 0.926763 0.926728 0.926644 0.926549 0.926447 0.926354 0.926273 0.926207 0.926162 0.926139 0.926133 0.926197 0.926451 0.926531 0.926494 0.926396 0.926321 0.926232 0.926135 0.926055 0.926 0.925982 0.926104 0.926785 0.927047 0.92686 0.926444 0.926121 0.925782 0.925448 0.925248 0.925161 0.925475 0.927068 0.92634 0.925573 0.924356 0.923495 0.923078 0.924523 0.925686 0.92661 0.921696 0.923835 0.901003 0.865641 0.857507 0.808634 0.72439 0.679768 0.551302 0.440207 0.312558 0.198707 0.108841 0.0511362 0.0211781 0.00812866 0.00300941 0.00109729 0.00039743 0.000143414 5.16003e-05 1.85103e-05 6.61758e-06 2.35652e-06 8.35334e-07 2.94566e-07 1.03265e-07 3.59648e-08 1.24363e-08 4.26669e-09 1.45186e-09 4.89661e-10 1.63575e-10 5.41034e-11 1.78011e-11 5.88343e-12 1.66677e-12 5.35669e-13 1.54772e-13 -8.2715e-14 2.20993e-13 -6.52199e-15 1.93038e-13 2.32271e-13 -1.21848e-13 -1.4004e-13 -3.13521e-14 -8.35968e-14 8.8438e-14 -9.98085e-14 6.58171e-14 -3.28055e-14 -1.97067e-13 -3.02269e-14 0 0 0 0 0 0 0 0 0 0 0 0 0 0 0 0 0 0 0 0 0 0 0 0 0 0 0 0 0 0 0 0 0 0 0 0 0 0 0 0 0 0 0 0 0 0 0 0 0 0 0 0 0 0 0 0 0 0 0 0 0 0 0 0 0 0 0 0 0 0 0 0 0 0 0 0 0 0 0 0 0 0 0 0 0 0 0 0 0 0 0 0 0 0 0 0 0 0 0 0 0 0 0 0 0 0 0 0 0 0 0 0 0 0 0 0 0 0 0 0 0 0 0 0 0 0 0 0 0 0 0 0 0 0 0 0 0 0 0 0 0 0 0 0 0 0 0 0 0 0 0 0 0 0 0 0 0 0 0 0 0 0 0 0 0 0 0 0 0 0 0 0 0 0 0 0 0 0 0 0 0 0 0 0 0 0 0 0 0 0 0 0 0 0 0 0 0 0 0 0 0 0
				</DataArray>
				<DataArray Name="VitesseY" type="Float32" format="ascii">
 0 0 0 0 0 0 0 0 0 0 0 0 0 0 0 0 0 0 0 0 0 0 0 0 0 0 0 0 0 0 0 0 0 0 0 0 0 0 0 0 0 0 0 0 0 0 0 0 0 0 0 0 0 0 0 0 0 0 0 0 0 0 0 0 0 0 0 0 0 0 0 0 0 0 0 0 0 0 0 0 0 0 0 0 0 0 0 0 0 0 0 0 0 0 0 0 0 0 0 0 0 0 0 0 0 0 0 0 0 0 0 0 0 0 0 0 0 0 0 0 0 0 0 0 0 0 0 0 0 0 0 0 0 0 0 0 0 0 0 0 0 0 0 0 0 0 0 0 0 0 0 0 0 0 0 0 0 0 0 0 0 0 0 0 0 0 0 0 0 0 0 0 0 0 0 0 0 0 0 0 0 0 0 0 0 0 0 0 0 0 0 0 0 0 0 0 0 0 0 0 0 0 3.61199e-15 3.19661e-15 3.34019e-15 3.49608e-15 1.76157e-15 7.9147e-16 -7.55429e-16 -2.22794e-15 -1.73602e-15 -2.15732e-16 -6.66597e-16 -3.14207e-15 -3.66932e-15 -4.07045e-15 -3.88616e-15 -1.23081e-15 -2.46116e-15 -4.46049e-15 -1.45795e-15 3.33394e-15 3.7635e-15 1.61711e-16 -1.49815e-15 -2.11946e-15 3.47088e-15 3.29247e-15 2.7401e-15 5.63783e-15 5.92773e-15 1.13947e-15 4.47954e-15 6.78861e-15 4.6776e-15 9.42569e-15 7.573e-15 6.34298e-15 1.03004e-14 1.48084e-14 1.51443e-14 1.77115e-14 1.28293e-14 9.79711e-15 1.24175e-14 2.00535e-14 2.94931e-14 1.09903e-14 -1.66106e-14 -2.71795e-15 1.56153e-14 5.52529e-15 -2.02206e-14 -3.04303e-14 3.47283e-16 -2.52167e-15 -3.46692e-15 1.13998e-14 -1.23783e-14 -1.86618e-14 2.57565e-15 6.05635e-15 -1.31146e-14 -2.31977e-14 -2.79223e-14 -2.76397e-14 -7.9108e-15 9.90844e-15 3.01569e-15 -1.86754e-14 -2.58638e-14 7.62994e-15 6.23058e-15 -2.29753e-14 6.43793e-15 7.96308e-15 6.43726e-15 4.99834e-14 3.55029e-14 -8.71086e-15 7.84588e-15 1.43708e-14 9.04191e-15 1.44331e-14 -6.63338e-15 1.78449e-16 1.56668e-14 2.24089e-14 -5.63128e-15 -1.72771e-14 1.31356e-14 2.43122e-15 8.21421e-16 4.46446e-14 1.22871e-13 2.00567e-13 2.60659e-13 2.81809e-13 2.81024e-13 2.72851e-13 2.72529e-13 3.24324e-13 5.98883e-13 5.95931e-13 6.27676e-13 6.30035e-13 6.23373e-13 6.17753e-13 4.83739e-13 1.46428e-13 -2.7013e-13 -6.366e-13 -8.60151e-13 -9.20197e-13 -8.82819e-13 -8.15614e-13 -7.16865e-13 -6.43346e-13 -5.70477e-13 -4.74841e-13 -3.95946e-13 -3.28575e-13 -2.83819e-13 -2.34393e-13 -1.80416e-13 -1.09514e-13 -1.12792e-14 4.31801e-14 6.54559e-14 1.143e-13 1.54388e-13 1.85653e-13 2.10627e-13 2.50078e-13 3.13873e-13 3.49102e-13 3.51556e-13 3.874e-13 4.38742e-13 4.68187e-13 5.06905e-13 5.47115e-13 5.9031e-13 6.15337e-13 6.509e-13 6.65556e-13 6.71526e-13 7.16068e-13 7.4702e-13 7.51145e-13 6.94152e-13 6.34296e-13 5.73093e-13 5.22767e-13 4.59474e-13 3.48641e-13 2.65251e-13 1.91539e-13 8.80771e-14 9.45743e-17 -1.55218e-14 -3.41074e-14 -3.99074e-14 -4.48971e-14 -4.79805e-14 -4.03035e-14 -4.19528e-14 -4.42546e-14 -3.0708e-14 -2.36507e-14 -3.04463e-14 -1.68597e-14 -4.76816e-15 -2.36958e-14 -3.11133e-14 2.80696e-15 -1.99163e-16 -3.28617e-14 -2.75736e-14 -7.98855e-15 1.44507e-14 2.82788e-14 1.58801e-14 1.87051e-15 -2.58548e-14 -1.95565e-14 -2.41622e-14 -2.62003e-14 -4.48123e-16 -3.06597e-14 -5.31667e-14 -5.37203e-14 -4.30663e-14 -5.3003e-14 -6.28521e-14 -5.32304e-14 -9.60791e-14 -1.08373e-13 -4.38198e-14 -1.52346e-14 -3.26141e-14 0 0 5.90607e-15 5.6824e-15 3.52892e-15 2.19398e-15 2.96279e-15 3.72786e-15 5.60525e-15 5.81388e-15 4.10851e-15 1.44842e-15 1.11007e-15 2.12937e-15 2.22633e-15 2.99419e-15 1.01334e-15 -2.26905e-15 -8.8879e-16 9.87894e-17 -2.32871e-15 -4.25609e-15 -5.168e-16 4.36799e-15 5.56148e-15 4.47051e-15 -3.2021e-15 2.57089e-15 6.22237e-15 2.89656e-15 2.04439e-15 5.62748e-15 -9.13189e-16 -1.4212e-15 8.23316e-15 4.39335e-16 -9.24381e-16 8.73239e-15 1.33716e-14 3.46065e-15 4.35488e-15 4.00781e-15 4.12277e-15 2.72201e-15 1.51261e-16 -1.32827e-15 -1.76245e-14 -1.9081e-14 7.81232e-15 3.9143e-15 -2.04563e-14 -1.67948e-14 3.10508e-15 -1.47892e-14 -5.44187e-14 -4.16882e-14 -2.16972e-14 -1.96682e-14 -1.8964e-14 -1.40376e-14 -7.36258e-15 -1.53273e-14 -1.35782e-14 -4.54381e-15 8.92937e-15 -7.72886e-15 -3.16586e-14 -1.63325e-14 -1.39777e-14 -7.54968e-15 -2.29976e-14 -4.12499e-14 -4.98855e-15 -1.59147e-15 -3.48569e-14 -2.04894e-14 3.74501e-15 2.51289e-15 -1.27739e-14 -3.26233e-15 -9.33065e-15 -2.97923e-14 -1.54528e-14 -6.51142e-15 4.15444e-15 -3.2097e-15 -1.25607e-14 -3.6792e-15 -5.43831e-15 2.57153e-15 -1.60669e-14 -2.58444e-14 -2.3369e-15 7.89273e-14 2.20771e-13 3.42327e-13 4.21498e-13 4.50759e-13 4.5633e-13 4.47024e-13 4.45887e-13 5.12213e-13 9.50272e-13 9.38345e-13 9.73663e-13 1.00331e-12 1.04236e-12 1.0343e-12 8.05805e-13 2.1917e-13 -4.62011e-13 -1.02731e-12 -1.38692e-12 -1.5312e-12 -1.48446e-12 -1.37359e-12 -1.23682e-12 -1.05643e-12 -9.24364e-13 -8.32144e-13 -7.03019e-13 -5.65064e-13 -4.43951e-13 -3.32493e-13 -2.35221e-13 -1.56637e-13 -1.1397e-13 -3.82352e-14 6.97948e-14 1.41817e-13 1.82287e-13 2.39689e-13 3.31623e-13 3.80341e-13 4.21458e-13 5.04251e-13 5.74815e-13 6.3914e-13 7.45595e-13 8.17933e-13 8.69544e-13 9.2411e-13 9.47221e-13 1.01909e-12 1.07278e-12 1.11302e-12 1.18811e-12 1.18012e-12 1.14169e-12 1.06748e-12 1.0597e-12 1.06532e-12 9.66277e-13 8.29607e-13 7.31028e-13 6.04637e-13 4.22483e-13 2.10074e-13 1.1031e-13 3.03472e-14 -5.63642e-14 -7.15706e-14 -7.24795e-14 -6.45606e-14 -6.38062e-14 -6.90346e-14 -7.13905e-14 -7.17698e-14 -7.67743e-14 -8.01361e-14 -9.283e-14 -1.14312e-13 -1.1562e-13 -8.13257e-14 -7.48757e-14 -1.33192e-13 -1.12445e-13 -4.01111e-14 -4.32535e-14 -5.87145e-14 -6.13547e-14 -7.18402e-14 -5.91907e-14 -1.16041e-14 5.41087e-14 5.93775e-14 9.25029e-14 3.13531e-14 -4.4569e-14 2.9351e-14 4.50807e-14 6.5119e-15 -4.82093e-14 -2.79706e-14 2.29353e-14 -1.29684e-15 3.63861e-14 5.88339e-15 -1.21505e-13 -1.65647e-13 -1.43666e-13 0 0 2.4234e-15 1.9303e-15 4.31358e-15 6.07399e-15 6.68976e-15 5.1985e-15 7.67772e-16 -2.89151e-15 -5.17523e-15 -5.1389e-15 -1.71138e-15 3.21759e-15 1.1992e-15 -2.73123e-15 -6.60153e-15 -7.57887e-15 -4.10388e-15 -5.00731e-16 3.22555e-16 -1.48382e-15 -2.17394e-15 4.58589e-16 3.0906e-15 6.02352e-16 4.48884e-15 3.29271e-15 3.34727e-15 7.06467e-15 6.37375e-15 3.72586e-15 9.74609e-15 1.36538e-14 2.8231e-16 -2.76701e-16 2.69877e-15 -9.98713e-15 -2.04984e-14 -9.03191e-15 -7.31953e-15 -3.21551e-15 -9.98449e-15 -1.07756e-14 2.67906e-15 -1.89081e-15 2.24378e-15 -8.69928e-16 -6.25298e-15 5.5622e-15 2.67218e-15 -1.12623e-14 -1.37078e-14 -9.67445e-15 -5.31525e-16 -1.24734e-14 -1.59407e-14 -3.72427e-14 -4.18666e-14 -3.23001e-14 -5.29327e-14 -5.15555e-14 -3.50396e-14 -3.03954e-14 -1.76882e-14 2.67503e-14 2.94389e-14 -4.07909e-15 -8.60389e-15 1.67157e-14 4.1521e-14 2.59504e-14 -1.28587e-14 -9.61836e-15 1.51362e-14 3.10222e-14 6.40958e-15 -2.99007e-14 -8.53145e-15 -2.12943e-15 7.80198e-17 1.96159e-14 -6.62933e-15 -1.38117e-15 2.2259e-14 -1.88387e-14 1.53117e-15 8.36206e-15 -1.40769e-14 -2.25255e-14 -4.69643e-14 -3.93075e-14 1.94918e-14 1.05166e-13 1.99632e-13 3.22267e-13 4.08649e-13 4.5201e-13 4.52478e-13 4.28845e-13 4.46265e-13 5.22539e-13 9.72948e-13 9.87352e-13 1.00928e-12 1.06764e-12 1.11032e-12 1.04618e-12 8.09726e-13 2.58385e-13 -4.58301e-13 -1.08389e-12 -1.42932e-12 -1.53197e-12 -1.46286e-12 -1.2932e-12 -1.19577e-12 -1.07706e-12 -9.31448e-13 -7.87037e-13 -6.48307e-13 -5.31349e-13 -4.40122e-13 -3.56254e-13 -2.65894e-13 -1.61907e-13 -3.86646e-14 3.47324e-14 9.22553e-14 1.51498e-13 2.26316e-13 2.89447e-13 2.90899e-13 3.8486e-13 4.82187e-13 5.2073e-13 5.95301e-13 6.76103e-13 7.40084e-13 8.10267e-13 8.63148e-13 9.00425e-13 1.01352e-12 1.06019e-12 1.08068e-12 1.14278e-12 1.12904e-12 1.11138e-12 1.16197e-12 1.21257e-12 1.14057e-12 1.05468e-12 1.00241e-12 9.03449e-13 7.61738e-13 5.74402e-13 4.13646e-13 2.85456e-13 1.31244e-13 1.8315e-14 -3.78053e-14 -6.20631e-14 -9.03918e-14 -1.099e-13 -9.62571e-14 -9.54554e-14 -8.84611e-14 -9.12797e-14 -8.06866e-14 -6.23814e-14 -5.85001e-14 -5.74413e-14 -5.5868e-14 -8.54872e-14 -6.27858e-14 -7.97091e-15 -6.11766e-14 -9.23897e-14 -4.85252e-14 -2.58958e-14 -4.52207e-14 -5.62002e-14 -6.29026e-15 -3.9158e-14 -1.25869e-13 -9.93526e-14 -1.23417e-13 -6.79113e-14 1.74448e-14 -3.13926e-14 -2.15472e-14 1.95216e-14 4.23724e-14 1.55309e-15 -5.58242e-14 -2.17035e-14 -3.28008e-14 1.60006e-14 8.96108e-14 5.2706e-14 -5.83558e-15 0 0 8.03508e-15 8.08327e-15 5.74765e-15 1.53265e-15 -3.50164e-15 -2.28821e-15 2.97177e-15 6.86661e-15 1.01659e-14 1.17889e-14 6.25796e-15 -3.46264e-15 -5.95994e-15 -5.88575e-15 -1.27807e-15 1.29437e-17 -6.13412e-15 -1.18811e-14 -1.08615e-14 -7.4434e-15 -9.95531e-15 -1.59797e-14 -1.58576e-14 -8.41164e-15 -7.55514e-15 3.47391e-16 1.16457e-14 1.69777e-14 1.73709e-14 1.08733e-14 3.72773e-15 -7.85378e-15 -1.39855e-14 -7.99085e-15 -2.39133e-16 9.84091e-15 1.0476e-14 1.82855e-16 -6.55896e-15 -2.45142e-14 -1.93109e-14 -8.56594e-15 -8.44878e-15 -2.42672e-15 -2.81812e-15 9.48371e-15 1.19219e-14 8.16743e-15 2.68007e-14 2.56307e-14 -2.01207e-16 -1.06193e-14 -2.09738e-14 -2.9198e-14 -4.41746e-14 -2.0981e-14 -1.17079e-14 -1.6885e-14 3.67659e-15 3.11594e-14 4.34806e-14 2.96619e-14 8.33679e-15 -1.45232e-14 -3.59091e-15 1.93488e-14 1.90806e-14 -4.47239e-15 -1.41089e-14 -8.74631e-15 -1.82613e-15 9.90282e-15 -1.86129e-14 -4.88531e-14 -9.95561e-15 1.51009e-14 -1.94514e-15 -1.47951e-14 4.46489e-16 2.35243e-14 1.12037e-14 -2.21071e-14 -2.69042e-14 1.57482e-14 1.10904e-14 -1.27671e-15 7.90622e-15 -7.42102e-15 -6.78905e-15 -3.37468e-14 -3.52586e-14 4.22176e-14 1.39765e-13 2.14857e-13 2.61426e-13 2.93908e-13 2.7681e-13 2.66375e-13 2.73539e-13 3.15591e-13 5.45025e-13 5.47334e-13 5.63996e-13 5.77749e-13 5.99871e-13 6.12207e-13 5.06956e-13 1.84938e-13 -2.49088e-13 -6.1874e-13 -8.46781e-13 -9.18002e-13 -9.49472e-13 -8.9186e-13 -7.54944e-13 -6.90036e-13 -5.88912e-13 -4.64884e-13 -3.69711e-13 -3.25062e-13 -2.74018e-13 -2.44904e-13 -1.91721e-13 -1.49926e-13 -1.54043e-13 -5.94554e-14 7.46328e-15 7.16956e-14 8.08694e-14 1.31564e-13 2.1262e-13 2.3272e-13 2.96761e-13 3.7733e-13 4.52452e-13 4.56733e-13 4.85705e-13 5.44826e-13 5.71352e-13 5.60777e-13 5.64368e-13 6.29971e-13 6.6381e-13 6.63726e-13 6.81504e-13 6.61899e-13 6.49158e-13 6.06667e-13 5.76956e-13 6.10376e-13 6.15499e-13 4.40292e-13 4.12523e-13 4.37064e-13 2.79027e-13 1.46551e-13 5.7795e-14 -9.2024e-16 -2.35853e-14 -6.39653e-14 -5.52653e-14 -5.17442e-14 -9.37857e-14 -7.98689e-14 -7.88905e-14 -6.08234e-14 -6.65359e-14 -6.24033e-14 -2.68864e-14 -1.9041e-15 -2.34805e-14 -1.07027e-14 -3.53714e-14 -3.96901e-14 1.81057e-14 -2.02426e-14 -4.74159e-14 -5.91099e-14 -2.99105e-14 2.44579e-14 -2.52228e-14 -5.3843e-14 -3.95491e-14 -1.10418e-13 -1.23811e-13 -9.92674e-14 -9.1508e-14 -3.53441e-14 2.63583e-14 2.4442e-14 -9.16943e-15 -1.04379e-14 -3.94435e-15 -2.34751e-14 -2.04921e-14 -5.87777e-14 -4.54784e-14 6.46585e-15 2.87594e-14 0 0 0 0 0 0 0 0 0 0 0 0 0 0 0 0 0 0 0 0 0 0 0 0 0 0 0 0 0 0 0 0 0 0 0 0 0 0 0 0 0 0 0 0 0 0 0 0 0 0 0 0 0 0 0 0 0 0 0 0 0 0 0 0 0 0 0 0 0 0 0 0 0 0 0 0 0 0 0 0 0 0 0 0 0 0 0 0 0 0 0 0 0 0 0 0 0 0 0 0 0 0 0 0 0 0 0 0 0 0 0 0 0 0 0 0 0 0 0 0 0 0 0 0 0 0 0 0 0 0 0 0 0 0 0 0 0 0 0 0 0 0 0 0 0 0 0 0 0 0 0 0 0 0 0 0 0 0 0 0 0 0 0 0 0 0 0 0 0 0 0 0 0 0 0 0 0 0 