<?xml version="1.0"?>
<VTKFile type="PolyData">
	<PolyData>
		<Piece NumberOfPoints="1206" NumberOfPolys="1000">
			<Points>
				<DataArray type="Float32" NumberOfComponents="3" format="ascii">
 0 0 0 0.005 0 0 0.01 0 0 0.015 0 0 0.02 0 0 0.025 0 0 0.03 0 0 0.035 0 0 0.04 0 0 0.045 0 0 0.05 0 0 0.055 0 0 0.06 0 0 0.065 0 0 0.07 0 0 0.075 0 0 0.08 0 0 0.085 0 0 0.09 0 0 0.095 0 0 0.1 0 0 0.105 0 0 0.11 0 0 0.115 0 0 0.12 0 0 0.125 0 0 0.13 0 0 0.135 0 0 0.14 0 0 0.145 0 0 0.15 0 0 0.155 0 0 0.16 0 0 0.165 0 0 0.17 0 0 0.175 0 0 0.18 0 0 0.185 0 0 0.19 0 0 0.195 0 0 0.2 0 0 0.205 0 0 0.21 0 0 0.215 0 0 0.22 0 0 0.225 0 0 0.23 0 0 0.235 0 0 0.24 0 0 0.245 0 0 0.25 0 0 0.255 0 0 0.26 0 0 0.265001 0 0 0.270004 0 0 0.275011 0 0 0.280026 0 0 0.28506 0 0 0.290125 0 0 0.295238 0 0 0.300417 0 0 0.305676 0 0 0.31103 0 0 0.316489 0 0 0.322062 0 0 0.327758 0 0 0.333584 0 0 0.339548 0 0 0.345659 0 0 0.351926 0 0 0.358358 0 0 0.364966 0 0 0.37176 0 0 0.378754 0 0 0.385961 0 0 0.393395 0 0 0.401073 0 0 0.409013 0 0 0.417236 0 0 0.425764 0 0 0.434621 0 0 0.443836 0 0 0.453439 0 0 0.463464 0 0 0.473943 0 0 0.484906 0 0 0.496366 0 0 0.508276 0 0 0.520425 0 0 0.532516 0 0 0.544511 0 0 0.556408 0 0 0.568229 0 0 0.580002 0 0 0.59175 0 0 0.603486 0 0 0.615218 0 0 0.626947 0 0 0.638676 0 0 0.650408 0 0 0.662154 0 0 0.664763 0 0 0.667299 0 0 0.669789 0 0 0.672249 0 0 0.674688 0 0 0.677111 0 0 0.679524 0 0 0.681936 0 0 0.684347 0 0 0.686744 0 0 0.689129 0 0 0.69151 0 0 0.693887 0 0 0.696264 0 0 0.69864 0 0 0.701013 0 0 0.703384 0 0 0.705753 0 0 0.708121 0 0 0.71049 0 0 0.712855 0 0 0.715219 0 0 0.717583 0 0 0.719946 0 0 0.722309 0 0 0.724671 0 0 0.727032 0 0 0.729393 0 0 0.731754 0 0 0.734116 0 0 0.736478 0 0 0.738838 0 0 0.741198 0 0 0.743559 0 0 0.745921 0 0 0.748283 0 0 0.750644 0 0 0.753004 0 0 0.755366 0 0 0.757727 0 0 0.760088 0 0 0.762449 0 0 0.76481 0 0 0.76717 0 0 0.76953 0 0 0.77189 0 0 0.774251 0 0 0.776612 0 0 0.778976 0 0 0.781339 0 0 0.783701 0 0 0.786061 0 0 0.788431 0 0 0.790802 0 0 0.793207 0 0 0.795657 0 0 0.798141 0 0 0.800744 0 0 0.803489 0 0 0.806403 0 0 0.809573 0 0 0.813035 0 0 0.816849 0 0 0.821013 0 0 0.825493 0 0 0.830214 0 0 0.835085 0 0 0.840032 0 0 0.845012 0 0 0.850004 0 0 0.855002 0 0 0.860001 0 0 0.865 0 0 0.87 0 0 0.875 0 0 0.88 0 0 0.885 0 0 0.89 0 0 0.895 0 0 0.9 0 0 0.905 0 0 0.91 0 0 0.915 0 0 0.92 0 0 0.925 0 0 0.93 0 0 0.935 0 0 0.94 0 0 0.945 0 0 0.95 0 0 0.955 0 0 0.96 0 0 0.965 0 0 0.97 0 0 0.975 0 0 0.98 0 0 0.985 0 0 0.99 0 0 0.995 0 0 1 0 0 0 0.02 0 0.005 0.02 0 0.01 0.02 0 0.015 0.02 0 0.02 0.02 0 0.025 0.02 0 0.03 0.02 0 0.035 0.02 0 0.04 0.02 0 0.045 0.02 0 0.05 0.02 0 0.055 0.02 0 0.06 0.02 0 0.065 0.02 0 0.07 0.02 0 0.075 0.02 0 0.08 0.02 0 0.085 0.02 0 0.09 0.02 0 0.095 0.02 0 0.1 0.02 0 0.105 0.02 0 0.11 0.02 0 0.115 0.02 0 0.12 0.02 0 0.125 0.02 0 0.13 0.02 0 0.135 0.02 0 0.14 0.02 0 0.145 0.02 0 0.15 0.02 0 0.155 0.02 0 0.16 0.02 0 0.165 0.02 0 0.17 0.02 0 0.175 0.02 0 0.18 0.02 0 0.185 0.02 0 0.19 0.02 0 0.195 0.02 0 0.2 0.02 0 0.205 0.02 0 0.21 0.02 0 0.215 0.02 0 0.22 0.02 0 0.225 0.02 0 0.23 0.02 0 0.235 0.02 0 0.24 0.02 0 0.245 0.02 0 0.25 0.02 0 0.255 0.02 0 0.26 0.02 0 0.265001 0.02 0 0.270004 0.02 0 0.275011 0.02 0 0.280026 0.02 0 0.28506 0.02 0 0.290125 0.02 0 0.295238 0.02 0 0.300417 0.02 0 0.305676 0.02 0 0.31103 0.02 0 0.316489 0.02 0 0.322062 0.02 0 0.327758 0.02 0 0.333584 0.02 0 0.339548 0.02 0 0.345659 0.02 0 0.351926 0.02 0 0.358358 0.02 0 0.364966 0.02 0 0.37176 0.02 0 0.378754 0.02 0 0.385961 0.02 0 0.393395 0.02 0 0.401073 0.02 0 0.409013 0.02 0 0.417236 0.02 0 0.425764 0.02 0 0.434621 0.02 0 0.443836 0.02 0 0.453439 0.02 0 0.463464 0.02 0 0.473943 0.02 0 0.484906 0.02 0 0.496366 0.02 0 0.508276 0.02 0 0.520425 0.02 0 0.532516 0.02 0 0.544511 0.02 0 0.556408 0.02 0 0.568229 0.02 0 0.580002 0.02 0 0.59175 0.02 0 0.603486 0.02 0 0.615218 0.02 0 0.626947 0.02 0 0.638676 0.02 0 0.650408 0.02 0 0.662154 0.02 0 0.664763 0.02 0 0.667299 0.02 0 0.669789 0.02 0 0.672249 0.02 0 0.674688 0.02 0 0.677111 0.02 0 0.679524 0.02 0 0.681936 0.02 0 0.684347 0.02 0 0.686744 0.02 0 0.689129 0.02 0 0.69151 0.02 0 0.693887 0.02 0 0.696264 0.02 0 0.69864 0.02 0 0.701013 0.02 0 0.703384 0.02 0 0.705753 0.02 0 0.708121 0.02 0 0.71049 0.02 0 0.712855 0.02 0 0.715219 0.02 0 0.717583 0.02 0 0.719946 0.02 0 0.722309 0.02 0 0.724671 0.02 0 0.727032 0.02 0 0.729393 0.02 0 0.731754 0.02 0 0.734116 0.02 0 0.736478 0.02 0 0.738838 0.02 0 0.741198 0.02 0 0.743559 0.02 0 0.745921 0.02 0 0.748283 0.02 0 0.750644 0.02 0 0.753004 0.02 0 0.755366 0.02 0 0.757727 0.02 0 0.760088 0.02 0 0.762449 0.02 0 0.76481 0.02 0 0.76717 0.02 0 0.76953 0.02 0 0.77189 0.02 0 0.774251 0.02 0 0.776612 0.02 0 0.778976 0.02 0 0.781339 0.02 0 0.783701 0.02 0 0.786061 0.02 0 0.788431 0.02 0 0.790802 0.02 0 0.793207 0.02 0 0.795657 0.02 0 0.798141 0.02 0 0.800744 0.02 0 0.803489 0.02 0 0.806403 0.02 0 0.809573 0.02 0 0.813035 0.02 0 0.816849 0.02 0 0.821013 0.02 0 0.825493 0.02 0 0.830214 0.02 0 0.835085 0.02 0 0.840032 0.02 0 0.845012 0.02 0 0.850004 0.02 0 0.855002 0.02 0 0.860001 0.02 0 0.865 0.02 0 0.87 0.02 0 0.875 0.02 0 0.88 0.02 0 0.885 0.02 0 0.89 0.02 0 0.895 0.02 0 0.9 0.02 0 0.905 0.02 0 0.91 0.02 0 0.915 0.02 0 0.92 0.02 0 0.925 0.02 0 0.93 0.02 0 0.935 0.02 0 0.94 0.02 0 0.945 0.02 0 0.95 0.02 0 0.955 0.02 0 0.96 0.02 0 0.965 0.02 0 0.97 0.02 0 0.975 0.02 0 0.98 0.02 0 0.985 0.02 0 0.99 0.02 0 0.995 0.02 0 1 0.02 0 0 0.04 0 0.005 0.04 0 0.01 0.04 0 0.015 0.04 0 0.02 0.04 0 0.025 0.04 0 0.03 0.04 0 0.035 0.04 0 0.04 0.04 0 0.045 0.04 0 0.05 0.04 0 0.055 0.04 0 0.06 0.04 0 0.065 0.04 0 0.07 0.04 0 0.075 0.04 0 0.08 0.04 0 0.085 0.04 0 0.09 0.04 0 0.095 0.04 0 0.1 0.04 0 0.105 0.04 0 0.11 0.04 0 0.115 0.04 0 0.12 0.04 0 0.125 0.04 0 0.13 0.04 0 0.135 0.04 0 0.14 0.04 0 0.145 0.04 0 0.15 0.04 0 0.155 0.04 0 0.16 0.04 0 0.165 0.04 0 0.17 0.04 0 0.175 0.04 0 0.18 0.04 0 0.185 0.04 0 0.19 0.04 0 0.195 0.04 0 0.2 0.04 0 0.205 0.04 0 0.21 0.04 0 0.215 0.04 0 0.22 0.04 0 0.225 0.04 0 0.23 0.04 0 0.235 0.04 0 0.24 0.04 0 0.245 0.04 0 0.25 0.04 0 0.255 0.04 0 0.26 0.04 0 0.265001 0.04 0 0.270004 0.04 0 0.275011 0.04 0 0.280026 0.04 0 0.28506 0.04 0 0.290125 0.04 0 0.295238 0.04 0 0.300417 0.04 0 0.305676 0.04 0 0.31103 0.04 0 0.316489 0.04 0 0.322062 0.04 0 0.327758 0.04 0 0.333584 0.04 0 0.339548 0.04 0 0.345659 0.04 0 0.351926 0.04 0 0.358358 0.04 0 0.364966 0.04 0 0.37176 0.04 0 0.378754 0.04 0 0.385961 0.04 0 0.393395 0.04 0 0.401073 0.04 0 0.409013 0.04 0 0.417236 0.04 0 0.425764 0.04 0 0.434621 0.04 0 0.443836 0.04 0 0.453439 0.04 0 0.463464 0.04 0 0.473943 0.04 0 0.484906 0.04 0 0.496366 0.04 0 0.508276 0.04 0 0.520425 0.04 0 0.532516 0.04 0 0.544511 0.04 0 0.556408 0.04 0 0.568229 0.04 0 0.580002 0.04 0 0.59175 0.04 0 0.603486 0.04 0 0.615218 0.04 0 0.626947 0.04 0 0.638676 0.04 0 0.650408 0.04 0 0.662154 0.04 0 0.664763 0.04 0 0.667299 0.04 0 0.669789 0.04 0 0.672249 0.04 0 0.674688 0.04 0 0.677111 0.04 0 0.679524 0.04 0 0.681936 0.04 0 0.684347 0.04 0 0.686744 0.04 0 0.689129 0.04 0 0.69151 0.04 0 0.693887 0.04 0 0.696264 0.04 0 0.69864 0.04 0 0.701013 0.04 0 0.703384 0.04 0 0.705753 0.04 0 0.708121 0.04 0 0.71049 0.04 0 0.712855 0.04 0 0.715219 0.04 0 0.717583 0.04 0 0.719946 0.04 0 0.722309 0.04 0 0.724671 0.04 0 0.727032 0.04 0 0.729393 0.04 0 0.731754 0.04 0 0.734116 0.04 0 0.736478 0.04 0 0.738838 0.04 0 0.741198 0.04 0 0.743559 0.04 0 0.745921 0.04 0 0.748283 0.04 0 0.750644 0.04 0 0.753004 0.04 0 0.755366 0.04 0 0.757727 0.04 0 0.760088 0.04 0 0.762449 0.04 0 0.76481 0.04 0 0.76717 0.04 0 0.76953 0.04 0 0.77189 0.04 0 0.774251 0.04 0 0.776612 0.04 0 0.778976 0.04 0 0.781339 0.04 0 0.783701 0.04 0 0.786061 0.04 0 0.788431 0.04 0 0.790802 0.04 0 0.793207 0.04 0 0.795657 0.04 0 0.798141 0.04 0 0.800744 0.04 0 0.803489 0.04 0 0.806403 0.04 0 0.809573 0.04 0 0.813035 0.04 0 0.816849 0.04 0 0.821013 0.04 0 0.825493 0.04 0 0.830214 0.04 0 0.835085 0.04 0 0.840032 0.04 0 0.845012 0.04 0 0.850004 0.04 0 0.855002 0.04 0 0.860001 0.04 0 0.865 0.04 0 0.87 0.04 0 0.875 0.04 0 0.88 0.04 0 0.885 0.04 0 0.89 0.04 0 0.895 0.04 0 0.9 0.04 0 0.905 0.04 0 0.91 0.04 0 0.915 0.04 0 0.92 0.04 0 0.925 0.04 0 0.93 0.04 0 0.935 0.04 0 0.94 0.04 0 0.945 0.04 0 0.95 0.04 0 0.955 0.04 0 0.96 0.04 0 0.965 0.04 0 0.97 0.04 0 0.975 0.04 0 0.98 0.04 0 0.985 0.04 0 0.99 0.04 0 0.995 0.04 0 1 0.04 0 0 0.06 0 0.005 0.06 0 0.01 0.06 0 0.015 0.06 0 0.02 0.06 0 0.025 0.06 0 0.03 0.06 0 0.035 0.06 0 0.04 0.06 0 0.045 0.06 0 0.05 0.06 0 0.055 0.06 0 0.06 0.06 0 0.065 0.06 0 0.07 0.06 0 0.075 0.06 0 0.08 0.06 0 0.085 0.06 0 0.09 0.06 0 0.095 0.06 0 0.1 0.06 0 0.105 0.06 0 0.11 0.06 0 0.115 0.06 0 0.12 0.06 0 0.125 0.06 0 0.13 0.06 0 0.135 0.06 0 0.14 0.06 0 0.145 0.06 0 0.15 0.06 0 0.155 0.06 0 0.16 0.06 0 0.165 0.06 0 0.17 0.06 0 0.175 0.06 0 0.18 0.06 0 0.185 0.06 0 0.19 0.06 0 0.195 0.06 0 0.2 0.06 0 0.205 0.06 0 0.21 0.06 0 0.215 0.06 0 0.22 0.06 0 0.225 0.06 0 0.23 0.06 0 0.235 0.06 0 0.24 0.06 0 0.245 0.06 0 0.25 0.06 0 0.255 0.06 0 0.26 0.06 0 0.265001 0.06 0 0.270004 0.06 0 0.275011 0.06 0 0.280026 0.06 0 0.28506 0.06 0 0.290125 0.06 0 0.295238 0.06 0 0.300417 0.06 0 0.305676 0.06 0 0.31103 0.06 0 0.316489 0.06 0 0.322062 0.06 0 0.327758 0.06 0 0.333584 0.06 0 0.339548 0.06 0 0.345659 0.06 0 0.351926 0.06 0 0.358358 0.06 0 0.364966 0.06 0 0.37176 0.06 0 0.378754 0.06 0 0.385961 0.06 0 0.393395 0.06 0 0.401073 0.06 0 0.409013 0.06 0 0.417236 0.06 0 0.425764 0.06 0 0.434621 0.06 0 0.443836 0.06 0 0.453439 0.06 0 0.463464 0.06 0 0.473943 0.06 0 0.484906 0.06 0 0.496366 0.06 0 0.508276 0.06 0 0.520425 0.06 0 0.532516 0.06 0 0.544511 0.06 0 0.556408 0.06 0 0.568229 0.06 0 0.580002 0.06 0 0.59175 0.06 0 0.603486 0.06 0 0.615218 0.06 0 0.626947 0.06 0 0.638676 0.06 0 0.650408 0.06 0 0.662154 0.06 0 0.664763 0.06 0 0.667299 0.06 0 0.669789 0.06 0 0.672249 0.06 0 0.674688 0.06 0 0.677111 0.06 0 0.679524 0.06 0 0.681936 0.06 0 0.684347 0.06 0 0.686744 0.06 0 0.689129 0.06 0 0.69151 0.06 0 0.693887 0.06 0 0.696264 0.06 0 0.69864 0.06 0 0.701013 0.06
[...]
			<PointData Scalars="VitesseX">
				<DataArray Name="VitesseX" type="Float32" format="ascii">
 0 0 0 0 0 0 0 0 0 0 0 0 0 0 0 0 0 0 0 0 0 0 0 0 0 0 0 0 0 0 0 0 0 0 0 0 0 0 0 0 0 0 0 0 0 0 0 0 0 0 0 0 0 0 0 0 0 0 0 0 0 0 0 0 0 0 0 0 0 0 0 0 0 0 0 0 0 0 0 0 0 0 0 0 0 0 0 0 0 0 0 0 0 0 0 0 0 0 0 0 0 0 0 0 0 0 0 0 0 0 0 0 0 0 0 0 0 0 0 0 0 0 0 0 0 0 0 0 0 0 0 0 0 0 0 0 0 0 0 0 0 0 0 0 0 0 0 0 0 0 0 0 0 0 0 0 0 0 0 0 0 0 0 0 0 0 0 0 0 0 0 0 0 0 0 0 0 0 0 0 0 0 0 0 0 0 0 0 0 0 0 0 0 0 0 0 0 0 0 0 0 0 6.92096e-16 4.26503e-16 -1.47886e-15 4.34423e-15 2.73211e-15 3.3991e-15 -2.27107e-15 -1.57174e-16 7.21829e-15 6.3056e-15 2.10974e-15 5.83225e-15 1.30948e-14 -8.17958e-15 7.19338e-15 -2.89219e-15 1.07559e-14 1.48546e-14 2.16251e-15 1.2056e-14 1.55344e-14 1.1841e-14 1.71601e-14 -3.60765e-15 1.66479e-15 2.93663e-14 -9.43897e-15 2.26788e-14 2.34321e-14 2.53872e-14 7.96863e-15 3.24959e-14 2.53318e-14 3.24738e-15 3.42852e-14 5.27489e-14 2.37317e-14 5.79105e-14 1.54251e-13 9.9152e-13 6.09944e-12 3.69956e-11 2.13791e-10 1.17319e-09 6.09922e-09 2.9979e-08 1.38974e-07 6.05938e-07 2.47708e-06 9.46031e-06 3.36124e-05 0.000110558 0.000334715 0.00092662 0.00232915 0.00528067 0.0107511 0.0196533 0.0324442 0.0489265 0.0684254 0.090158 0.1135 0.138056 0.163608 0.190047 0.217328 0.245437 0.27438 0.304176 0.334854 0.366451 0.39901 0.43258 0.467216 0.502978 0.53993 0.578137 0.617667 0.658575 0.700898 0.744623 0.789622 0.835499 0.881191 0.923848 0.955708 0.959896 0.951108 0.942795 0.936002 0.931459 0.928955 0.927758 0.927218 0.926948 0.926787 0.926696 0.926663 0.926527 0.9265 0.92648 0.926468 0.926464 0.926498 0.926617 0.926577 0.926551 0.926523 0.926495 0.926482 0.926475 0.926474 0.926476 0.926517 0.926705 0.926894 0.926761 0.926699 0.926618 0.92651 0.92642 0.926343 0.926296 0.926273 0.926267 0.926243 0.926189 0.926126 0.926048 0.926004 0.925983 0.926082 0.926527 0.926344 0.926218 0.925994 0.925823 0.925679 0.925675 0.926114 0.926228 0.925696 0.925109 0.924451 0.924178 0.92423 0.926282 0.926157 0.92454 0.924187 0.923807 0.919755 0.92543 0.896933 0.897205 0.857262 0.808131 0.771348 0.666951 0.594767 0.463751 0.343284 0.223564 0.126975 0.0616532 0.0261548 0.0101712 0.0037898 0.00138706 0.000504068 0.000182614 6.60357e-05 2.38412e-05 8.59238e-06 3.09029e-06 1.10869e-06 3.96593e-07 1.41382e-07 5.02022e-08 1.7746e-08 6.24166e-09 2.18309e-09 7.58869e-10 2.62155e-10 8.98537e-11 3.06807e-11 1.03716e-11 3.55799e-12 1.15538e-12 3.31163e-13 1.49885e-13 7.28526e-14 -3.95354e-14 8.04781e-14 -9.94812e-14 1.60592e-14 -2.09306e-14 1.30728e-14 0 0 1.35738e-15 -1.50433e-15 -1.73646e-15 -2.06804e-15 2.25142e-15 3.31853e-15 -5.26585e-15 4.18654e-15 4.15365e-15 5.35982e-15 -1.86661e-15 1.01246e-14 9.77846e-15 -4.08319e-15 -3.36953e-15 6.65793e-15 1.74963e-14 1.08454e-14 1.8253e-14 3.6759e-15 1.19782e-14 1.20196e-14 1.8822e-14 2.92737e-15 6.03891e-15 1.6619e-14 6.28384e-16 -3.88482e-16 2.91149e-14 2.64617e-14 1.38726e-14 3.3535e-14 9.25627e-15 -2.51063e-14 1.98808e-14 7.00746e-14 3.6699e-14 6.46341e-14 1.7641e-13 9.58146e-13 6.04413e-12 3.70218e-11 2.13795e-10 1.17321e-09 6.09919e-09 2.9979e-08 1.38974e-07 6.05938e-07 2.47708e-06 9.46031e-06 3.36124e-05 0.000110558 0.000334715 0.00092662 0.00232915 0.00528067 0.0107511 0.0196533 0.0324442 0.0489265 0.0684254 0.090158 0.1135 0.138056 0.163608 0.190047 0.217328 0.245437 0.27438 0.304176 0.334854 0.366451 0.39901 0.43258 0.467216 0.502978 0.53993 0.578137 0.617667 0.658575 0.700898 0.744623 0.789622 0.835499 0.881191 0.923848 0.955708 0.959896 0.951108 0.942795 0.936002 0.931459 0.928955 0.927758 0.927218 0.926948 0.926787 0.926696 0.926663 0.926527 0.9265 0.92648 0.926468 0.926464 0.926498 0.926617 0.926577 0.926551 0.926523 0.926495 0.926482 0.926475 0.926474 0.926476 0.926517 0.926705 0.926894 0.926761 0.926699 0.926618 0.92651 0.92642 0.926343 0.926296 0.926273 0.926267 0.926243 0.926189 0.926126 0.926048 0.926004 0.925983 0.926082 0.926527 0.926344 0.926218 0.925994 0.925823 0.925679 0.925675 0.926114 0.926228 0.925696 0.925109 0.924451 0.924178 0.92423 0.926282 0.926157 0.92454 0.924187 0.923807 0.919755 0.92543 0.896933 0.897205 0.857262 0.808131 0.771348 0.666951 0.594767 0.463751 0.343284 0.223564 0.126975 0.0616532 0.0261548 0.0101712 0.0037898 0.00138706 0.000504068 0.000182614 6.60357e-05 2.38412e-05 8.59238e-06 3.09029e-06 1.10869e-06 3.96593e-07 1.41382e-07 5.02022e-08 1.77461e-08 6.24159e-09 2.18313e-09 7.58953e-10 2.62122e-10 8.99631e-11 3.06339e-11 1.05013e-11 3.54978e-12 1.26853e-12 2.93833e-13 -1.35686e-14 -1.07814e-14 -3.92373e-14 6.91508e-14 5.10763e-14 1.94503e-14 -9.69756e-14 9.97069e-14 0 0 1.29967e-15 3.358e-15 -1.36297e-15 -5.59713e-15 -2.73492e-15 -4.40974e-15 -3.82984e-15 1.06164e-15 -8.76641e-16 2.42352e-15 -2.20399e-15 -1.39715e-15 1.25773e-14 2.27671e-14 5.36626e-15 5.11953e-15 -5.94473e-15 2.48237e-14 2.34752e-14 8.13677e-15 4.04085e-15 5.85007e-15 -2.84156e-15 3.58871e-14 1.4603e-14 -3.59349e-14 3.06764e-14 1.13888e-14 -6.04356e-16 1.93934e-14 6.51264e-15 4.24679e-14 -4.36561e-15 8.5802e-16 1.24985e-14 1.94108e-14 1.1053e-13 8.5099e-14 1.39712e-13 9.75922e-13 5.96825e-12 3.70441e-11 2.13823e-10 1.17323e-09 6.09912e-09 2.9979e-08 1.38974e-07 6.05938e-07 2.47708e-06 9.46031e-06 3.36124e-05 0.000110558 0.000334715 0.00092662 0.00232915 0.00528067 0.0107511 0.0196533 0.0324442 0.0489265 0.0684254 0.090158 0.1135 0.138056 0.163608 0.190047 0.217328 0.245437 0.27438 0.304176 0.334854 0.366451 0.39901 0.43258 0.467216 0.502978 0.53993 0.578137 0.617667 0.658575 0.700898 0.744623 0.789622 0.835499 0.881191 0.923848 0.955708 0.959896 0.951108 0.942795 0.936002 0.931459 0.928955 0.927758 0.927218 0.926948 0.926787 0.926696 0.926663 0.926527 0.9265 0.92648 0.926468 0.926464 0.926498 0.926617 0.926577 0.926551 0.926523 0.926495 0.926482 0.926475 0.926474 0.926476 0.926517 0.926705 0.926894 0.926761 0.926699 0.926618 0.92651 0.92642 0.926343 0.926296 0.926273 0.926267 0.926243 0.926189 0.926126 0.926048 0.926004 0.925983 0.926082 0.926527 0.926344 0.926218 0.925994 0.925823 0.925679 0.925675 0.926114 0.926228 0.925696 0.925109 0.924451 0.924178 0.92423 0.926282 0.926157 0.92454 0.924187 0.923807 0.919755 0.92543 0.896933 0.897205 0.857262 0.808131 0.771348 0.666951 0.594767 0.463751 0.343284 0.223564 0.126975 0.0616532 0.0261548 0.0101712 0.0037898 0.00138706 0.000504068 0.000182614 6.60357e-05 2.38412e-05 8.59238e-06 3.09029e-06 1.10869e-06 3.96593e-07 1.41382e-07 5.02022e-08 1.77462e-08 6.24143e-09 2.18318e-09 7.58954e-10 2.62133e-10 8.99915e-11 3.07457e-11 1.05029e-11 3.45739e-12 1.49087e-12 1.62671e-13 -9.38125e-14 1.3755e-13 -3.89003e-14 -4.23623e-14 6.83173e-14 2.96284e-13 -7.59654e-14 9.8144e-14 0 0 1.32986e-16 5.73786e-15 1.18212e-15 3.1154e-16 -2.1577e-15 -3.83234e-15 -7.94204e-15 -2.33159e-15 -9.81045e-15 2.61405e-15 3.00042e-15 4.13418e-16 1.22931e-14 1.8328e-14 2.25637e-14 1.12022e-15 -5.75347e-15 3.24543e-14 1.60731e-14 2.83272e-14 7.57053e-15 7.40521e-15 1.40657e-16 1.07596e-14 -5.14138e-15 -2.76633e-14 -1.20332e-15 5.54815e-15 1.03797e-14 2.73815e-14 9.38609e-15 3.37118e-14 3.08602e-14 -2.21926e-14 6.88753e-15 6.38155e-14 1.29567e-13 9.29045e-14 1.77351e-13 9.07769e-13 5.9245e-12 3.70656e-11 2.1384e-10 1.1732e-09 6.09909e-09 2.9979e-08 1.38974e-07 6.05938e-07 2.47708e-06 9.46031e-06 3.36124e-05 0.000110558 0.000334715 0.00092662 0.00232915 0.00528067 0.0107511 0.0196533 0.0324442 0.0489265 0.0684254 0.090158 0.1135 0.138056 0.163608 0.190047 0.217328 0.245437 0.27438 0.304176 0.334854 0.366451 0.39901 0.43258 0.467216 0.502978 0.53993 0.578137 0.617667 0.658575 0.700898 0.744623 0.789622 0.835499 0.881191 0.923848 0.955708 0.959896 0.951108 0.942795 0.936002 0.931459 0.928955 0.927758 0.927218 0.926948 0.926787 0.926696 0.926663 0.926527 0.9265 0.92648 0.926468 0.926464 0.926498 0.926617 0.926577 0.926551 0.926523 0.926495 0.926482 0.926475 0.926474 0.926476 0.926517 0.926705 0.926894 0.926761 0.926699 0.926618 0.92651 0.92642 0.926343 0.926296 0.926273 0.926267 0.926243 0.926189 0.926126 0.926048 0.926004 0.925983 0.926082 0.926527 0.926344 0.926218 0.925994 0.925823 0.925679 0.925675 0.926114 0.926228 0.925696 0.925109 0.924451 0.924178 0.92423 0.926282 0.926157 0.92454 0.924187 0.923807 0.919755 0.92543 0.896933 0.897205 0.857262 0.808131 0.771348 0.666951 0.594767 0.463751 0.343284 0.223564 0.126975 0.0616532 0.0261548 0.0101712 0.0037898 0.00138706 0.000504068 0.000182614 6.60357e-05 2.38412e-05 8.59238e-06 3.09029e-06 1.10869e-06 3.96593e-07 1.41382e-07 5.02023e-08 1.77461e-08 6.24157e-09 2.18323e-09 7.58952e-10 2.62276e-10 8.97617e-11 3.08367e-11 1.03081e-11 3.52436e-12 1.39005e-12 -1.78386e-14 2.55596e-13 1.44155e-13 -1.61688e-13 5.4523e-14 -2.38329e-14 3.89319e-13 -7.98486e-15 7.30145e-14 0 0 0 0 0 0 0 0 0 0 0 0 0 0 0 0 0 0 0 0 0 0 0 0 0 0 0 0 0 0 0 0 0 0 0 0 0 0 0 0 0 0 0 0 0 0 0 0 0 0 0 0 0 0 0 0 0 0 0 0 0 0 0 0 0 0 0 0 0 0 0 0 0 0 0 0 0 0 0 0 0 0 0 0 0 0 0 0 0 0 0 0 0 0 0 0 0 0 0 0 0 0 0 0 0 0 0 0 0 0 0 0 0 0 0 0 0 0 0 0 0 0 0 0 0 0 0 0 0 0 0 0 0 0 0 0 0 0 0 0 0 0 0 0 0 0 0 0 0 0 0 0 0 0 0 0 0 0 0 0 0 0 0 0 0 0 0 0 0 0 0 0 0 0 0 0 0 0 0 0 0 0 0 0 0 0 0 0 0 0 0 0 0 0 0 0 0 0 0 0 0 0
				</DataArray>
				<DataArray Name="VitesseY" type="Float32" format="ascii">
 0 0 0 0 0 0 0 0 0 0 0 0 0 0 0 0 0 0 0 0 0 0 0 0 0 0 0 0 0 0 0 0 0 0 0 0 0 0 0 0 0 0 0 0 0 0 0 0 0 0 0 0 0 0 0 0 0 0 0 0 0 0 0 0 0 0 0 0 0 0 0 0 0 0 0 0 0 0 0 0 0 0 0 0 0 0 0 0 0 0 0 0 0 0 0 0 0 0 0 0 0 0 0 0 0 0 0 0 0 0 0 0 0 0 0 0 0 0 0 0 0 0 0 0 0 0 0 0 0 0 0 0 0 0 0 0 0 0 0 0 0 0 0 0 0 0 0 0 0 0 0 0 0 0 0 0 0 0 0 0 0 0 0 0 0 0 0 0 0 0 0 0 0 0 0 0 0 0 0 0 0 0 0 0 0 0 0 0 0 0 0 0 0 0 0 0 0 0 0 0 0 0 2.47057e-17 4.3955e-16 -1.22572e-15 -1.92406e-15 -1.39807e-15 -1.26253e-15 -2.88028e-15 -3.60936e-15 -2.61155e-15 -1.9477e-15 -1.65303e-15 -1.48833e-15 1.68894e-15 2.41801e-15 3.35733e-16 -2.54152e-15 -2.61772e-15 1.30372e-15 9.3822e-16 -1.31687e-15 -5.35182e-16 2.55527e-15 8.24646e-15 6.02053e-15 -3.57909e-15 3.66423e-15 7.27599e-15 -4.74667e-15 -5.34389e-15 2.73272e-15 -1.26705e-15 -5.49865e-15 4.18839e-16 -7.50111e-15 -1.5004e-14 -3.9595e-15 1.37179e-15 -7.31642e-15 -6.50024e-15 -7.12172e-15 -9.36175e-15 -5.61361e-15 -1.12733e-14 -2.21293e-14 -3.18376e-14 -2.15471e-14 -8.83783e-15 -1.71902e-14 -3.27251e-14 -2.16719e-14 8.01983e-16 -5.75832e-17 -1.42191e-14 -1.46047e-14 -1.27164e-14 -4.38911e-15 1.60688e-15 -5.27485e-16 5.27947e-15 -7.83251e-15 -2.65664e-14 -3.38825e-15 2.91173e-14 -9.77554e-16 -2.58766e-14 -2.59648e-14 -2.36645e-14 1.61437e-15 2.80576e-15 -3.06354e-14 -2.48183e-14 3.09319e-15 -1.64537e-14 6.77266e-15 -1.35505e-15 -4.54268e-14 -2.93308e-14 -1.40839e-14 -1.20323e-14 1.01201e-14 2.48205e-17 -2.5943e-14 1.21972e-14 4.27105e-15 -1.68947e-14 -7.60726e-15 -4.96318e-15 -1.56886e-14 -2.00212e-14 3.82369e-14 1.06306e-13 1.41419e-13 1.77877e-13 1.99475e-13 1.77569e-13 1.36337e-13 1.06619e-13 8.1638e-14 8.14064e-14 1.08451e-13 2.17696e-13 2.23642e-13 2.41976e-13 2.67023e-13 2.87535e-13 2.98911e-13 1.60857e-13 -1.86716e-13 -6.04215e-13 -9.88502e-13 -1.19403e-12 -1.27555e-12 -1.27507e-12 -1.20671e-12 -1.12764e-12 -1.03092e-12 -9.60291e-13 -8.90765e-13 -7.91176e-13 -6.89472e-13 -6.43114e-13 -6.17839e-13 -5.66597e-13 -5.17082e-13 -4.87634e-13 -4.54925e-13 -4.17018e-13 -3.56131e-13 -2.94924e-13 -2.65086e-13 -2.45467e-13 -2.1191e-13 -1.70546e-13 -1.48354e-13 -8.7424e-14 -2.56097e-14 9.08616e-15 4.74415e-14 6.90284e-14 9.37835e-14 1.31623e-13 1.46101e-13 1.59498e-13 1.86654e-13 2.09578e-13 2.57298e-13 3.31672e-13 3.60987e-13 3.692e-13 3.75323e-13 3.85588e-13 4.39628e-13 4.69984e-13 4.61746e-13 4.41286e-13 4.72352e-13 5.02504e-13 4.74089e-13 4.19457e-13 3.50784e-13 2.85605e-13 2.27477e-13 2.03984e-13 1.31279e-13 4.58051e-14 1.33153e-14 -9.04288e-15 -1.50737e-14 -2.09431e-14 -3.42879e-14 -6.17179e-14 -5.95854e-14 -3.80771e-14 -4.92005e-14 -4.83142e-14 -6.42112e-14 -8.60686e-14 -8.4639e-14 -6.61052e-14 -4.89839e-14 -8.14952e-14 -7.72693e-14 -2.55138e-14 -1.46307e-14 -1.90988e-14 -3.76987e-14 -4.28402e-14 -6.61009e-15 2.13013e-14 2.79552e-14 3.28944e-16 -3.99016e-15 1.9638e-14 -2.48775e-14 -2.32895e-14 -2.43073e-14 -6.84489e-14 -8.80164e-14 -1.17295e-13 0 0 6.22851e-15 5.65212e-15 6.63627e-15 5.67099e-15 3.3347e-15 3.17713e-15 4.15404e-15 5.0689e-15 4.40828e-15 2.68773e-15 1.22016e-15 1.28335e-15 -1.56511e-15 -2.12901e-15 -1.75562e-15 6.63723e-16 4.79753e-15 1.56434e-15 5.03424e-15 9.17945e-15 5.53809e-15 1.58983e-15 -3.69264e-15 6.97878e-16 1.28125e-14 3.53047e-15 -6.63267e-16 8.12716e-15 4.365e-15 -1.94063e-15 3.677e-15 9.54024e-15 -3.35816e-17 -3.18365e-15 -6.31923e-15 -1.66999e-14 -1.46228e-14 -7.92789e-16 5.53469e-15 3.55172e-15 -1.65803e-14 -2.77417e-14 -1.43413e-14 2.17843e-15 8.5912e-15 -1.03554e-14 -3.63292e-14 -3.31155e-14 -2.84007e-14 -2.75128e-14 -3.59622e-14 -3.03118e-14 -6.89607e-15 -6.00658e-15 4.66233e-15 -1.28722e-14 -2.42069e-14 -3.55038e-14 -3.05561e-14 -2.39685e-15 -7.48011e-15 -2.31572e-14 -3.07299e-14 -5.83288e-15 5.28715e-15 -7.35702e-15 -5.3904e-16 1.12363e-14 1.1302e-14 2.56252e-14 2.62473e-14 -2.71843e-15 2.16425e-14 2.23989e-14 -3.22262e-15 1.258e-15 1.79994e-14 1.36907e-14 3.49385e-15 -7.13791e-15 8.33209e-15 1.23339e-14 -2.81583e-14 2.3072e-14 3.97212e-14 -1.97909e-14 -4.59599e-14 -3.25881e-14 2.07925e-14 6.82046e-14 1.3731e-13 2.39849e-13 2.94555e-13 3.00538e-13 2.81089e-13 2.27029e-13 1.63198e-13 1.28186e-13 1.33201e-13 1.73041e-13 3.34621e-13 3.61651e-13 3.5961e-13 3.5827e-13 4.57505e-13 4.64441e-13 2.95828e-13 -2.64876e-13 -9.91866e-13 -1.56022e-12 -1.94207e-12 -2.0698e-12 -2.00584e-12 -1.8975e-12 -1.75008e-12 -1.61111e-12 -1.50269e-12 -1.36715e-12 -1.26041e-12 -1.18824e-12 -1.07665e-12 -9.6412e-13 -8.8937e-13 -8.12421e-13 -7.25964e-13 -6.63772e-13 -5.96e-13 -5.42742e-13 -5.05558e-13 -4.13043e-13 -3.44323e-13 -2.92454e-13 -1.98827e-13 -1.51111e-13 -1.22514e-13 -1.13563e-13 -6.30204e-14 1.39698e-14 7.22947e-14 1.37588e-13 1.86022e-13 2.34517e-13 2.72619e-13 3.16086e-13 3.52821e-13 4.05864e-13 4.50415e-13 4.96698e-13 5.63099e-13 6.54178e-13 6.89479e-13 6.56565e-13 6.66667e-13 7.11269e-13 7.7773e-13 7.68041e-13 7.2254e-13 7.14806e-13 6.40821e-13 5.60718e-13 4.94702e-13 3.6837e-13 1.74049e-13 6.83939e-14 8.17099e-14 1.60425e-14 -4.25939e-14 -5.37547e-14 -5.895e-14 -6.37526e-14 -4.45424e-14 -5.87023e-14 -7.92512e-14 -6.32588e-14 -7.79921e-14 -8.40215e-14 -7.48611e-14 -8.52846e-14 -1.02028e-13 -1.06301e-13 -5.60309e-14 -6.33747e-14 -1.24438e-13 -1.04484e-13 -8.72686e-14 -4.96081e-14 -2.89955e-14 -4.44701e-14 -4.19798e-14 -2.25897e-14 2.42263e-14 -2.14315e-14 -1.06993e-13 -8.3496e-14 -8.78751e-14 -5.20012e-14 3.0663e-14 3.21115e-14 6.41215e-14 0 0 2.23999e-15 3.89681e-15 4.23117e-15 4.40352e-15 4.51607e-15 1.56057e-15 -8.40949e-16 -2.26231e-15 -3.79082e-15 -4.05584e-15 -3.25911e-15 -6.1382e-15 -5.47044e-15 2.51705e-15 1.07678e-14 1.01866e-14 -1.66662e-16 7.16475e-16 2.00236e-15 2.40554e-16 3.09853e-15 3.57594e-15 1.87199e-15 3.61874e-16 -1.5412e-15 -3.13176e-15 -4.49283e-15 -2.81074e-15 -3.73688e-15 -6.42136e-15 -1.57985e-14 -2.13266e-14 -1.28951e-14 -6.54925e-15 1.08532e-15 -3.08142e-15 5.80078e-16 1.05683e-14 1.18558e-16 -2.42988e-15 2.99915e-15 5.93057e-16 -2.94927e-16 -3.89019e-15 -2.06607e-14 -3.1541e-14 -1.37887e-14 -9.76655e-15 -9.5575e-15 -1.19944e-14 -1.14861e-14 -6.60676e-15 -3.27557e-14 -3.8384e-14 -3.27863e-14 -9.09776e-15 5.47241e-15 -1.17628e-15 2.36957e-14 3.89878e-14 3.51641e-14 2.82438e-14 2.44598e-14 -2.22055e-15 -4.93674e-15 3.03306e-14 -3.27664e-16 -1.60018e-14 -1.54249e-14 -2.15795e-14 6.55863e-15 4.8005e-14 2.01726e-14 -2.33072e-14 -1.21941e-14 3.09779e-15 -4.07306e-15 -1.75721e-14 -3.38621e-15 -1.88029e-15 -1.49721e-15 1.83091e-14 3.48415e-14 1.62535e-14 -5.52832e-15 -5.624e-15 -2.81231e-14 -2.16588e-14 2.19519e-14 7.58218e-14 1.51232e-13 2.28676e-13 2.85821e-13 3.03864e-13 2.74587e-13 2.21725e-13 1.6655e-13 1.26622e-13 1.29715e-13 1.70483e-13 3.97195e-13 3.64411e-13 4.26564e-13 4.77128e-13 4.76228e-13 4.72118e-13 2.34585e-13 -3.15432e-13 -9.49495e-13 -1.53341e-12 -1.90891e-12 -1.98645e-12 -1.97991e-12 -1.94848e-12 -1.81214e-12 -1.64748e-12 -1.47066e-12 -1.34976e-12 -1.20023e-12 -1.07855e-12 -1.0236e-12 -9.36569e-13 -8.40352e-13 -7.89393e-13 -7.66621e-13 -6.91029e-13 -6.0718e-13 -5.3727e-13 -4.98851e-13 -4.49285e-13 -3.63002e-13 -2.9766e-13 -2.49281e-13 -1.93503e-13 -1.34475e-13 -6.33846e-14 1.45957e-15 9.187e-15 2.64997e-14 8.02194e-14 1.35358e-13 2.02451e-13 2.93152e-13 3.36644e-13 3.75124e-13 4.22376e-13 4.10813e-13 4.65019e-13 5.16744e-13 5.21645e-13 5.68402e-13 6.41658e-13 6.99934e-13 7.6757e-13 7.37292e-13 7.61428e-13 7.36337e-13 6.58444e-13 5.86891e-13 5.13089e-13 3.97835e-13 2.68977e-13 2.4434e-13 1.26153e-13 -2.44852e-14 -7.6445e-14 -5.03438e-14 -5.72707e-14 -7.36902e-14 -7.49768e-14 -7.57205e-14 -3.14337e-14 -3.62286e-14 -6.6179e-14 -5.70628e-14 -3.17599e-14 -3.88656e-14 -7.12959e-14 -4.78235e-14 -3.49919e-14 -6.52633e-14 -7.68557e-14 -4.42754e-14 -5.25417e-14 -6.68077e-14 -9.45556e-14 -8.01742e-14 -3.63115e-14 -6.1198e-14 -4.81773e-14 -7.22388e-14 -7.94796e-14 2.30069e-14 3.67135e-14 1.33969e-14 -4.59204e-14 -5.50801e-14 1.80339e-14 -9.18809e-15 0 0 -2.10631e-15 -3.64132e-15 -2.73534e-15 -8.16198e-16 7.00914e-16 4.01456e-15 5.49524e-15 5.14372e-15 3.40849e-15 1.60236e-15 2.25472e-15 6.75755e-15 6.75325e-15 -2.62467e-15 -7.68349e-15 -3.7859e-15 5.6376e-15 6.69084e-15 5.45486e-15 1.04087e-14 1.34021e-14 1.42694e-14 1.70272e-14 1.31083e-14 3.6093e-15 2.45705e-15 -2.07706e-15 -1.3031e-14 -1.10131e-14 -3.54645e-15 8.47073e-15 1.25371e-14 1.0714e-14 7.45545e-15 -7.51854e-15 6.52079e-15 1.86768e-14 1.54214e-14 3.73497e-14 3.2295e-14 -1.28144e-15 -4.51202e-15 6.14158e-15 5.06283e-15 5.39091e-15 4.07396e-15 -1.60215e-14 -4.6058e-14 -5.78715e-14 -5.33256e-14 -5.174e-14 -4.66509e-14 -8.72507e-15 2.55401e-14 1.13533e-14 1.44957e-14 2.99385e-14 3.03473e-14 6.22126e-15 -1.67221e-14 -2.70017e-14 -2.31088e-14 -1.55129e-14 1.74494e-14 1.39855e-14 -2.16507e-14 1.85968e-14 1.30722e-14 2.15586e-14 2.34168e-14 -1.19521e-14 -3.01918e-15 2.14082e-14 3.52512e-14 3.26004e-14 1.10356e-14 5.81987e-15 2.03388e-14 3.56765e-15 -2.17529e-14 4.48107e-15 1.63271e-14 4.65176e-15 1.49642e-15 -1.54435e-14 -3.45478e-15 2.81491e-14 1.91181e-14 9.35706e-16 2.91972e-14 7.47277e-14 1.33203e-13 1.82759e-13 1.90854e-13 1.74567e-13 1.42999e-13 1.02805e-13 7.09919e-14 7.37748e-14 1.20304e-13 2.25393e-13 2.46055e-13 2.68207e-13 3.4308e-13 3.57204e-13 3.22109e-13 1.81845e-13 -1.36754e-13 -5.84713e-13 -9.8478e-13 -1.20098e-12 -1.28947e-12 -1.28745e-12 -1.21659e-12 -1.13642e-12 -1.03507e-12 -9.37662e-13 -8.8374e-13 -7.68353e-13 -7.17529e-13 -6.70152e-13 -5.29117e-13 -5.09193e-13 -4.19864e-13 -3.54671e-13 -3.51088e-13 -3.52763e-13 -2.96963e-13 -2.27309e-13 -2.71941e-13 -2.29959e-13 -1.96188e-13 -1.88692e-13 -1.34618e-13 -7.95065e-14 -5.49618e-14 -2.35624e-14 -4.20543e-14 -3.98546e-14 1.9465e-14 4.89474e-14 1.30191e-13 1.41441e-13 9.40366e-14 1.30647e-13 2.37819e-13 3.44125e-13 3.18872e-13 3.06148e-13 3.96505e-13 3.92928e-13 4.87464e-13 5.10032e-13 4.01507e-13 4.74127e-13 3.96165e-13 3.20952e-13 4.44728e-13 4.52843e-13 3.07654e-13 2.50531e-13 2.00136e-13 1.1906e-13 8.3008e-14 3.64473e-14 1.37812e-14 -2.17609e-14 -4.69977e-14 -5.50949e-14 -4.56782e-14 -6.80558e-14 -1.07139e-13 -8.11069e-14 -7.8033e-14 -6.21853e-14 -6.03839e-14 -5.50685e-14 -2.87639e-15 -3.4587e-14 -5.03977e-14 -2.2037e-14 8.34429e-15 2.49504e-14 4.55888e-14 9.52211e-14 1.01172e-13 5.21916e-14 -1.7783e-14 -2.47699e-14 -4.63272e-14 -9.23989e-14 -4.30958e-14 -5.66085e-14 -9.92394e-14 -8.25162e-14 -2.19683e-14 -1.25709e-14 -4.53195e-14 -7.5596e-15 0 0 0 0 0 0 0 0 0 0 0 0 0 0 0 0 0 0 0 0 0 0 0 0 0 0 0 0 0 0 0 0 0 0 0 0 0 0 0 0 0 0 0 0 0 0 0 0 0 0 0 0 0 0 0 0 0 0 0 0 0 0 0 0 0 0 0 0 0 0 0 0 0 0 0 0 0 0 0 0 0 0 0 0 0 0 0 0 0 0 0 0 0 0 0 0 0 0 0 0 0 0 0 0 0 0 0 0 0 0 0 0 0 0 0 0 0 0 0 0 0 0 0 0 0 0 0 0 0 0 0 0 0 0 0 0 0 0 0 0 0 0 0 0 0 0 0 0 0 0 0 0 0 0 0 0 0 0 0 0 0 0 0 0 0 0 0 0 0 0 0 0 0 0 0 0 0 0 0 0 0 0 0 0 0 0 0 0 0 0 0 0 0 0 0 0 0 0 0 0 0 0
				</DataArray>
			</PointData>
			<CellData Scalars="Density">