<?xml version="1.0"?>
<VTKFile type="PolyData">
	<PolyData>
		<Piece NumberOfPoints="2201" NumberOfPolys="2100">
			<Points>
				<DataArray type="Float32" NumberOfComponents="3" format="ascii">
 0 0 0 0.001 0 0 0.002 0 0 0.003 0 0 0.004 0 0 0.005 0 0 0.006 0 0 0.007 0 0 0.008 0 0 0.009 0 0 0.01 0 0 0.011 0 0 0.012 0 0 0.013 0 0 0.014 0 0 0.015 0 0 0.016 0 0 0.017 0 0 0.018 0 0 0.019 0 0 0.02 0 0 0.021 0 0 0.022 0 0 0.023 0 0 0.024 0 0 0.025 0 0 0.026 0 0 0.027 0 0 0.028 0 0 0.029 0 0 0.03 0 0 0.031 0 0 0.032 0 0 0.033 0 0 0.034 0 0 0.035 0 0 0.036 0 0 0.037 0 0 0.038 0 0 0.039 0 0 0.04 0 0 0.041 0 0 0.042 0 0 0.043 0 0 0.044 0 0 0.045 0 0 0.046 0 0 0.047 0 0 0.048 0 0 0.049 0 0 0.05 0 0 0.051 0 0 0.052 0 0 0.053 0 0 0.054 0 0 0.055 0 0 0.056 0 0 0.057 0 0 0.058 0 0 0.059 0 0 0.06 0 0 0.061 0 0 0.062 0 0 0.063 0 0 0.064 0 0 0.065 0 0 0.066 0 0 0.067 0 0 0.068 0 0 0.069 0 0 0.07 0 0 0 0.001 0 0.001 0.001 0 0.002 0.001 0 0.003 0.001 0 0.004 0.001 0 0.005 0.001 0 0.006 0.001 0 0.007 0.001 0 0.008 0.001 0 0.009 0.001 0 0.01 0.001 0 0.011 0.001 0 0.012 0.001 0 0.013 0.001 0 0.014 0.001 0 0.015 0.001 0 0.016 0.001 0 0.017 0.001 0 0.018 0.001 0 0.019 0.001 0 0.02 0.001 0 0.021 0.001 0 0.022 0.001 0 0.023 0.001 0 0.024 0.001 0 0.025 0.001 0 0.026 0.001 0 0.027 0.001 0 0.028 0.001 0 0.029 0.001 0 0.03 0.001 0 0.031 0.001 0 0.032 0.001 0 0.033 0.001 0 0.034 0.001 0 0.035 0.001 0 0.036 0.001 0 0.037 0.001 0 0.038 0.001 0 0.039 0.001 0 0.04 0.001 0 0.041 0.001 0 0.042 0.001 0 0.043 0.001 0 0.044 0.001 0 0.045 0.001 0 0.046 0.001 0 0.047 0.001 0 0.048 0.001 0 0.049 0.001 0 0.05 0.001 0 0.051 0.001 0 0.052 0.001 0 0.053 0.001 0 0.054 0.001 0 0.055 0.001 0 0.056 0.001 0 0.057 0.001 0 0.058 0.001 0 0.059 0.001 0 0.06 0.001 0 0.061 0.001 0 0.062 0.001 0 0.063 0.001 0 0.064 0.001 0 0.065 0.001 0 0.066 0.001 0 0.067 0.001 0 0.068 0.001 0 0.069 0.001 0 0.07 0.001 0 0 0.002 0 0.001 0.002 0 0.002 0.002 0 0.003 0.002 0 0.004 0.002 0 0.005 0.002 0 0.006 0.002 0 0.007 0.002 0 0.008 0.002 0 0.009 0.002 0 0.01 0.002 0 0.011 0.002 0 0.012 0.002 0 0.013 0.002 0 0.014 0.002 0 0.015 0.002 0 0.016 0.002 0 0.017 0.002 0 0.018 0.002 0 0.019 0.002 0 0.02 0.002 0 0.021 0.002 0 0.022 0.002 0 0.023 0.002 0 0.024 0.002 0 0.025 0.002 0 0.026 0.002 0 0.027 0.002 0 0.028 0.002 0 0.029 0.002 0 0.03 0.002 0 0.031 0.002 0 0.032 0.002 0 0.033 0.002 0 0.034 0.002 0 0.035 0.002 0 0.036 0.002 0 0.037 0.002 0 0.038 0.002 0 0.039 0.002 0 0.04 0.002 0 0.041 0.002 0 0.042 0.002 0 0.043 0.002 0 0.044 0.002 0 0.045 0.002 0 0.046 0.002 0 0.047 0.002 0 0.048 0.002 0 0.049 0.002 0 0.05 0.002 0 0.051 0.002 0 0.052 0.002 0 0.053 0.002 0 0.054 0.002 0 0.055 0.002 0 0.056 0.002 0 0.057 0.002 0 0.058 0.002 0 0.059 0.002 0 0.06 0.002 0 0.061 0.002 0 0.062 0.002 0 0.063 0.002 0 0.064 0.002 0 0.065 0.002 0 0.066 0.002 0 0.067 0.002 0 0.068 0.002 0 0.069 0.002 0 0.07 0.002 0 0 0.003 0 0.001 0.003 0 0.002 0.003 0 0.003 0.003 0 0.004 0.003 0 0.005 0.003 0 0.006 0.003 0 0.007 0.003 0 0.008 0.003 0 0.009 0.003 0 0.01 0.003 0 0.011 0.003 0 0.012 0.003 0 0.013 0.003 0 0.014 0.003 0 0.015 0.003 0 0.016 0.003 0 0.017 0.003 0 0.018 0.003 0 0.019 0.003 0 0.02 0.003 0 0.021 0.003 0 0.022 0.003 0 0.023 0.003 0 0.024 0.003 0 0.025 0.003 0 0.026 0.003 0 0.027 0.003 0 0.028 0.003 0 0.029 0.003 0 0.03 0.003 0 0.031 0.003 0 0.032 0.003 0 0.033 0.003 0 0.034 0.003 0 0.035 0.003 0 0.036 0.003 0 0.037 0.003 0 0.038 0.003 0 0.039 0.003 0 0.04 0.003 0 0.041 0.003 0 0.042 0.003 0 0.043 0.003 0 0.044 0.003 0 0.045 0.003 0 0.046 0.003 0 0.047 0.003 0 0.048 0.003 0 0.049 0.003 0 0.05 0.003 0 0.051 0.003 0 0.052 0.003 0 0.053 0.003 0 0.054 0.003 0 0.055 0.003 0 0.056 0.003 0 0.057 0.003 0 0.058 0.003 0 0.059 0.003 0 0.06 0.003 0 0.061 0.003 0 0.062 0.003 0 0.063 0.003 0 0.064 0.003 0 0.065 0.003 0 0.066 0.003 0 0.067 0.003 0 0.068 0.003 0 0.069 0.003 0 0.07 0.003 0 0 0.004 0 0.001 0.004 0 0.002 0.004 0 0.003 0.004 0 0.004 0.004 0 0.005 0.004 0 0.006 0.004 0 0.007 0.004 0 0.008 0.004 0 0.009 0.004 0 0.01 0.004 0 0.011 0.004 0 0.012 0.004 0 0.013 0.004 0 0.014 0.004 0 0.015 0.004 0 0.016 0.004 0 0.017 0.004 0 0.018 0.004 0 0.019 0.004 0 0.02 0.004 0 0.021 0.004 0 0.022 0.004 0 0.023 0.004 0 0.024 0.004 0 0.025 0.004 0 0.026 0.004 0 0.027 0.004 0 0.028 0.004 0 0.029 0.004 0 0.03 0.004 0 0.031 0.004 0 0.032 0.004 0 0.033 0.004 0 0.034 0.004 0 0.035 0.004 0 0.036 0.004 0 0.037 0.004 0 0.038 0.004 0 0.039 0.004 0 0.04 0.004 0 0.041 0.004 0 0.042 0.004 0 0.043 0.004 0 0.044 0.004 0 0.045 0.004 0 0.046 0.004 0 0.047 0.004 0 0.048 0.004 0 0.049 0.004 0 0.05 0.004 0 0.051 0.004 0 0.052 0.004 0 0.053 0.004 0 0.054 0.004 0 0.055 0.004 0 0.056 0.004 0 0.057 0.004 0 0.058 0.004 0 0.059 0.004 0 0.06 0.004 0 0.061 0.004 0 0.062 0.004 0 0.063 0.004 0 0.064 0.004 0 0.065 0.004 0 0.066 0.004 0 0.067 0.004 0 0.068 0.004 0 0.069 0.004 0 0.07 0.004 0 0 0.005 0 0.001 0.005 0 0.002 0.005 0 0.003 0.005 0 0.004 0.005 0 0.005 0.005 0 0.006 0.005 0 0.007 0.005 0 0.008 0.005 0 0.009 0.005 0 0.01 0.005 0 0.011 0.005 0 0.012 0.005 0 0.013 0.005 0 0.014 0.005 0 0.015 0.005 0 0.016 0.005 0 0.017 0.005 0 0.018 0.005 0 0.019 0.005 0 0.02 0.005 0 0.021 0.005 0 0.022 0.005 0 0.023 0.005 0 0.024 0.005 0 0.025 0.005 0 0.026 0.005 0 0.027 0.005 0 0.028 0.005 0 0.029 0.005 0 0.03 0.005 0 0.031 0.005 0 0.032 0.005 0 0.033 0.005 0 0.034 0.005 0 0.035 0.005 0 0.036 0.005 0 0.037 0.005 0 0.038 0.005 0 0.039 0.005 0 0.04 0.005 0 0.041 0.005 0 0.042 0.005 0 0.043 0.005 0 0.044 0.005 0 0.045 0.005 0 0.046 0.005 0 0.047 0.005 0 0.048 0.005 0 0.049 0.005 0 0.05 0.005 0 0.051 0.005 0 0.052 0.005 0 0.053 0.005 0 0.054 0.005 0 0.055 0.005 0 0.056 0.005 0 0.057 0.005 0 0.058 0.005 0 0.059 0.005 0 0.06 0.005 0 0.061 0.005 0 0.062 0.005 0 0.063 0.005 0 0.064 0.005 0 0.065 0.005 0 0.066 0.005 0 0.067 0.005 0 0.068 0.005 0 0.069 0.005 0 0.07 0.005 0 0 0.006 0 0.001 0.006 0 0.002 0.006 0 0.003 0.006 0 0.004 0.006 0 0.005 0.006 0 0.006 0.006 0 0.007 0.006 0 0.008 0.006 0 0.009 0.006 0 0.01 0.006 0 0.011 0.006 0 0.012 0.006 0 0.013 0.006 0 0.014 0.006 0 0.015 0.006 0 0.016 0.006 0 0.017 0.006 0 0.018 0.006 0 0.019 0.006 0 0.02 0.006 0 0.021 0.006 0 0.022 0.006 0 0.023 0.006 0 0.024 0.006 0 0.025 0.006 0 0.026 0.006 0 0.027 0.006 0 0.028 0.006 0 0.029 0.006 0 0.03 0.006 0 0.031 0.006 0 0.032 0.006 0 0.033 0.006 0 0.034 0.006 0 0.035 0.006 0 0.036 0.006 0 0.037 0.006 0 0.038 0.006 0 0.039 0.006 0 0.04 0.006 0 0.041 0.006 0 0.042 0.006 0 0.043 0.006 0 0.044 0.006 0 0.045 0.006 0 0.046 0.006 0 0.047 0.006 0 0.048 0.006 0 0.049 0.006 0 0.05 0.006 0 0.051 0.006 0 0.052 0.006 0 0.053 0.006 0 0.054 0.006 0 0.055 0.006 0 0.056 0.006 0 0.057 0.006 0 0.058 0.006 0 0.059 0.006 0 0.06 0.006 0 0.061 0.006 0 0.062 0.006 0 0.063 0.006 0 0.064 0.006 0 0.065 0.006 0 0.066 0.006 0 0.067 0.006 0 0.068 0.006 0 0.069 0.006 0 0.07 0.006 0 0 0.007 0 0.001 0.007 0 0.002 0.007 0 0.003 0.007 0 0.004 0.007 0 0.005 0.007 0 0.006 0.007 0 0.007 0.007 0 0.008 0.007 0 0.009 0.007 0 0.01 0.007 0 0.011 0.007 0 0.012 0.007 0 0.013 0.007 0 0.014 0.007 0 0.015 0.007 0 0.016 0.007 0 0.017 0.007 0 0.018 0.007 0 0.019 0.007 0 0.02 0.007 0 0.021 0.007 0 0.022 0.007 0 0.023 0.007 0 0.024 0.007 0 0.025 0.007 0 0.026 0.007 0 0.027 0.007 0 0.028 0.007 0 0.029 0.007 0 0.03 0.007 0 0.031 0.007 0 0.032 0.007 0 0.033 0.007 0 0.034 0.007 0 0.035 0.007 0 0.036 0.007 0 0.037 0.007 0 0.038 0.007 0 0.039 0.007 0 0.04 0.007 0 0.041 0.007 0 0.042 0.007 0 0.043 0.007 0 0.044 0.007 0 0.045 0.007 0 0.046 0.007 0 0.047 0.007 0 0.048 0.007 0 0.049 0.007 0 0.05 0.007 0 0.051 0.007 0 0.052 0.007 0 0.053 0.007 0 0.054 0.007 0 0.055 0.007 0 0.056 0.007 0 0.057 0.007 0 0.058 0.007 0 0.059 0.007 0 0.06 0.007 0 0.061 0.007 0 0.062 0.007 0 0.063 0.007 0 0.064 0.007 0 0.065 0.007 0 0.066 0.007 0 0.067 0.007 0 0.068 0.007 0 0.069 0.007 0 0.07 0.007 0 0 0.008 0 0.001 0.008 0 0.002 0.008 0 0.003 0.008 0 0.004 0.008 0 0.005 0.008 0 0.006 0.008 0 0.007 0.008 0 0.008 0.008 0 0.009 0.008 0 0.01 0.008 0 0.011 0.008 0 0.012 0.008 0 0.013 0.008 0 0.014 0.008 0 0.015 0.008 0 0.016 0.008 0 0.017 0.008 0 0.018 0.008 0 0.019 0.008 0 0.02 0.008 0 0.021 0.008 0 0.022 0.008 0 0.023 0.008 0 0.024 0.008 0 0.025 0.008 0 0.026 0.008 0 0.027 0.008 0 0.028 0.008 0 0.029 0.008 0 0.03 0.008 0 0.031 0.008 0 0.032 0.008 0 0.033 0.008 0 0.034 0.008 0 0.035 0.008 0 0.036 0.008 0 0.037 0.008 0 0.038 0.008 0 0.039 0.008 0 0.04 0.008 0 0.041 0.008 0 0.042 0.008 0 0.043 0.008 0 0.044 0.008 0 0.045 0.008 0 0.046 0.008 0 0.047 0.008 0 0.048 0.008 0 0.049 0.008 0 0.05 0.008 0 0.051 0.008 0 0.052 0.008 0 0.053 0.008 0 0.054 0.008 0 0.055 0.008 0 0.056 0.008 0 0.057 0.008 0 0.058 0.008 0 0.059 0.008 0 0.06 0.008 0 0.061 0.008 0 0.062 0.008 0 0.063 0.008 0 0.064 0.008 0 0.065 0.008 0 0.066 0.008 0 0.067 0.008 0 0.068 0.008 0 0.069 0.008 0 0.07 0.008 0 0 0.009 0 0.001 0.009 0 0.002 0.009 0 0.003 0.009 0 0.004 0.009 0 0.005 0.009 0 0.006 0.009 0 0.007 0.009 0 0.008 0.009 0 0.009 0.009 0 0.01 0.009 0 0.011 0.009 0 0.012 0.009 0 0.013 0.009 0 0.014 0.009 0 0.015 0.009 0 0.016 0.009 0 0.017 0.009 0 0.018 0.009 0 0.019 0.009 0 0.02 0.009 0 0.021 0.009 0 0.022 0.009 0 0.023 0.009 0 0.024 0.009 0 0.025 0.009 0 0.026 0.009 0 0.027 0.009 0 0.028 0.009 0 0.029 0.009 0 0.03 0.009 0 0.031 0.009 0 0.032 0.009 0 0.033 0.009 0 0.034 0.009 0 0.035 0.009 0 0.036 0.009 0 0.037 0.009 0 0.038 0.009 0 0.039 0.009 0 0.04 0.009 0 0.041 0.009 0 0.042 0.009 0 0.043 0.009 0 0.044 0.009 0 0.045 0.009 0 0.046 0.009 0 0.047 0.009 0 0.048 0.009 0 0.049 0.009 0 0.05 0.009 0 0.051 0.009 0 0.052 0.009 0 0.053 0.009 0 0.054 0.009 0 0.055 0.009 0 0.056 0.009 0 0.057 0.009 0 0.058 0.009 0 0.059 0.009 0 0.06 0.009 0 0.061 0.009 0 0.062 0.009 0 0.063 0.009 0 0.064 0.009 0 0.065 0.009 0 0.066 0.009 0 0.067 0.009 0 0.068 0.009 0 0.069 0.009 0 0.07 0.009 0 0 0.01 0 0.001 0.01 0 0.002 0.01 0 0.003 0.01 0 0.004 0.01 0 0.005 0.01 0 0.006 0.01 0 0.007 0.01 0 0.008 0.01 0 0.009 0.01 0 0.01 0.01 0 0.011 0.01 0 0.012 0.01 0 0.013 0.01 0 0.014 0.01 0 0.015 0.01 0 0.016 0.01 0 0.017 0.01 0 0.018 0.01 0 0.019 0.01 0 0.02
[...]
			<CellData Scalars="Density">
				<DataArray Name="Density" type="Float32" format="ascii">
 0.39317 0.392566 0.39619 0.399706 0.404587 0.410311 0.41701 0.424573 0.432992 0.442175 0.452016 0.462347 0.472919 0.483438 0.493546 0.502824 0.511208 0.518665 0.525177 0.532386 1.24624 2.3357 2.69728 2.71398 2.67495 2.50547 2.17485 1.70987 1.22145 1.03279 1.004 1.00047 1.00005 1.00001 1 1 1 1 1 1 1 1 1 1 1 1 1 1 1 1 1 1 1 1 1 1 1 1 1 1 1 1 1 1 1 1 1 1 1 1 0.391945 0.39144 0.394179 0.397598 0.401936 0.407279 0.413526 0.420636 0.428653 0.437491 0.44705 0.457194 0.46766 0.478093 0.488146 0.497533 0.506132 0.513806 0.521537 0.529014 1.25274 2.33309 2.68864 2.70651 2.66843 2.50125 2.1725 1.70926 1.22151 1.03279 1.004 1.00047 1.00006 1.00001 1 1 1 1 1 1 1 1 1 1 1 1 1 1 1 1 1 1 1 1 1 1 1 1 1 1 1 1 1 1 1 1 1 1 1 1 0.391015 0.3902 0.393551 0.397379 0.402032 0.407718 0.414504 0.422208 0.430807 0.440144 0.450072 0.460475 0.471113 0.481686 0.491799 0.501223 0.509746 0.51698 0.523837 0.531324 1.26121 2.33896 2.6856 2.70364 2.66411 2.49723 2.16913 1.70675 1.21999 1.03273 1.00398 1.00048 1.00007 1.00002 1 1 1 1 1 1 1 1 1 1 1 1 1 1 1 1 1 1 1 1 1 1 1 1 1 1 1 1 1 1 1 1 1 1 1 1 0.389801 0.38874 0.39202 0.395581 0.399964 0.405255 0.411692 0.419203 0.427507 0.436476 0.446062 0.456125 0.466478 0.476849 0.486907 0.496254 0.504925 0.512963 0.520921 0.529022 1.27484 2.34461 2.6817 2.70032 2.65916 2.49144 2.1623 1.70516 1.2204 1.03248 1.00421 1.00067 1.00015 1.00005 1.00002 1.00001 1 1 1 1 1 1 1 1 1 1 1 1 1 1 1 1 1 1 1 1 1 1 1 1 1 1 1 1 1 1 1 1 1 1 0.387666 0.386574 0.389969 0.393846 0.398314 0.40421 0.411204 0.418867 0.427232 0.43646 0.446365 0.456733 0.467477 0.478107 0.488274 0.497764 0.50637 0.514093 0.522383 0.531148 1.30215 2.37326 2.703 2.72067 2.6728 2.50368 2.17226 1.69702 1.21128 1.03484 1.00607 1.00144 1.00046 1.00021 1.00011 1.00005 1.00002 1.00001 1.00001 1 1 1 1 1 1 1 1 1 1 1 1 1 1 1 1 1 1 1 1 1 1 1 1 1 1 1 1 1 1 1 0.38564 0.384157 0.38785 0.391209 0.395974 0.401847 0.408313 0.415652 0.424054 0.43314 0.442849 0.453177 0.463747 0.474135 0.484385 0.493971 0.5027 0.511298 0.520043 0.529772 1.35264 2.42141 2.75165 2.79257 2.75279 2.57672 2.22055 1.72769 1.25291 1.05519 1.01356 1.00437 1.00197 1.00101 1.00052 1.00026 1.00012 1.00006 1.00003 1.00001 1.00001 1 1 1 1 1 1 1 1 1 1 1 1 1 1 1 1 1 1 1 1 1 1 1 1 1 1 1 1 1 0.382972 0.381499 0.384726 0.388646 0.393518 0.398879 0.405416 0.413038 0.421314 0.430337 0.440205 0.450326 0.460643 0.471078 0.481028 0.4903 0.499139 0.507435 0.516024 0.526473 1.43775 2.48547 2.79959 2.86891 2.84876 2.69963 2.38442 1.91876 1.40862 1.11569 1.03834 1.01701 1.00898 1.00471 1.0025 1.00125 1.00061 1.00032 1.00015 1.00007 1.00003 1.00001 1.00001 1 1 1 1 1 1 1 1 1 1 1 1 1 1 1 1 1 1 1 1 1 1 1 1 1 1 1 0.380257 0.378507 0.382054 0.385867 0.390103 0.395733 0.402474 0.409646 0.417811 0.426909 0.436348 0.446277 0.456691 0.466641 0.476365 0.485878 0.494259 0.501976 0.510663 0.540482 1.55738 2.552 2.81862 2.91203 2.91221 2.80621 2.54359 2.11663 1.62494 1.27592 1.13259 1.07184 1.041 1.02223 1.01181 1.00594 1.00307 1.00158 1.00074 1.00036 1.00017 1.00007 1.00003 1.00001 1.00001 1 1 1 1 1 1 1 1 1 1 1 1 1 1 1 1 1 1 1 1 1 1 1 1 1 0.377284 0.375537 0.379006 0.382289 0.386953 0.392685 0.398728 0.405997 0.414306 0.422864 0.432193 0.44221 0.451929 0.461738 0.471546 0.480105 0.487987 0.495582 0.503799 0.615656 1.65795 2.56567 2.75775 2.88057 2.90922 2.85447 2.64127 2.25994 1.83267 1.51776 1.35067 1.25268 1.16713 1.09725 1.05376 1.02841 1.015 1.0076 1.00371 1.00183 1.00088 1.0004 1.00018 1.00008 1.00003 1.00001 1.00001 1 1 1 1 1 1 1 1 1 1 1 1 1 1 1 1 1 1 1 1 1 1 1 0.374219 0.372286 0.375519 0.379162 0.383837 0.388747 0.395045 0.402441 0.410056 0.418609 0.428019 0.437275 0.446943 0.456811 0.465551 0.473777 0.481593 0.48815 0.494851 0.700979 1.76314 2.53998 2.68193 2.81311 2.82085 2.75553 2.56743 2.25635 1.93468 1.71349 1.58132 1.50153 1.41661 1.31686 1.21378 1.1261 1.06934 1.03636 1.01834 1.00926 1.00457 1.0021 1.00099 1.00044 1.00018 1.00008 1.00003 1.00001 1 1 1 1 1 1 1 1 1 1 1 1 1 1 1 1 1 1 1 1 1 1 0.371048 0.36902 0.372413 0.37591 0.379829 0.385151 0.391548 0.398169 0.405827 0.414465 0.423084 0.432303 0.441987 0.450811 0.459271 0.467287 0.474099 0.479373 0.484375 0.79421 1.8704 2.46689 2.5639 2.66129 2.64058 2.54116 2.35461 2.12439 1.93406 1.81353 1.7465 1.70284 1.64642 1.57415 1.48549 1.37857 1.26369 1.1595 1.08671 1.04577 1.02286 1.01088 1.00525 1.00235 1.00104 1.00045 1.00015 1.00006 1.00002 1.00001 1 1 1 1 1 1 1 1 1 1 1 1 1 1 1 1 1 1 1 1 0.36784 0.365676 0.369054 0.372034 0.376412 0.38175 0.387324 0.39399 0.401788 0.40966 0.418192 0.427455 0.43623 0.444776 0.453079 0.460091 0.466058 0.470422 0.473246 0.873617 1.92716 2.35526 2.39271 2.41272 2.3395 2.1076 1.83324 1.67568 1.64103 1.67598 1.7402 1.78563 1.79026 1.76709 1.72163 1.64686 1.5544 1.44286 1.31618 1.1963 1.10653 1.05395 1.02715 1.01271 1.0059 1.00244 1.00091 1.00037 1.00014 1.00004 1.00001 1 1 1 1 1 1 1 1 1 1 1 1 1 1 1 1 1 1 1 0.364569 0.362395 0.365533 0.368829 0.373086 0.377652 0.383277 0.390162 0.397237 0.404869 0.413527 0.421977 0.430399 0.438986 0.446386 0.452655 0.45755 0.460801 0.460055 0.909019 1.90781 2.21937 2.17783 2.04504 1.55446 1.11215 0.790784 0.684383 0.702142 0.790934 0.930488 1.10425 1.22838 1.37919 1.5425 1.64961 1.69924 1.69791 1.62645 1.50981 1.37585 1.23801 1.13126 1.06709 1.03236 1.01342 1.0054 1.00227 1.0008 1.00023 1.00007 1.00002 1.00001 1 1 1 1 1 1 1 1 1 1 1 1 1 1 1 1 1 0.361321 0.358921 0.362299 0.36533 0.369082 0.373738 0.37965 0.385805 0.392493 0.400409 0.40837 0.416352 0.424988 0.432817 0.439543 0.445236 0.449196 0.451805 0.447413 0.812525 1.73658 2.04458 1.87563 1.39829 0.859892 0.346796 0.16841 0.167643 0.169872 0.172943 0.177196 0.190694 0.260797 0.375698 0.545404 0.713067 0.878352 1.05319 1.2498 1.35408 1.41037 1.41271 1.36158 1.26313 1.14949 1.07006 1.0321 1.01337 1.00445 1.00135 1.00046 1.00012 1.00003 1.00001 1 1 1 1 1 1 1 1 1 1 1 1 1 1 1 1 0.358088 0.355731 0.358796 0.361674 0.365469 0.370347 0.375545 0.381221 0.388305 0.395634 0.402948 0.411226 0.419231 0.426407 0.432863 0.438043 0.44099 0.443051 0.437489 0.740895 1.62694 1.89781 1.62921 1.06094 0.524298 0.184025 0.183395 0.210845 0.223276 0.221729 0.202614 0.184944 0.183837 0.18692 0.189321 0.191275 0.193458 0.19605 0.212087 0.353643 0.491986 0.619304 0.748319 0.868544 0.963949 1.01309 1.01953 1.0157 1.00903 1.00447 1.00119 1.00029 1.00008 1.00002 1 1 1 1 1 1 1 1 1 1 1 1 1 1 1 1 0.354805 0.352291 0.355321 0.358362 0.362074 0.366421 0.371136 0.377273 0.383874 0.390439 0.398086 0.405884 0.41309 0.420269 0.426581 0.431183 0.433333 0.434512 0.428229 0.430376 1.05921 1.65897 1.57737 1.20949 0.859273 0.593191 0.463529 0.322176 0.30486 0.323769 0.311894 0.238407 0.186564 0.186864 0.189354 0.191447 0.193039 0.193956 0.194756 0.19422 0.19353 0.192008 0.188512 0.181875 0.171755 0.157625 0.139606 0.122504 0.109411 0.102816 0.100744 0.100199 0.100052 0.100013 0.100003 0.100001 0.1 0.1 0.1 0.1 0.1 0.1 0.1 0.1 0.1 0.1 0.1 0.1 0.1 0.1 0.351572 0.348999 0.352209 0.354921 0.358396 0.36234 0.367467 0.373215 0.378945 0.385814 0.393169 0.400043 0.40735 0.414329 0.420285 0.424378 0.426994 0.425877 0.420045 0.411801 0.443075 0.801947 1.05784 1.00738 0.817507 0.652551 0.495903 0.386935 0.332772 0.336764 0.341248 0.271349 0.197856 0.187802 0.189892 0.191872 0.193427 0.194526 0.195087 0.195019 0.194097 0.192178 0.188901 0.183677 0.175197 0.163293 0.148078 0.130791 0.114354 0.104626 0.101287 0.100335 0.100084 0.100021 0.100005 0.100001 0.1 0.1 0.1 0.1 0.1 0.1 0.1 0.1 0.1 0.1 0.1 0.1 0.1 0.1 0.348383 0.345751 0.348749 0.35135 0.354641 0.358794 0.363669 0.368522 0.374548 0.381249 0.387622 0.394649 0.401846 0.40831 0.413911 0.418118 0.420661 0.420119 0.415026 0.406826 0.396619 0.384877 0.44071 0.447878 0.424715 0.379686 0.343605 0.339182 0.341094 0.343448 0.346757 0.273454 0.197351 0.188776 0.190382 0.191923 0.19325 0.194209 0.194597 0.194421 0.193368 0.191303 0.188061 0.183303 0.176335 0.166823 0.154027 0.137721 0.120261 0.107152 0.101975 0.100516 0.100128 0.100031 0.100007 0.100002 0.1 0.1 0.1 0.1 0.1 0.1 0.1 0.1 0.1 0.1 0.1 0.1 0.1 0.1 0.345162 0.342447 0.34528 0.348082 0.351272 0.355223 0.359284 0.364445 0.370354 0.37602 0.382534 0.389484 0.395886 0.402168 0.407901 0.412203 0.414406 0.41512 0.411918 0.40652 0.398925 0.38919 0.379234 0.369108 0.360831 0.354595 0.351033 0.348462 0.348885 0.350137 0.345 0.25878 0.192693 0.189684 0.190996 0.192216 0.193234 0.193911 0.194155 0.193921 0.193074 0.191382 0.188736 0.184779 0.179044 0.170898 0.15927 0.143483 0.125649 0.109851 0.102782 0.100705 0.100167 0.100037 0.100008 0.100002 0.1 0.1 0.1 0.1 0.1 0.1 0.1 0.1 0.1 0.1 0.1 0.1 0.1 0.1 0.342031 0.339192 0.342119 0.344715 0.347637 0.351129 0.35549 0.360528 0.365419 0.371267 0.377722 0.383775 0.390128 0.3964 0.401988 0.406021 0.408731 0.410363 0.408744 0.405189 0.399415 0.392348 0.38482 0.377048 0.370055 0.364271 0.360101 0.356771 0.355778 0.355692 0.331877 0.238747 0.18947 0.190552 0.191617 0.192615 0.193341 0.193714 0.193777 0.193444 0.192617 0.191147 0.188933 0.18557 0.180673 0.173544 0.162869 0.147917 0.130098 0.112799 0.103576 0.100872 0.100199 0.100044 0.100009 0.100002 0.1 0.1 0.1 0.1 0.1 0.1 0.1 0.1 0.1 0.1 0.1 0.1 0.1 0.1 0.338863 0.335958 0.338928 0.341172 0.344137 0.347669 0.351809 0.355951 0.36109 0.366854 0.372358 0.378443 0.384738 0.390672 0.395929 0.400303 0.403442 0.405302 0.405354 0.403581 0.399764 0.394862 0.389285 0.383057 0.377267 0.371716 0.367389 0.363797 0.361712 0.360381 0.317933 0.225912 0.190451 0.191306 0.19217 0.192971 0.193549 0.193883 0.193942 0.193604 0.192787 0.19135 0.189325 0.186513 0.182424 0.176354 0.166637 0.152414 0.134133 0.115534 0.104333 0.101035 0.100231 0.100049 0.10001 0.100002 0.1 0.1 0.1 0.1 0.1 0.1 0.1 0.1 0.1 0.1 0.1 0.1 0.1 0.1 0.335789 0.332851 0.335507 0.337841 0.340823 0.344034 0.347545 0.351978 0.356983 0.361826 0.367431 0.373425 0.37912 0.384872 0.390218 0.394911 0.398206 0.400624 0.401666 0.401261 0.399247 0.395892 0.391619 0.386852 0.381793 0.376955 0.372626 0.36867 0.366134 0.364132 0.301335 0.214028 0.191318 0.191974 0.192669 0.193277 0.193698 0.193882 0.19378 0.193345 0.19256 0.191286 0.189626 0.187292 0.183736 0.178265 0.169114 0.155676 0.13741 0.118189 0.105142 0.101211 0.100265 0.100055 0.100011 0.100002 0.1 0.1 0.1 0.1 0.1 0.1 0.1 0.1 0.1 0.1 0.1 0.1 0.1 0.1 0.332721 0.329653 0.332319 0.334811 0.337333 0.340256 0.343972 0.348226 0.352416 0.357417 0.362919 0.368228 0.373931 0.379614 0.384869 0.389465 0.393383 0.396365 0.398043 0.398637 0.397963 0.39594 0.392823 0.389184 0.384796 0.380532 0.37636 0.372455 0.369657 0.365487 0.2813 0.204112 0.192069 0.192524 0.193001 0.193389 0.193649 0.193707 0.193531 0.193079 0.192373 0.191318 0.190004 0.188072 0.185049 0.180254 0.171809 0.15902 0.140557 0.120713 0.105941 0.101379 0.100294 0.10006 0.100012 0.100002 0.1 0.1 0.1 0.1 0.1 0.1 0.1 0.1 0.1 0.1 0.1 0.1 0.1 0.1 0.329705 0.326622 0.329379 0.331471 0.33377 0.336939 0.340449 0.34405 0.3484 0.353362 0.358224 0.363655 0.369286 0.374632 0.379984 0.384827 0.389036 0.392391 0.394878 0.396311 0.396426 0.395462 0.393319 0.390405 0.386877 0.383031 0.379145 0.375348 0.372395 0.358098 0.270268 0.19893 0.192693 0.192937 0.193208 0.193407 0.193485 0.193406 0.193171 0.192745 0.192169 0.191336 0.190311 0.188705 0.186115 0.181749 0.173734 0.161419 0.143059 0.122976 0.106755 0.101539 0.100322 0.100065 0.100013 0.100002 0.1 0.1 0.1 0.1 0.1 0.1 0.1 0.1 0.1 0.1 0.1 0.1 0.1 0.1 0.326827 0.323714 0.326284 0.328174 0.330902 0.333718 0.33678 0.340486 0.344905 0.349293 0.354215 0.359559 0.364793 0.370377 0.375791 0.380725 0.385351 0.389195 0.392133 0.394222 0.39521 0.395092 0.39382 0.391621 0.388705 0.385106 0.381521 0.377809 0.374782 0.348743 0.258644 0.195494 0.193251 0.193338 0.193458 0.193546 0.19352 0.193349 0.193052 0.192621 0.192133 0.191454 0.190654 0.189301 0.187022 0.182973 0.175454 0.163702 0.145455 0.124972 0.107461 0.101676 0.100345 0.100068 0.100013 0.100002 0.1 0.1 0.1 0.1 0.1 0.1 0.1 0.1 0.1 0.1 0.1 0.1 0.1 0.1 0.324056 0.320961 0.323312 0.325543 0.327937 0.33047 0.333718 0.337573 0.341464 0.34582 0.3508 0.355784 0.361235 0.366801 0.372077 0.377472 0.38237 0.386531 0.390118 0.392701 0.394195 0.394661 0.394198 0.392739 0.390184 0.386943 0.383519 0.37994 0.376766 0.340723 0.249503 0.194473 0.193831 0.193793 0.19378 0.193746 0.193613 0.193372 0.193039 0.192634 0.192232 0.191669 0.191004 0.189732 0.187654 0.183901 0.17681 0.165342 0.147111 0.126482 0.108122 0.1018 0.100363 0.10007 0.100013 0.100002 0.1 0.1 0.1 0.1 0.1 0.1 0.1 0.1 0.1 0.1 0.1 0.1 0.1 0.1 0.321595 0.31849 0.32095 0.322997 0.325173 0.327963 0.331234 0.33473 0.338497 0.343052 0.34767 0.35279 0.358267 0.363712 0.369409 0.374998 0.380053 0.384762 0.388753 0.39177 0.393995 0.395064 0.395068 0.394146 0.391896 0.388922 0.385595 0.382061 0.378608 0.3329 0.240741 0.194619 0.194366 0.194202 0.194075 0.193925 0.193697 0.193382 0.192995 0.192549 0.192119 0.191544 0.190922 0.189807 0.188111 0.184713 0.177998 0.166875 0.148872 0.128034 0.108703 0.101888 0.100374 0.100072 0.100013 0.100003 0.1 0.1 0.1 0.1 0.1 0.1 0.1 0.1 0.1 0.1 0.1 0.1 0.1 0.1 0.319361 0.316514 0.318798 0.320803 0.323126 0.325964 0.329047 0.332414 0.336415 0.340626 0.345286 0.350431 0.355668 0.361237 0.366975 0.372526 0.377891 0.382901 0.387275 0.391002 0.393956 0.395717 0.396078 0.395464 0.39356 0.39064 0.387343 0.383846 0.38022 0.328167 0.236105 0.195138 0.1948 0.194589 0.194407 0.19421 0.193923 0.193549 0.193107 0.192623 0.192194 0.191698 0.191282 0.19042 0.188912 0.185558 0.178964 0.167954 0.149925 0.128843 0.109007 0.101935 0.100379 0.100072 0.100014 0.100003 0.1 0.1 0.1 0.1 0.1 0.1 0.1 0.1 0.1 0.1 0.1 0.1 0.1 0.1 0.318047 0.315248 0.317305 0.319326 0.321716 0.324508 0.327522 0.331074 0.33506 0.339453 0.344473 0.349721 0.35535 0.361328 0.367479 0.37363 0.379526 0.384925 0.389583 0.393275 0.395848 0.397237 0.397502 0.396775 0.39509 0.392181 0.3889 0.385414 0.381693 0.32417 0.232243 0.19557 0.195188 0.194912 0.19466 0.194377 0.194014 0.193593 0.193127 0.192628 0.192164 0.191617 0.191097 0.19014 0.188635 0.185435 0.179158 0.168462 0.150645 0.12947 0.109228 0.101958 0.100382 0.100072 0.100014 0.100003 0.1 0.1 0.1 0.1 0.1 0.1 0.1 0.1 0.1 0.1 0.1 0.1 0.1 0.1 0.316408 0.313741 0.315489 0.317478 0.319733 0.322302 0.325252 0.328673 0.332501 0.336742 0.341398 0.346424 0.351787 0.357444 0.363305 0.369235 0.375045 0.380517 0.385423 0.389511 0.392601 0.394572 0.395544 0.395281 0.394254 0.391977 0.38917 0.385969 0.382509 0.320698 0.22956 0.195986 0.195559 0.195196 0.194854 0.194485 0.194075 0.193631 0.193155 0.192668 0.1922 0.191736 0.191305 0.190566 0.189201 0.186166 0.180043 0.16929 0.1512 0.129693 0.109265 0.101962 0.100382 0.100072 0.100014 0.100003 0.1 0.1 0.1 0.1 0.1 0.1 0.1 0.1 0.1 0.1 0.1 0.1 0.1 0.1
				</DataArray>
				<DataArray Name="Energy" type="Float32" format="ascii">