<?xml version="1.0"?>
<VTKFile type="PolyData">
	<PolyData>
		<Piece NumberOfPoints="2201" NumberOfPolys="2100">
			<Points>
				<DataArray type="Float32" NumberOfComponents="3" format="ascii">
 0 0 0 0.001 0 0 0.002 0 0 0.003 0 0 0.004 0 0 0.005 0 0 0.006 0 0 0.007 0 0 0.008 0 0 0.009 0 0 0.01 0 0 0.011 0 0 0.012 0 0 0.013 0 0 0.014 0 0 0.015 0 0 0.016 0 0 0.017 0 0 0.018 0 0 0.019 0 0 0.02 0 0 0.021 0 0 0.022 0 0 0.023 0 0 0.024 0 0 0.025 0 0 0.026 0 0 0.027 0 0 0.028 0 0 0.029 0 0 0.03 0 0 0.031 0 0 0.032 0 0 0.033 0 0 0.034 0 0 0.035 0 0 0.036 0 0 0.037 0 0 0.038 0 0 0.039 0 0 0.04 0 0 0.041 0 0 0.042 0 0 0.043 0 0 0.044 0 0 0.045 0 0 0.046 0 0 0.047 0 0 0.048 0 0 0.049 0 0 0.05 0 0 0.051 0 0 0.052 0 0 0.053 0 0 0.054 0 0 0.055 0 0 0.056 0 0 0.057 0 0 0.058 0 0 0.059 0 0 0.06 0 0 0.061 0 0 0.062 0 0 0.063 0 0 0.064 0 0 0.065 0 0 0.066 0 0 0.067 0 0 0.068 0 0 0.069 0 0 0.07 0 0 0 0.001 0 0.001 0.001 0 0.002 0.001 0 0.003 0.001 0 0.004 0.001 0 0.005 0.001 0 0.006 0.001 0 0.007 0.001 0 0.008 0.001 0 0.009 0.001 0 0.01 0.001 0 0.011 0.001 0 0.012 0.001 0 0.013 0.001 0 0.014 0.001 0 0.015 0.001 0 0.016 0.001 0 0.017 0.001 0 0.018 0.001 0 0.019 0.001 0 0.02 0.001 0 0.021 0.001 0 0.022 0.001 0 0.023 0.001 0 0.024 0.001 0 0.025 0.001 0 0.026 0.001 0 0.027 0.001 0 0.028 0.001 0 0.029 0.001 0 0.03 0.001 0 0.031 0.001 0 0.032 0.001 0 0.033 0.001 0 0.034 0.001 0 0.035 0.001 0 0.036 0.001 0 0.037 0.001 0 0.038 0.001 0 0.039 0.001 0 0.04 0.001 0 0.041 0.001 0 0.042 0.001 0 0.043 0.001 0 0.044 0.001 0 0.045 0.001 0 0.046 0.001 0 0.047 0.001 0 0.048 0.001 0 0.049 0.001 0 0.05 0.001 0 0.051 0.001 0 0.052 0.001 0 0.053 0.001 0 0.054 0.001 0 0.055 0.001 0 0.056 0.001 0 0.057 0.001 0 0.058 0.001 0 0.059 0.001 0 0.06 0.001 0 0.061 0.001 0 0.062 0.001 0 0.063 0.001 0 0.064 0.001 0 0.065 0.001 0 0.066 0.001 0 0.067 0.001 0 0.068 0.001 0 0.069 0.001 0 0.07 0.001 0 0 0.002 0 0.001 0.002 0 0.002 0.002 0 0.003 0.002 0 0.004 0.002 0 0.005 0.002 0 0.006 0.002 0 0.007 0.002 0 0.008 0.002 0 0.009 0.002 0 0.01 0.002 0 0.011 0.002 0 0.012 0.002 0 0.013 0.002 0 0.014 0.002 0 0.015 0.002 0 0.016 0.002 0 0.017 0.002 0 0.018 0.002 0 0.019 0.002 0 0.02 0.002 0 0.021 0.002 0 0.022 0.002 0 0.023 0.002 0 0.024 0.002 0 0.025 0.002 0 0.026 0.002 0 0.027 0.002 0 0.028 0.002 0 0.029 0.002 0 0.03 0.002 0 0.031 0.002 0 0.032 0.002 0 0.033 0.002 0 0.034 0.002 0 0.035 0.002 0 0.036 0.002 0 0.037 0.002 0 0.038 0.002 0 0.039 0.002 0 0.04 0.002 0 0.041 0.002 0 0.042 0.002 0 0.043 0.002 0 0.044 0.002 0 0.045 0.002 0 0.046 0.002 0 0.047 0.002 0 0.048 0.002 0 0.049 0.002 0 0.05 0.002 0 0.051 0.002 0 0.052 0.002 0 0.053 0.002 0 0.054 0.002 0 0.055 0.002 0 0.056 0.002 0 0.057 0.002 0 0.058 0.002 0 0.059 0.002 0 0.06 0.002 0 0.061 0.002 0 0.062 0.002 0 0.063 0.002 0 0.064 0.002 0 0.065 0.002 0 0.066 0.002 0 0.067 0.002 0 0.068 0.002 0 0.069 0.002 0 0.07 0.002 0 0 0.003 0 0.001 0.003 0 0.002 0.003 0 0.003 0.003 0 0.004 0.003 0 0.005 0.003 0 0.006 0.003 0 0.007 0.003 0 0.008 0.003 0 0.009 0.003 0 0.01 0.003 0 0.011 0.003 0 0.012 0.003 0 0.013 0.003 0 0.014 0.003 0 0.015 0.003 0 0.016 0.003 0 0.017 0.003 0 0.018 0.003 0 0.019 0.003 0 0.02 0.003 0 0.021 0.003 0 0.022 0.003 0 0.023 0.003 0 0.024 0.003 0 0.025 0.003 0 0.026 0.003 0 0.027 0.003 0 0.028 0.003 0 0.029 0.003 0 0.03 0.003 0 0.031 0.003 0 0.032 0.003 0 0.033 0.003 0 0.034 0.003 0 0.035 0.003 0 0.036 0.003 0 0.037 0.003 0 0.038 0.003 0 0.039 0.003 0 0.04 0.003 0 0.041 0.003 0 0.042 0.003 0 0.043 0.003 0 0.044 0.003 0 0.045 0.003 0 0.046 0.003 0 0.047 0.003 0 0.048 0.003 0 0.049 0.003 0 0.05 0.003 0 0.051 0.003 0 0.052 0.003 0 0.053 0.003 0 0.054 0.003 0 0.055 0.003 0 0.056 0.003 0 0.057 0.003 0 0.058 0.003 0 0.059 0.003 0 0.06 0.003 0 0.061 0.003 0 0.062 0.003 0 0.063 0.003 0 0.064 0.003 0 0.065 0.003 0 0.066 0.003 0 0.067 0.003 0 0.068 0.003 0 0.069 0.003 0 0.07 0.003 0 0 0.004 0 0.001 0.004 0 0.002 0.004 0 0.003 0.004 0 0.004 0.004 0 0.005 0.004 0 0.006 0.004 0 0.007 0.004 0 0.008 0.004 0 0.009 0.004 0 0.01 0.004 0 0.011 0.004 0 0.012 0.004 0 0.013 0.004 0 0.014 0.004 0 0.015 0.004 0 0.016 0.004 0 0.017 0.004 0 0.018 0.004 0 0.019 0.004 0 0.02 0.004 0 0.021 0.004 0 0.022 0.004 0 0.023 0.004 0 0.024 0.004 0 0.025 0.004 0 0.026 0.004 0 0.027 0.004 0 0.028 0.004 0 0.029 0.004 0 0.03 0.004 0 0.031 0.004 0 0.032 0.004 0 0.033 0.004 0 0.034 0.004 0 0.035 0.004 0 0.036 0.004 0 0.037 0.004 0 0.038 0.004 0 0.039 0.004 0 0.04 0.004 0 0.041 0.004 0 0.042 0.004 0 0.043 0.004 0 0.044 0.004 0 0.045 0.004 0 0.046 0.004 0 0.047 0.004 0 0.048 0.004 0 0.049 0.004 0 0.05 0.004 0 0.051 0.004 0 0.052 0.004 0 0.053 0.004 0 0.054 0.004 0 0.055 0.004 0 0.056 0.004 0 0.057 0.004 0 0.058 0.004 0 0.059 0.004 0 0.06 0.004 0 0.061 0.004 0 0.062 0.004 0 0.063 0.004 0 0.064 0.004 0 0.065 0.004 0 0.066 0.004 0 0.067 0.004 0 0.068 0.004 0 0.069 0.004 0 0.07 0.004 0 0 0.005 0 0.001 0.005 0 0.002 0.005 0 0.003 0.005 0 0.004 0.005 0 0.005 0.005 0 0.006 0.005 0 0.007 0.005 0 0.008 0.005 0 0.009 0.005 0 0.01 0.005 0 0.011 0.005 0 0.012 0.005 0 0.013 0.005 0 0.014 0.005 0 0.015 0.005 0 0.016 0.005 0 0.017 0.005 0 0.018 0.005 0 0.019 0.005 0 0.02 0.005 0 0.021 0.005 0 0.022 0.005 0 0.023 0.005 0 0.024 0.005 0 0.025 0.005 0 0.026 0.005 0 0.027 0.005 0 0.028 0.005 0 0.029 0.005 0 0.03 0.005 0 0.031 0.005 0 0.032 0.005 0 0.033 0.005 0 0.034 0.005 0 0.035 0.005 0 0.036 0.005 0 0.037 0.005 0 0.038 0.005 0 0.039 0.005 0 0.04 0.005 0 0.041 0.005 0 0.042 0.005 0 0.043 0.005 0 0.044 0.005 0 0.045 0.005 0 0.046 0.005 0 0.047 0.005 0 0.048 0.005 0 0.049 0.005 0 0.05 0.005 0 0.051 0.005 0 0.052 0.005 0 0.053 0.005 0 0.054 0.005 0 0.055 0.005 0 0.056 0.005 0 0.057 0.005 0 0.058 0.005 0 0.059 0.005 0 0.06 0.005 0 0.061 0.005 0 0.062 0.005 0 0.063 0.005 0 0.064 0.005 0 0.065 0.005 0 0.066 0.005 0 0.067 0.005 0 0.068 0.005 0 0.069 0.005 0 0.07 0.005 0 0 0.006 0 0.001 0.006 0 0.002 0.006 0 0.003 0.006 0 0.004 0.006 0 0.005 0.006 0 0.006 0.006 0 0.007 0.006 0 0.008 0.006 0 0.009 0.006 0 0.01 0.006 0 0.011 0.006 0 0.012 0.006 0 0.013 0.006 0 0.014 0.006 0 0.015 0.006 0 0.016 0.006 0 0.017 0.006 0 0.018 0.006 0 0.019 0.006 0 0.02 0.006 0 0.021 0.006 0 0.022 0.006 0 0.023 0.006 0 0.024 0.006 0 0.025 0.006 0 0.026 0.006 0 0.027 0.006 0 0.028 0.006 0 0.029 0.006 0 0.03 0.006 0 0.031 0.006 0 0.032 0.006 0 0.033 0.006 0 0.034 0.006 0 0.035 0.006 0 0.036 0.006 0 0.037 0.006 0 0.038 0.006 0 0.039 0.006 0 0.04 0.006 0 0.041 0.006 0 0.042 0.006 0 0.043 0.006 0 0.044 0.006 0 0.045 0.006 0 0.046 0.006 0 0.047 0.006 0 0.048 0.006 0 0.049 0.006 0 0.05 0.006 0 0.051 0.006 0 0.052 0.006 0 0.053 0.006 0 0.054 0.006 0 0.055 0.006 0 0.056 0.006 0 0.057 0.006 0 0.058 0.006 0 0.059 0.006 0 0.06 0.006 0 0.061 0.006 0 0.062 0.006 0 0.063 0.006 0 0.064 0.006 0 0.065 0.006 0 0.066 0.006 0 0.067 0.006 0 0.068 0.006 0 0.069 0.006 0 0.07 0.006 0 0 0.007 0 0.001 0.007 0 0.002 0.007 0 0.003 0.007 0 0.004 0.007 0 0.005 0.007 0 0.006 0.007 0 0.007 0.007 0 0.008 0.007 0 0.009 0.007 0 0.01 0.007 0 0.011 0.007 0 0.012 0.007 0 0.013 0.007 0 0.014 0.007 0 0.015 0.007 0 0.016 0.007 0 0.017 0.007 0 0.018 0.007 0 0.019 0.007 0 0.02 0.007 0 0.021 0.007 0 0.022 0.007 0 0.023 0.007 0 0.024 0.007 0 0.025 0.007 0 0.026 0.007 0 0.027 0.007 0 0.028 0.007 0 0.029 0.007 0 0.03 0.007 0 0.031 0.007 0 0.032 0.007 0 0.033 0.007 0 0.034 0.007 0 0.035 0.007 0 0.036 0.007 0 0.037 0.007 0 0.038 0.007 0 0.039 0.007 0 0.04 0.007 0 0.041 0.007 0 0.042 0.007 0 0.043 0.007 0 0.044 0.007 0 0.045 0.007 0 0.046 0.007 0 0.047 0.007 0 0.048 0.007 0 0.049 0.007 0 0.05 0.007 0 0.051 0.007 0 0.052 0.007 0 0.053 0.007 0 0.054 0.007 0 0.055 0.007 0 0.056 0.007 0 0.057 0.007 0 0.058 0.007 0 0.059 0.007 0 0.06 0.007 0 0.061 0.007 0 0.062 0.007 0 0.063 0.007 0 0.064 0.007 0 0.065 0.007 0 0.066 0.007 0 0.067 0.007 0 0.068 0.007 0 0.069 0.007 0 0.07 0.007 0 0 0.008 0 0.001 0.008 0 0.002 0.008 0 0.003 0.008 0 0.004 0.008 0 0.005 0.008 0 0.006 0.008 0 0.007 0.008 0 0.008 0.008 0 0.009 0.008 0 0.01 0.008 0 0.011 0.008 0 0.012 0.008 0 0.013 0.008 0 0.014 0.008 0 0.015 0.008 0 0.016 0.008 0 0.017 0.008 0 0.018 0.008 0 0.019 0.008 0 0.02 0.008 0 0.021 0.008 0 0.022 0.008 0 0.023 0.008 0 0.024 0.008 0 0.025 0.008 0 0.026 0.008 0 0.027 0.008 0 0.028 0.008 0 0.029 0.008 0 0.03 0.008 0 0.031 0.008 0 0.032 0.008 0 0.033 0.008 0 0.034 0.008 0 0.035 0.008 0 0.036 0.008 0 0.037 0.008 0 0.038 0.008 0 0.039 0.008 0 0.04 0.008 0 0.041 0.008 0 0.042 0.008 0 0.043 0.008 0 0.044 0.008 0 0.045 0.008 0 0.046 0.008 0 0.047 0.008 0 0.048 0.008 0 0.049 0.008 0 0.05 0.008 0 0.051 0.008 0 0.052 0.008 0 0.053 0.008 0 0.054 0.008 0 0.055 0.008 0 0.056 0.008 0 0.057 0.008 0 0.058 0.008 0 0.059 0.008 0 0.06 0.008 0 0.061 0.008 0 0.062 0.008 0 0.063 0.008 0 0.064 0.008 0 0.065 0.008 0 0.066 0.008 0 0.067 0.008 0 0.068 0.008 0 0.069 0.008 0 0.07 0.008 0 0 0.009 0 0.001 0.009 0 0.002 0.009 0 0.003 0.009 0 0.004 0.009 0 0.005 0.009 0 0.006 0.009 0 0.007 0.009 0 0.008 0.009 0 0.009 0.009 0 0.01 0.009 0 0.011 0.009 0 0.012 0.009 0 0.013 0.009 0 0.014 0.009 0 0.015 0.009 0 0.016 0.009 0 0.017 0.009 0 0.018 0.009 0 0.019 0.009 0 0.02 0.009 0 0.021 0.009 0 0.022 0.009 0 0.023 0.009 0 0.024 0.009 0 0.025 0.009 0 0.026 0.009 0 0.027 0.009 0 0.028 0.009 0 0.029 0.009 0 0.03 0.009 0 0.031 0.009 0 0.032 0.009 0 0.033 0.009 0 0.034 0.009 0 0.035 0.009 0 0.036 0.009 0 0.037 0.009 0 0.038 0.009 0 0.039 0.009 0 0.04 0.009 0 0.041 0.009 0 0.042 0.009 0 0.043 0.009 0 0.044 0.009 0 0.045 0.009 0 0.046 0.009 0 0.047 0.009 0 0.048 0.009 0 0.049 0.009 0 0.05 0.009 0 0.051 0.009 0 0.052 0.009 0 0.053 0.009 0 0.054 0.009 0 0.055 0.009 0 0.056 0.009 0 0.057 0.009 0 0.058 0.009 0 0.059 0.009 0 0.06 0.009 0 0.061 0.009 0 0.062 0.009 0 0.063 0.009 0 0.064 0.009 0 0.065 0.009 0 0.066 0.009 0 0.067 0.009 0 0.068 0.009 0 0.069 0.009 0 0.07 0.009 0 0 0.01 0 0.001 0.01 0 0.002 0.01 0 0.003 0.01 0 0.004 0.01 0 0.005 0.01 0 0.006 0.01 0 0.007 0.01 0 0.008 0.01 0 0.009 0.01 0 0.01 0.01 0 0.011 0.01 0 0.012 0.01 0 0.013 0.01 0 0.014 0.01 0 0.015 0.01 0 0.016 0.01 0 0.017 0.01 0 0.018 0.01 0 0.019 0.01 0 0.02
[...]
			<CellData Scalars="Density">
				<DataArray Name="Density" type="Float32" format="ascii">
 0.393182 0.392572 0.396193 0.399712 0.404593 0.410321 0.41702 0.424583 0.433002 0.442182 0.45202 0.462349 0.47292 0.48344 0.493547 0.502828 0.511213 0.518667 0.525178 0.532386 1.2465 2.33587 2.69726 2.71395 2.67489 2.50538 2.1747 1.70971 1.22132 1.03277 1.00399 1.00047 1.00005 1.00001 1 1 1 1 1 1 1 1 1 1 1 1 1 1 1 1 1 1 1 1 1 1 1 1 1 1 1 1 1 1 1 1 1 1 1 1 0.391964 0.39144 0.394185 0.397606 0.401928 0.407288 0.413535 0.420642 0.428664 0.437498 0.447054 0.457197 0.46766 0.478095 0.488149 0.49754 0.50614 0.513812 0.521544 0.52902 1.25307 2.3333 2.68864 2.70651 2.66838 2.50116 2.17232 1.70906 1.22137 1.03277 1.00399 1.00047 1.00006 1.00001 1 1 1 1 1 1 1 1 1 1 1 1 1 1 1 1 1 1 1 1 1 1 1 1 1 1 1 1 1 1 1 1 1 1 1 1 0.391019 0.390184 0.393528 0.397382 0.402046 0.407715 0.414466 0.422197 0.430805 0.440121 0.45006 0.460465 0.471102 0.481677 0.491789 0.501216 0.509743 0.516982 0.523839 0.531324 1.26149 2.33916 2.68559 2.70361 2.66404 2.49713 2.16898 1.7066 1.21986 1.0327 1.00398 1.00048 1.00007 1.00001 1 1 1 1 1 1 1 1 1 1 1 1 1 1 1 1 1 1 1 1 1 1 1 1 1 1 1 1 1 1 1 1 1 1 1 1 0.389792 0.388727 0.392062 0.395599 0.39993 0.405234 0.411686 0.419196 0.427494 0.436477 0.446082 0.456144 0.4665 0.476871 0.486923 0.496262 0.504927 0.512958 0.520908 0.529012 1.27509 2.3448 2.68171 2.70035 2.65915 2.49135 2.16214 1.70494 1.22023 1.03245 1.00422 1.00067 1.00014 1.00005 1.00002 1.00001 1 1 1 1 1 1 1 1 1 1 1 1 1 1 1 1 1 1 1 1 1 1 1 1 1 1 1 1 1 1 1 1 1 1 0.387679 0.386664 0.389976 0.393728 0.398345 0.404267 0.411195 0.41886 0.427269 0.436469 0.446326 0.456729 0.467499 0.478096 0.488271 0.497763 0.506363 0.514086 0.522376 0.531139 1.30251 2.37348 2.70297 2.72061 2.67262 2.50336 2.17198 1.69688 1.21129 1.03484 1.00601 1.00141 1.00046 1.00021 1.00011 1.00005 1.00002 1.00001 1.00001 1 1 1 1 1 1 1 1 1 1 1 1 1 1 1 1 1 1 1 1 1 1 1 1 1 1 1 1 1 1 1 0.385647 0.384169 0.387688 0.391393 0.396104 0.401782 0.408284 0.415756 0.424089 0.433148 0.442907 0.453257 0.463769 0.474138 0.484406 0.493959 0.502664 0.511286 0.520014 0.529737 1.35303 2.42165 2.75168 2.79253 2.75261 2.5766 2.22057 1.72813 1.25265 1.05486 1.01341 1.00441 1.00199 1.001 1.00052 1.00026 1.00012 1.00006 1.00003 1.00001 1.00001 1 1 1 1 1 1 1 1 1 1 1 1 1 1 1 1 1 1 1 1 1 1 1 1 1 1 1 1 1 0.382966 0.381496 0.384969 0.388731 0.393291 0.398899 0.405554 0.413014 0.42129 0.430401 0.4402 0.450277 0.460646 0.471108 0.481021 0.490265 0.499152 0.507436 0.515989 0.526491 1.43797 2.48551 2.79953 2.86885 2.84861 2.69913 2.38397 1.91827 1.40783 1.11551 1.03874 1.0172 1.00898 1.00471 1.00249 1.00123 1.00061 1.00031 1.00015 1.00007 1.00003 1.00001 1.00001 1 1 1 1 1 1 1 1 1 1 1 1 1 1 1 1 1 1 1 1 1 1 1 1 1 1 1 0.380297 0.378561 0.382081 0.38555 0.390253 0.395945 0.402388 0.409716 0.41794 0.426882 0.4363 0.446343 0.456754 0.466631 0.476338 0.485895 0.494276 0.501916 0.510753 0.540616 1.55752 2.55239 2.81875 2.91211 2.91206 2.80628 2.54435 2.11788 1.6253 1.27609 1.13275 1.07129 1.04082 1.02213 1.01164 1.00587 1.00309 1.00155 1.00073 1.00036 1.00017 1.00008 1.00003 1.00001 1.00001 1 1 1 1 1 1 1 1 1 1 1 1 1 1 1 1 1 1 1 1 1 1 1 1 1 0.377302 0.375558 0.378779 0.382542 0.387162 0.392446 0.398705 0.406105 0.414121 0.422835 0.432275 0.442211 0.451877 0.461689 0.471569 0.480127 0.487891 0.495719 0.503777 0.615727 1.65842 2.56584 2.75776 2.88065 2.90934 2.85461 2.64079 2.25983 1.83069 1.51758 1.34994 1.25235 1.16685 1.09657 1.05315 1.02829 1.01497 1.00747 1.00372 1.00184 1.00089 1.00041 1.00019 1.00008 1.00003 1.00002 1.00001 1 1 1 1 1 1 1 1 1 1 1 1 1 1 1 1 1 1 1 1 1 1 1 0.374262 0.372328 0.375775 0.379301 0.383458 0.388773 0.395273 0.402314 0.410087 0.418708 0.427936 0.437203 0.446927 0.456849 0.465586 0.473676 0.481713 0.488124 0.494769 0.701419 1.76365 2.54037 2.68213 2.81314 2.8211 2.75569 2.56783 2.25687 1.93441 1.71463 1.58209 1.50174 1.41597 1.31564 1.21253 1.12557 1.06895 1.03604 1.01851 1.00936 1.00465 1.00217 1.00103 1.00046 1.0002 1.00008 1.00003 1.00001 1 1 1 1 1 1 1 1 1 1 1 1 1 1 1 1 1 1 1 1 1 1 0.371101 0.369071 0.37236 0.375594 0.379977 0.385473 0.391319 0.398106 0.405928 0.4143 0.423033 0.432299 0.442006 0.450837 0.459181 0.467427 0.474099 0.479312 0.484528 0.793935 1.86982 2.4672 2.56345 2.66144 2.64113 2.54134 2.35475 2.12445 1.934 1.81387 1.74583 1.70125 1.64639 1.57413 1.48427 1.37736 1.26254 1.15931 1.0875 1.0465 1.02383 1.01134 1.00555 1.00247 1.00111 1.00046 1.00016 1.00006 1.00002 1.00001 1 1 1 1 1 1 1 1 1 1 1 1 1 1 1 1 1 1 1 1 0.367819 0.365659 0.369 0.372243 0.376729 0.381404 0.387233 0.394287 0.40155 0.409644 0.418176 0.427456 0.436269 0.444704 0.453213 0.460061 0.465988 0.470468 0.473268 0.874256 1.9273 2.35607 2.39242 2.41254 2.33985 2.10819 1.83315 1.67569 1.64081 1.67583 1.73895 1.78387 1.79163 1.76823 1.7198 1.64446 1.5516 1.44268 1.31854 1.20145 1.11093 1.05676 1.0286 1.01328 1.00626 1.00244 1.00091 1.00039 1.00013 1.00004 1.00001 1 1 1 1 1 1 1 1 1 1 1 1 1 1 1 1 1 1 1 0.364601 0.362362 0.365644 0.368891 0.372675 0.377593 0.383701 0.38987 0.397102 0.405004 0.413433 0.421984 0.430329 0.439067 0.446376 0.452584 0.457717 0.460628 0.459795 0.906487 1.90423 2.21962 2.17718 2.04565 1.5545 1.11289 0.791152 0.68416 0.701622 0.790278 0.930919 1.09819 1.23003 1.39125 1.54741 1.64656 1.69338 1.69615 1.62687 1.51772 1.38851 1.25163 1.13821 1.0708 1.03349 1.01318 1.00555 1.00228 1.00075 1.00023 1.00008 1.00002 1 1 1 1 1 1 1 1 1 1 1 1 1 1 1 1 1 1 0.361316 0.359017 0.362199 0.365109 0.369148 0.37424 0.379318 0.385588 0.392885 0.400171 0.408341 0.416376 0.424997 0.432803 0.439477 0.445339 0.449214 0.451794 0.446967 0.814942 1.73971 2.04546 1.87405 1.39804 0.858848 0.34701 0.168462 0.16769 0.169869 0.172969 0.177066 0.18547 0.261561 0.387811 0.551348 0.71102 0.872492 1.05553 1.24491 1.33725 1.39792 1.4192 1.37196 1.27298 1.15206 1.0714 1.03244 1.01316 1.0044 1.00163 1.00045 1.00011 1.00003 1.00001 1 1 1 1 1 1 1 1 1 1 1 1 1 1 1 1 0.358064 0.355672 0.358851 0.361871 0.365873 0.369998 0.375299 0.38176 0.388096 0.395497 0.403261 0.411116 0.419234 0.426424 0.433008 0.43797 0.44114 0.442835 0.436664 0.7436 1.62996 1.89738 1.62807 1.06057 0.524896 0.184121 0.183731 0.211534 0.223333 0.221438 0.202512 0.184893 0.183786 0.186682 0.188963 0.190739 0.192727 0.195331 0.211489 0.313322 0.447499 0.605677 0.757789 0.908729 0.98507 1.01656 1.0199 1.01413 1.01181 1.00418 1.00114 1.0003 1.00007 1.00002 1.00001 1 1 1 1 1 1 1 1 1 1 1 1 1 1 1 0.354852 0.352325 0.355521 0.358371 0.361788 0.366186 0.371734 0.377133 0.383575 0.390861 0.397884 0.405829 0.413316 0.420407 0.426547 0.431146 0.433492 0.434105 0.428453 0.432247 1.06281 1.66015 1.57829 1.2103 0.859562 0.594307 0.464208 0.32289 0.305117 0.32398 0.311606 0.238148 0.186488 0.186686 0.188888 0.190797 0.192318 0.192965 0.193633 0.194344 0.193025 0.191763 0.188604 0.184397 0.173528 0.157996 0.139645 0.122172 0.109443 0.102721 0.100744 0.100199 0.100051 0.100013 0.100003 0.100001 0.1 0.1 0.1 0.1 0.1 0.1 0.1 0.1 0.1 0.1 0.1 0.1 0.1 0.1 0.351592 0.349064 0.352099 0.354737 0.358323 0.362887 0.367408 0.372812 0.379401 0.38572 0.392902 0.400375 0.407319 0.414247 0.420238 0.424401 0.427015 0.425747 0.420421 0.411712 0.445168 0.80319 1.0559 1.00402 0.815222 0.650677 0.494891 0.385921 0.332793 0.336765 0.341186 0.271168 0.197674 0.187644 0.18954 0.191264 0.192622 0.193541 0.193896 0.19389 0.193165 0.191279 0.188618 0.182915 0.174616 0.163276 0.148018 0.130794 0.114337 0.104594 0.101264 0.100332 0.100083 0.10002 0.100005 0.100001 0.1 0.1 0.1 0.1 0.1 0.1 0.1 0.1 0.1 0.1 0.1 0.1 0.1 0.1 0.348417 0.345749 0.348612 0.351474 0.35495 0.358756 0.363215 0.368994 0.374587 0.380852 0.387994 0.39461 0.401622 0.408286 0.413955 0.417917 0.420659 0.419958 0.41514 0.406717 0.396614 0.384952 0.439576 0.446778 0.424019 0.379174 0.34353 0.33923 0.341134 0.343505 0.346802 0.273387 0.197286 0.188725 0.190216 0.191606 0.192717 0.193387 0.193583 0.193204 0.192054 0.190022 0.187111 0.182814 0.176084 0.166698 0.153962 0.137687 0.120231 0.107143 0.101976 0.100515 0.100128 0.100031 0.100007 0.100002 0.1 0.1 0.1 0.1 0.1 0.1 0.1 0.1 0.1 0.1 0.1 0.1 0.1 0.1 0.345172 0.342414 0.345457 0.348186 0.351189 0.354894 0.35968 0.364554 0.36986 0.376403 0.382598 0.389133 0.396048 0.402294 0.407712 0.412116 0.414473 0.41506 0.411915 0.406434 0.398881 0.389103 0.379137 0.368928 0.360757 0.354669 0.351069 0.348502 0.348941 0.350168 0.344991 0.258813 0.192671 0.189653 0.190883 0.192016 0.19286 0.1933 0.193368 0.192995 0.192047 0.19038 0.187783 0.184029 0.17852 0.170644 0.159168 0.14349 0.125708 0.10986 0.102768 0.100702 0.100166 0.100037 0.100008 0.100002 0.1 0.1 0.1 0.1 0.1 0.1 0.1 0.1 0.1 0.1 0.1 0.1 0.1 0.1 0.342034 0.339224 0.342236 0.344523 0.347577 0.351432 0.355612 0.360025 0.365766 0.371405 0.377285 0.384025 0.39024 0.396292 0.401857 0.406252 0.408653 0.410302 0.408738 0.405147 0.399377 0.392371 0.38485 0.377062 0.370218 0.364332 0.360132 0.356857 0.355851 0.35576 0.331795 0.238658 0.189478 0.190526 0.191561 0.192522 0.193149 0.193456 0.193413 0.192929 0.191965 0.190456 0.18829 0.185163 0.180461 0.173469 0.162865 0.147935 0.13009 0.112778 0.103572 0.100873 0.1002 0.100044 0.100009 0.100002 0.1 0.1 0.1 0.1 0.1 0.1 0.1 0.1 0.1 0.1 0.1 0.1 0.1 0.1 0.338897 0.336033 0.338781 0.34118 0.344367 0.347737 0.351416 0.356234 0.36128 0.36638 0.372603 0.378541 0.384525 0.390598 0.396045 0.400211 0.403376 0.405301 0.405364 0.403563 0.399757 0.394902 0.389179 0.383122 0.377181 0.371834 0.367435 0.363844 0.361732 0.360415 0.31767 0.225618 0.190443 0.191288 0.192115 0.192872 0.193376 0.193658 0.193641 0.193247 0.19241 0.191024 0.189078 0.186296 0.182243 0.176238 0.166563 0.152378 0.134123 0.115546 0.104333 0.101034 0.10023 0.100049 0.10001 0.100002 0.1 0.1 0.1 0.1 0.1 0.1 0.1 0.1 0.1 0.1 0.1 0.1 0.1 0.1 0.335804 0.332806 0.335469 0.338107 0.340712 0.343793 0.347813 0.352164 0.35658 0.36202 0.367569 0.373105 0.379254 0.384867 0.390243 0.394668 0.398388 0.400528 0.401652 0.40125 0.399254 0.395895 0.391622 0.386946 0.381768 0.377015 0.372573 0.368742 0.366196 0.364198 0.301299 0.213999 0.191317 0.19196 0.192621 0.193203 0.193605 0.193781 0.193655 0.193181 0.192337 0.191073 0.189464 0.187197 0.183735 0.178317 0.169176 0.155733 0.137445 0.118198 0.105137 0.10121 0.100265 0.100055 0.100011 0.100002 0.1 0.1 0.1 0.1 0.1 0.1 0.1 0.1 0.1 0.1 0.1 0.1 0.1 0.1 0.332712 0.329656 0.332522 0.334699 0.33714 0.340504 0.344109 0.347838 0.352572 0.35758 0.362605 0.368361 0.373953 0.37939 0.384851 0.389469 0.393398 0.396197 0.398106 0.398644 0.397976 0.395935 0.392826 0.389092 0.384783 0.380468 0.37635 0.372465 0.369653 0.365473 0.281232 0.204052 0.192076 0.192513 0.192965 0.193342 0.193574 0.193611 0.19342 0.192966 0.192264 0.191257 0.189986 0.18806 0.18503 0.180225 0.171776 0.158994 0.140535 0.1207 0.105937 0.101378 0.100294 0.10006 0.100012 0.100002 0.1 0.1 0.1 0.1 0.1 0.1 0.1 0.1 0.1 0.1 0.1 0.1 0.1 0.1 0.329709 0.326627 0.32931 0.331253 0.334067 0.336964 0.34019 0.344154 0.348611 0.353091 0.358362 0.363742 0.369065 0.374771 0.380002 0.384736 0.389053 0.392488 0.394963 0.396278 0.396415 0.395448 0.393269 0.390387 0.386927 0.382972 0.379214 0.37535 0.372473 0.358131 0.270227 0.198911 0.192703 0.192955 0.19323 0.193439 0.19352 0.193439 0.193199 0.192767 0.192181 0.191351 0.190329 0.188726 0.186155 0.181804 0.173788 0.161459 0.143081 0.122985 0.106752 0.101538 0.100322 0.100065 0.100013 0.100002 0.1 0.1 0.1 0.1 0.1 0.1 0.1 0.1 0.1 0.1 0.1 0.1 0.1 0.1 0.326817 0.323693 0.326151 0.328348 0.330893 0.3335 0.336837 0.340718 0.344718 0.349349 0.354321 0.359335 0.364959 0.370404 0.375621 0.380858 0.385337 0.389113 0.39218 0.394197 0.395196 0.395077 0.393805 0.391671 0.388662 0.385081 0.381489 0.377782 0.374821 0.348638 0.258571 0.195517 0.193301 0.193387 0.193501 0.193585 0.193562 0.193392 0.193093 0.192658 0.192164 0.191485 0.190689 0.189333 0.187044 0.182977 0.175445 0.163694 0.145448 0.124966 0.107456 0.101674 0.100344 0.100068 0.100013 0.100002 0.1 0.1 0.1 0.1 0.1 0.1 0.1 0.1 0.1 0.1 0.1 0.1 0.1 0.1 0.324044 0.320922 0.323353 0.325586 0.327825 0.330547 0.333876 0.337469 0.341423 0.345966 0.350639 0.355913 0.361295 0.366591 0.372245 0.377495 0.382207 0.386637 0.3901 0.392565 0.394173 0.394672 0.394203 0.392714 0.390124 0.386973 0.383556 0.379984 0.376733 0.34056 0.249336 0.194482 0.19386 0.193818 0.193826 0.193798 0.193672 0.193425 0.193087 0.192681 0.192277 0.191712 0.191043 0.189766 0.187688 0.183941 0.176849 0.16537 0.147118 0.126476 0.108114 0.101798 0.100362 0.10007 0.100013 0.100002 0.1 0.1 0.1 0.1 0.1 0.1 0.1 0.1 0.1 0.1 0.1 0.1 0.1 0.1 0.321564 0.318474 0.32098 0.322935 0.32519 0.328009 0.331198 0.334591 0.338684 0.342926 0.347716 0.35286 0.358114 0.363823 0.369491 0.374869 0.380126 0.384819 0.388695 0.391819 0.394054 0.395085 0.395061 0.394134 0.391943 0.388951 0.385595 0.382019 0.378595 0.332946 0.240763 0.194633 0.194386 0.194242 0.194111 0.193958 0.193728 0.193411 0.193024 0.192579 0.192146 0.191571 0.190952 0.189835 0.188129 0.184717 0.177986 0.166856 0.148855 0.128024 0.108698 0.101887 0.100374 0.100071 0.100013 0.100003 0.1 0.1 0.1 0.1 0.1 0.1 0.1 0.1 0.1 0.1 0.1 0.1 0.1 0.1 0.319344 0.316491 0.318765 0.320759 0.323128 0.325993 0.32893 0.332495 0.33635 0.340592 0.345364 0.350323 0.355697 0.361311 0.366909 0.372524 0.377913 0.382857 0.387278 0.391023 0.393964 0.395732 0.396093 0.395473 0.393583 0.390597 0.387325 0.383863 0.380267 0.328096 0.236017 0.195151 0.194834 0.194603 0.194425 0.194238 0.193955 0.19358 0.193134 0.192648 0.19222 0.191726 0.19131 0.190444 0.188931 0.18558 0.178991 0.16798 0.14994 0.128842 0.109 0.101933 0.100379 0.100072 0.100013 0.100003 0.1 0.1 0.1 0.1 0.1 0.1 0.1 0.1 0.1 0.1 0.1 0.1 0.1 0.1 0.318023 0.315209 0.317274 0.319304 0.32172 0.324441 0.327477 0.331089 0.334983 0.339527 0.344396 0.349726 0.355386 0.361331 0.367515 0.373675 0.379585 0.384997 0.389645 0.393312 0.395872 0.397259 0.397518 0.39679 0.39511 0.392159 0.388926 0.385394 0.381676 0.323988 0.232132 0.19559 0.195197 0.194918 0.194677 0.19439 0.194024 0.193598 0.193128 0.192633 0.192174 0.191633 0.191115 0.19016 0.188654 0.18545 0.179165 0.168458 0.150631 0.129454 0.109218 0.101956 0.100381 0.100072 0.100014 0.100003 0.1 0.1 0.1 0.1 0.1 0.1 0.1 0.1 0.1 0.1 0.1 0.1 0.1 0.1 0.316378 0.313709 0.315465 0.317452 0.319701 0.322271 0.32525 0.328642 0.332471 0.336724 0.341367 0.346414 0.351782 0.357452 0.363325 0.369265 0.375093 0.38057 0.385482 0.389565 0.392646 0.394611 0.395572 0.395305 0.394286 0.391999 0.389218 0.385971 0.382567 0.320649 0.22955 0.195997 0.19557 0.195207 0.194861 0.194491 0.194083 0.193643 0.19317 0.192684 0.192214 0.191749 0.191316 0.190576 0.189215 0.186176 0.180048 0.169295 0.151201 0.129689 0.109259 0.10196 0.100382 0.100072 0.100014 0.100003 0.1 0.1 0.1 0.1 0.1 0.1 0.1 0.1 0.1 0.1 0.1 0.1 0.1 0.1
				</DataArray>
				<DataArray Name="Energy" type="Float32" format="ascii">