<?xml version="1.0"?>
<VTKFile type="PolyData">
	<PolyData>
		<Piece NumberOfPoints="2201" NumberOfPolys="2100">
			<Points>
				<DataArray type="Float32" NumberOfComponents="3" format="ascii">
 0 0 0 0.001 0 0 0.002 0 0 0.003 0 0 0.004 0 0 0.005 0 0 0.006 0 0 0.007 0 0 0.008 0 0 0.009 0 0 0.01 0 0 0.011 0 0 0.012 0 0 0.013 0 0 0.014 0 0 0.015 0 0 0.016 0 0 0.017 0 0 0.018 0 0 0.019 0 0 0.02 0 0 0.021 0 0 0.022 0 0 0.023 0 0 0.024 0 0 0.025 0 0 0.026 0 0 0.027 0 0 0.028 0 0 0.029 0 0 0.03 0 0 0.031 0 0 0.032 0 0 0.033 0 0 0.034 0 0 0.035 0 0 0.036 0 0 0.037 0 0 0.038 0 0 0.039 0 0 0.04 0 0 0.041 0 0 0.042 0 0 0.043 0 0 0.044 0 0 0.045 0 0 0.046 0 0 0.047 0 0 0.048 0 0 0.049 0 0 0.05 0 0 0.051 0 0 0.052 0 0 0.053 0 0 0.054 0 0 0.055 0 0 0.056 0 0 0.057 0 0 0.058 0 0 0.059 0 0 0.06 0 0 0.061 0 0 0.062 0 0 0.063 0 0 0.064 0 0 0.065 0 0 0.066 0 0 0.067 0 0 0.068 0 0 0.069 0 0 0.07 0 0 0 0.001 0 0.001 0.001 0 0.002 0.001 0 0.003 0.001 0 0.004 0.001 0 0.005 0.001 0 0.006 0.001 0 0.007 0.001 0 0.008 0.001 0 0.009 0.001 0 0.01 0.001 0 0.011 0.001 0 0.012 0.001 0 0.013 0.001 0 0.014 0.001 0 0.015 0.001 0 0.016 0.001 0 0.017 0.001 0 0.018 0.001 0 0.019 0.001 0 0.02 0.001 0 0.021 0.001 0 0.022 0.001 0 0.023 0.001 0 0.024 0.001 0 0.025 0.001 0 0.026 0.001 0 0.027 0.001 0 0.028 0.001 0 0.029 0.001 0 0.03 0.001 0 0.031 0.001 0 0.032 0.001 0 0.033 0.001 0 0.034 0.001 0 0.035 0.001 0 0.036 0.001 0 0.037 0.001 0 0.038 0.001 0 0.039 0.001 0 0.04 0.001 0 0.041 0.001 0 0.042 0.001 0 0.043 0.001 0 0.044 0.001 0 0.045 0.001 0 0.046 0.001 0 0.047 0.001 0 0.048 0.001 0 0.049 0.001 0 0.05 0.001 0 0.051 0.001 0 0.052 0.001 0 0.053 0.001 0 0.054 0.001 0 0.055 0.001 0 0.056 0.001 0 0.057 0.001 0 0.058 0.001 0 0.059 0.001 0 0.06 0.001 0 0.061 0.001 0 0.062 0.001 0 0.063 0.001 0 0.064 0.001 0 0.065 0.001 0 0.066 0.001 0 0.067 0.001 0 0.068 0.001 0 0.069 0.001 0 0.07 0.001 0 0 0.002 0 0.001 0.002 0 0.002 0.002 0 0.003 0.002 0 0.004 0.002 0 0.005 0.002 0 0.006 0.002 0 0.007 0.002 0 0.008 0.002 0 0.009 0.002 0 0.01 0.002 0 0.011 0.002 0 0.012 0.002 0 0.013 0.002 0 0.014 0.002 0 0.015 0.002 0 0.016 0.002 0 0.017 0.002 0 0.018 0.002 0 0.019 0.002 0 0.02 0.002 0 0.021 0.002 0 0.022 0.002 0 0.023 0.002 0 0.024 0.002 0 0.025 0.002 0 0.026 0.002 0 0.027 0.002 0 0.028 0.002 0 0.029 0.002 0 0.03 0.002 0 0.031 0.002 0 0.032 0.002 0 0.033 0.002 0 0.034 0.002 0 0.035 0.002 0 0.036 0.002 0 0.037 0.002 0 0.038 0.002 0 0.039 0.002 0 0.04 0.002 0 0.041 0.002 0 0.042 0.002 0 0.043 0.002 0 0.044 0.002 0 0.045 0.002 0 0.046 0.002 0 0.047 0.002 0 0.048 0.002 0 0.049 0.002 0 0.05 0.002 0 0.051 0.002 0 0.052 0.002 0 0.053 0.002 0 0.054 0.002 0 0.055 0.002 0 0.056 0.002 0 0.057 0.002 0 0.058 0.002 0 0.059 0.002 0 0.06 0.002 0 0.061 0.002 0 0.062 0.002 0 0.063 0.002 0 0.064 0.002 0 0.065 0.002 0 0.066 0.002 0 0.067 0.002 0 0.068 0.002 0 0.069 0.002 0 0.07 0.002 0 0 0.003 0 0.001 0.003 0 0.002 0.003 0 0.003 0.003 0 0.004 0.003 0 0.005 0.003 0 0.006 0.003 0 0.007 0.003 0 0.008 0.003 0 0.009 0.003 0 0.01 0.003 0 0.011 0.003 0 0.012 0.003 0 0.013 0.003 0 0.014 0.003 0 0.015 0.003 0 0.016 0.003 0 0.017 0.003 0 0.018 0.003 0 0.019 0.003 0 0.02 0.003 0 0.021 0.003 0 0.022 0.003 0 0.023 0.003 0 0.024 0.003 0 0.025 0.003 0 0.026 0.003 0 0.027 0.003 0 0.028 0.003 0 0.029 0.003 0 0.03 0.003 0 0.031 0.003 0 0.032 0.003 0 0.033 0.003 0 0.034 0.003 0 0.035 0.003 0 0.036 0.003 0 0.037 0.003 0 0.038 0.003 0 0.039 0.003 0 0.04 0.003 0 0.041 0.003 0 0.042 0.003 0 0.043 0.003 0 0.044 0.003 0 0.045 0.003 0 0.046 0.003 0 0.047 0.003 0 0.048 0.003 0 0.049 0.003 0 0.05 0.003 0 0.051 0.003 0 0.052 0.003 0 0.053 0.003 0 0.054 0.003 0 0.055 0.003 0 0.056 0.003 0 0.057 0.003 0 0.058 0.003 0 0.059 0.003 0 0.06 0.003 0 0.061 0.003 0 0.062 0.003 0 0.063 0.003 0 0.064 0.003 0 0.065 0.003 0 0.066 0.003 0 0.067 0.003 0 0.068 0.003 0 0.069 0.003 0 0.07 0.003 0 0 0.004 0 0.001 0.004 0 0.002 0.004 0 0.003 0.004 0 0.004 0.004 0 0.005 0.004 0 0.006 0.004 0 0.007 0.004 0 0.008 0.004 0 0.009 0.004 0 0.01 0.004 0 0.011 0.004 0 0.012 0.004 0 0.013 0.004 0 0.014 0.004 0 0.015 0.004 0 0.016 0.004 0 0.017 0.004 0 0.018 0.004 0 0.019 0.004 0 0.02 0.004 0 0.021 0.004 0 0.022 0.004 0 0.023 0.004 0 0.024 0.004 0 0.025 0.004 0 0.026 0.004 0 0.027 0.004 0 0.028 0.004 0 0.029 0.004 0 0.03 0.004 0 0.031 0.004 0 0.032 0.004 0 0.033 0.004 0 0.034 0.004 0 0.035 0.004 0 0.036 0.004 0 0.037 0.004 0 0.038 0.004 0 0.039 0.004 0 0.04 0.004 0 0.041 0.004 0 0.042 0.004 0 0.043 0.004 0 0.044 0.004 0 0.045 0.004 0 0.046 0.004 0 0.047 0.004 0 0.048 0.004 0 0.049 0.004 0 0.05 0.004 0 0.051 0.004 0 0.052 0.004 0 0.053 0.004 0 0.054 0.004 0 0.055 0.004 0 0.056 0.004 0 0.057 0.004 0 0.058 0.004 0 0.059 0.004 0 0.06 0.004 0 0.061 0.004 0 0.062 0.004 0 0.063 0.004 0 0.064 0.004 0 0.065 0.004 0 0.066 0.004 0 0.067 0.004 0 0.068 0.004 0 0.069 0.004 0 0.07 0.004 0 0 0.005 0 0.001 0.005 0 0.002 0.005 0 0.003 0.005 0 0.004 0.005 0 0.005 0.005 0 0.006 0.005 0 0.007 0.005 0 0.008 0.005 0 0.009 0.005 0 0.01 0.005 0 0.011 0.005 0 0.012 0.005 0 0.013 0.005 0 0.014 0.005 0 0.015 0.005 0 0.016 0.005 0 0.017 0.005 0 0.018 0.005 0 0.019 0.005 0 0.02 0.005 0 0.021 0.005 0 0.022 0.005 0 0.023 0.005 0 0.024 0.005 0 0.025 0.005 0 0.026 0.005 0 0.027 0.005 0 0.028 0.005 0 0.029 0.005 0 0.03 0.005 0 0.031 0.005 0 0.032 0.005 0 0.033 0.005 0 0.034 0.005 0 0.035 0.005 0 0.036 0.005 0 0.037 0.005 0 0.038 0.005 0 0.039 0.005 0 0.04 0.005 0 0.041 0.005 0 0.042 0.005 0 0.043 0.005 0 0.044 0.005 0 0.045 0.005 0 0.046 0.005 0 0.047 0.005 0 0.048 0.005 0 0.049 0.005 0 0.05 0.005 0 0.051 0.005 0 0.052 0.005 0 0.053 0.005 0 0.054 0.005 0 0.055 0.005 0 0.056 0.005 0 0.057 0.005 0 0.058 0.005 0 0.059 0.005 0 0.06 0.005 0 0.061 0.005 0 0.062 0.005 0 0.063 0.005 0 0.064 0.005 0 0.065 0.005 0 0.066 0.005 0 0.067 0.005 0 0.068 0.005 0 0.069 0.005 0 0.07 0.005 0 0 0.006 0 0.001 0.006 0 0.002 0.006 0 0.003 0.006 0 0.004 0.006 0 0.005 0.006 0 0.006 0.006 0 0.007 0.006 0 0.008 0.006 0 0.009 0.006 0 0.01 0.006 0 0.011 0.006 0 0.012 0.006 0 0.013 0.006 0 0.014 0.006 0 0.015 0.006 0 0.016 0.006 0 0.017 0.006 0 0.018 0.006 0 0.019 0.006 0 0.02 0.006 0 0.021 0.006 0 0.022 0.006 0 0.023 0.006 0 0.024 0.006 0 0.025 0.006 0 0.026 0.006 0 0.027 0.006 0 0.028 0.006 0 0.029 0.006 0 0.03 0.006 0 0.031 0.006 0 0.032 0.006 0 0.033 0.006 0 0.034 0.006 0 0.035 0.006 0 0.036 0.006 0 0.037 0.006 0 0.038 0.006 0 0.039 0.006 0 0.04 0.006 0 0.041 0.006 0 0.042 0.006 0 0.043 0.006 0 0.044 0.006 0 0.045 0.006 0 0.046 0.006 0 0.047 0.006 0 0.048 0.006 0 0.049 0.006 0 0.05 0.006 0 0.051 0.006 0 0.052 0.006 0 0.053 0.006 0 0.054 0.006 0 0.055 0.006 0 0.056 0.006 0 0.057 0.006 0 0.058 0.006 0 0.059 0.006 0 0.06 0.006 0 0.061 0.006 0 0.062 0.006 0 0.063 0.006 0 0.064 0.006 0 0.065 0.006 0 0.066 0.006 0 0.067 0.006 0 0.068 0.006 0 0.069 0.006 0 0.07 0.006 0 0 0.007 0 0.001 0.007 0 0.002 0.007 0 0.003 0.007 0 0.004 0.007 0 0.005 0.007 0 0.006 0.007 0 0.007 0.007 0 0.008 0.007 0 0.009 0.007 0 0.01 0.007 0 0.011 0.007 0 0.012 0.007 0 0.013 0.007 0 0.014 0.007 0 0.015 0.007 0 0.016 0.007 0 0.017 0.007 0 0.018 0.007 0 0.019 0.007 0 0.02 0.007 0 0.021 0.007 0 0.022 0.007 0 0.023 0.007 0 0.024 0.007 0 0.025 0.007 0 0.026 0.007 0 0.027 0.007 0 0.028 0.007 0 0.029 0.007 0 0.03 0.007 0 0.031 0.007 0 0.032 0.007 0 0.033 0.007 0 0.034 0.007 0 0.035 0.007 0 0.036 0.007 0 0.037 0.007 0 0.038 0.007 0 0.039 0.007 0 0.04 0.007 0 0.041 0.007 0 0.042 0.007 0 0.043 0.007 0 0.044 0.007 0 0.045 0.007 0 0.046 0.007 0 0.047 0.007 0 0.048 0.007 0 0.049 0.007 0 0.05 0.007 0 0.051 0.007 0 0.052 0.007 0 0.053 0.007 0 0.054 0.007 0 0.055 0.007 0 0.056 0.007 0 0.057 0.007 0 0.058 0.007 0 0.059 0.007 0 0.06 0.007 0 0.061 0.007 0 0.062 0.007 0 0.063 0.007 0 0.064 0.007 0 0.065 0.007 0 0.066 0.007 0 0.067 0.007 0 0.068 0.007 0 0.069 0.007 0 0.07 0.007 0 0 0.008 0 0.001 0.008 0 0.002 0.008 0 0.003 0.008 0 0.004 0.008 0 0.005 0.008 0 0.006 0.008 0 0.007 0.008 0 0.008 0.008 0 0.009 0.008 0 0.01 0.008 0 0.011 0.008 0 0.012 0.008 0 0.013 0.008 0 0.014 0.008 0 0.015 0.008 0 0.016 0.008 0 0.017 0.008 0 0.018 0.008 0 0.019 0.008 0 0.02 0.008 0 0.021 0.008 0 0.022 0.008 0 0.023 0.008 0 0.024 0.008 0 0.025 0.008 0 0.026 0.008 0 0.027 0.008 0 0.028 0.008 0 0.029 0.008 0 0.03 0.008 0 0.031 0.008 0 0.032 0.008 0 0.033 0.008 0 0.034 0.008 0 0.035 0.008 0 0.036 0.008 0 0.037 0.008 0 0.038 0.008 0 0.039 0.008 0 0.04 0.008 0 0.041 0.008 0 0.042 0.008 0 0.043 0.008 0 0.044 0.008 0 0.045 0.008 0 0.046 0.008 0 0.047 0.008 0 0.048 0.008 0 0.049 0.008 0 0.05 0.008 0 0.051 0.008 0 0.052 0.008 0 0.053 0.008 0 0.054 0.008 0 0.055 0.008 0 0.056 0.008 0 0.057 0.008 0 0.058 0.008 0 0.059 0.008 0 0.06 0.008 0 0.061 0.008 0 0.062 0.008 0 0.063 0.008 0 0.064 0.008 0 0.065 0.008 0 0.066 0.008 0 0.067 0.008 0 0.068 0.008 0 0.069 0.008 0 0.07 0.008 0 0 0.009 0 0.001 0.009 0 0.002 0.009 0 0.003 0.009 0 0.004 0.009 0 0.005 0.009 0 0.006 0.009 0 0.007 0.009 0 0.008 0.009 0 0.009 0.009 0 0.01 0.009 0 0.011 0.009 0 0.012 0.009 0 0.013 0.009 0 0.014 0.009 0 0.015 0.009 0 0.016 0.009 0 0.017 0.009 0 0.018 0.009 0 0.019 0.009 0 0.02 0.009 0 0.021 0.009 0 0.022 0.009 0 0.023 0.009 0 0.024 0.009 0 0.025 0.009 0 0.026 0.009 0 0.027 0.009 0 0.028 0.009 0 0.029 0.009 0 0.03 0.009 0 0.031 0.009 0 0.032 0.009 0 0.033 0.009 0 0.034 0.009 0 0.035 0.009 0 0.036 0.009 0 0.037 0.009 0 0.038 0.009 0 0.039 0.009 0 0.04 0.009 0 0.041 0.009 0 0.042 0.009 0 0.043 0.009 0 0.044 0.009 0 0.045 0.009 0 0.046 0.009 0 0.047 0.009 0 0.048 0.009 0 0.049 0.009 0 0.05 0.009 0 0.051 0.009 0 0.052 0.009 0 0.053 0.009 0 0.054 0.009 0 0.055 0.009 0 0.056 0.009 0 0.057 0.009 0 0.058 0.009 0 0.059 0.009 0 0.06 0.009 0 0.061 0.009 0 0.062 0.009 0 0.063 0.009 0 0.064 0.009 0 0.065 0.009 0 0.066 0.009 0 0.067 0.009 0 0.068 0.009 0 0.069 0.009 0 0.07 0.009 0 0 0.01 0 0.001 0.01 0 0.002 0.01 0 0.003 0.01 0 0.004 0.01 0 0.005 0.01 0 0.006 0.01 0 0.007 0.01 0 0.008 0.01 0 0.009 0.01 0 0.01 0.01 0 0.011 0.01 0 0.012 0.01 0 0.013 0.01 0 0.014 0.01 0 0.015 0.01 0 0.016 0.01 0 0.017 0.01 0 0.018 0.01 0 0.019 0.01 0 0.02
[...]
			<CellData Scalars="Density">
				<DataArray Name="Density" type="Float32" format="ascii">
 0.298894 0.299687 0.300931 0.301956 0.303501 0.305314 0.307456 0.309949 0.31278 0.315927 0.319399 0.323202 0.327314 0.331705 0.336337 0.341159 0.346153 0.351371 0.356766 0.362588 0.368982 0.37536 0.382588 0.39131 0.947756 1.67531 2.1853 2.33016 2.46916 2.59596 2.69142 2.71337 2.64814 2.46697 2.14549 1.69286 1.228 1.04128 1.00733 1.00171 1.00056 1.00027 1.00015 1.00008 1.00004 1.00002 1.00001 1.00001 1 1 1 1 1 1 1 1 1 1 1 1 1 1 1 1 1 1 1 1 1 1 0.29769 0.29847 0.29953 0.300541 0.301937 0.3036 0.305652 0.308008 0.310722 0.313733 0.317086 0.320728 0.324714 0.328918 0.333393 0.338036 0.342918 0.34798 0.353228 0.358989 0.365098 0.371971 0.379774 0.398006 1.04172 1.74475 2.21099 2.36976 2.51388 2.6456 2.75455 2.79216 2.74348 2.57205 2.24327 1.77158 1.29598 1.06437 1.01459 1.00434 1.00187 1.00101 1.00055 1.00029 1.00016 1.00009 1.00005 1.00002 1.00001 1.00001 1 1 1 1 1 1 1 1 1 1 1 1 1 1 1 1 1 1 1 1 0.297433 0.298209 0.299354 0.300626 0.302118 0.30391 0.305999 0.308414 0.311161 0.31422 0.317588 0.321222 0.325141 0.329288 0.333654 0.338245 0.343025 0.347971 0.352991 0.358726 0.364556 0.370794 0.378095 0.409888 1.06214 1.77268 2.22755 2.39866 2.55418 2.6944 2.81284 2.87593 2.84224 2.68943 2.38832 1.93646 1.44359 1.12151 1.03586 1.01455 1.00757 1.00424 1.00236 1.0013 1.00073 1.0004 1.00021 1.00012 1.00006 1.00003 1.00002 1.00001 1 1 1 1 1 1 1 1 1 1 1 1 1 1 1 1 1 1 0.297057 0.297786 0.298919 0.300033 0.301496 0.30314 0.305121 0.307397 0.310035 0.313008 0.31628 0.319901 0.323686 0.327822 0.332133 0.336605 0.341183 0.345817 0.350792 0.356138 0.361902 0.36802 0.375055 0.443664 1.10168 1.81252 2.22851 2.41294 2.58365 2.73527 2.85871 2.93186 2.91232 2.78935 2.53734 2.13087 1.65341 1.25468 1.10697 1.05298 1.03157 1.01815 1.01036 1.0059 1.00333 1.00179 1.00099 1.00054 1.00028 1.00015 1.00008 1.00004 1.00002 1.00001 1 1 1 1 1 1 1 1 1 1 1 1 1 1 1 1 0.296555 0.297274 0.298313 0.299512 0.300892 0.302667 0.304699 0.307071 0.309794 0.312772 0.315949 0.319395 0.32306 0.326899 0.331004 0.335134 0.3394 0.343886 0.348541 0.35365 0.359268 0.36486 0.371276 0.501332 1.16504 1.86456 2.21102 2.39538 2.57314 2.73527 2.86164 2.95075 2.96425 2.88559 2.67785 2.30808 1.86977 1.47345 1.28095 1.18534 1.12458 1.07552 1.04499 1.02627 1.01468 1.00814 1.0046 1.00243 1.00131 1.00072 1.00036 1.00019 1.0001 1.00005 1.00002 1.00001 1.00001 1 1 1 1 1 1 1 1 1 1 1 1 1 0.295949 0.296438 0.297654 0.298775 0.300218 0.301827 0.303732 0.306084 0.308668 0.311519 0.314677 0.31799 0.321606 0.325372 0.3293 0.333379 0.337521 0.341521 0.345934 0.35091 0.355756 0.361086 0.366988 0.585887 1.25248 1.90906 2.17037 2.34562 2.51894 2.68157 2.81218 2.92704 2.95417 2.90503 2.73443 2.40445 2.01132 1.68028 1.49547 1.3973 1.3265 1.24656 1.17087 1.10677 1.06273 1.03643 1.0204 1.01102 1.00617 1.0033 1.00172 1.00094 1.00048 1.00025 1.00012 1.00006 1.00003 1.00001 1.00001 1 1 1 1 1 1 1 1 1 1 1 0.295134 0.295629 0.29677 0.297978 0.299279 0.300839 0.302864 0.3051 0.30756 0.310407 0.3134 0.316714 0.320198 0.323817 0.327712 0.331591 0.335304 0.339275 0.343373 0.347266 0.351875 0.357047 0.362193 0.668979 1.33988 1.92752 2.12453 2.2922 2.45675 2.61805 2.75571 2.88721 2.8903 2.81939 2.64658 2.36788 2.04817 1.80799 1.67575 1.59668 1.5401 1.46856 1.39179 1.30815 1.22307 1.14519 1.08583 1.0493 1.02799 1.01495 1.00819 1.00442 1.00228 1.00122 1.0006 1.0003 1.00015 1.00007 1.00003 1.00002 1.00001 1 1 1 1 1 1 1 1 1 0.294187 0.294512 0.295809 0.296865 0.298165 0.299916 0.301787 0.303876 0.306455 0.309114 0.312115 0.315349 0.318647 0.322276 0.325873 0.329471 0.33325 0.336762 0.339944 0.343662 0.34775 0.351974 0.356989 0.753928 1.4325 1.92651 2.07822 2.22724 2.3781 2.53274 2.67106 2.79232 2.76412 2.6608 2.46506 2.22341 1.9944 1.84646 1.77581 1.7334 1.70549 1.66012 1.60289 1.53402 1.45642 1.36994 1.27894 1.1905 1.11631 1.06638 1.03794 1.02042 1.01097 1.00582 1.00295 1.00154 1.00074 1.00036 1.00018 1.00008 1.00003 1.00001 1.00001 1 1 1 1 1 1 1 0.293004 0.29333 0.2946 0.295667 0.297117 0.298671 0.300453 0.302796 0.305126 0.307809 0.310799 0.313782 0.317148 0.32048 0.323906 0.327548 0.330759 0.33381 0.336806 0.339611 0.342759 0.346557 0.351736 0.83509 1.51642 1.88561 2.01539 2.15048 2.28501 2.42372 2.53593 2.61111 2.55235 2.43326 2.24168 2.04384 1.89963 1.82767 1.80408 1.79178 1.78774 1.77416 1.74913 1.71197 1.66138 1.59586 1.51942 1.43257 1.33835 1.24298 1.15611 1.09015 1.05097 1.02747 1.01442 1.00758 1.00369 1.00184 1.0009 1.00041 1.00018 1.00008 1.00004 1.00001 1.00001 1 1 1 1 1 0.291683 0.29185 0.29325 0.294278 0.295668 0.297212 0.299329 0.301328 0.3037 0.306496 0.309146 0.312273 0.315406 0.318602 0.322045 0.325081 0.328157 0.331053 0.333345 0.33554 0.338023 0.340835 0.345767 0.895847 1.56176 1.83527 1.94875 2.06447 2.17561 2.27075 2.32751 2.33795 2.25699 2.13279 1.96911 1.8466 1.78553 1.7654 1.7797 1.79465 1.80788 1.81463 1.81246 1.80604 1.7907 1.75911 1.71392 1.65361 1.58058 1.49674 1.40241 1.30245 1.20385 1.12051 1.0672 1.036 1.01795 1.00925 1.00454 1.00214 1.00098 1.00045 1.00019 1.00008 1.00003 1.00001 1 1 1 1 0.290107 0.290275 0.291585 0.292845 0.294148 0.29595 0.297665 0.299777 0.302404 0.304773 0.307651 0.310647 0.313598 0.316869 0.319773 0.322805 0.325752 0.328022 0.330024 0.331618 0.333073 0.335144 0.339599 0.930702 1.57271 1.77967 1.87548 1.96522 2.03659 2.07147 2.07162 1.98771 1.63866 1.34222 1.19925 1.16577 1.211 1.29544 1.39908 1.49604 1.58347 1.67054 1.74838 1.80492 1.83618 1.83321 1.82092 1.79749 1.76091 1.7077 1.63864 1.55947 1.468 1.36397 1.25471 1.15481 1.0839 1.04534 1.02224 1.01084 1.00512 1.00238 1.00107 1.00045 1.00019 1.00007 1.00002 1.00001 1 1 0.288395 0.288395 0.289954 0.291116 0.292466 0.294067 0.295994 0.298449 0.300579 0.303208 0.306119 0.308809 0.311957 0.314817 0.317748 0.320694 0.323039 0.325203 0.326822 0.327948 0.328741 0.32972 0.333352 0.937897 1.55768 1.7168 1.79357 1.8508 1.87591 1.86979 1.64375 1.20108 0.784732 0.464952 0.349299 0.340567 0.383788 0.452243 0.536273 0.624809 0.713769 0.834401 0.980105 1.13089 1.29165 1.46342 1.60693 1.70915 1.7816 1.8099 1.79403 1.75331 1.69821 1.62381 1.53474 1.42638 1.30778 1.18904 1.10112 1.05221 1.02616 1.01269 1.00591 1.00254 1.00102 1.00036 1.00014 1.00005 1.00001 1 0.28648 0.286399 0.288028 0.289092 0.290619 0.292335 0.294544 0.296471 0.298884 0.301736 0.304214 0.30721 0.310101 0.312942 0.315895 0.318303 0.320676 0.322564 0.323917 0.324644 0.324802 0.324422 0.327151 0.909575 1.51003 1.65084 1.70855 1.72524 1.73562 1.49851 1.06966 0.588796 0.197824 0.154641 0.157854 0.157652 0.159112 0.160808 0.164273 0.168406 0.171856 0.175177 0.178153 0.227859 0.347289 0.498507 0.652938 0.803844 0.970408 1.15334 1.27561 1.39926 1.52474 1.61668 1.67191 1.67915 1.60585 1.48453 1.35775 1.22665 1.12551 1.06559 1.03147 1.01335 1.00547 1.00229 1.00091 1.00027 1.00007 1.00003 0.284361 0.284256 0.285831 0.287094 0.288733 0.290526 0.292388 0.294643 0.297417 0.29977 0.302589 0.305542 0.308279 0.311279 0.313839 0.316352 0.318522 0.320157 0.321287 0.321638 0.321452 0.320017 0.321885 0.741651 1.39329 1.58718 1.62678 1.61582 1.54805 1.11971 0.662859 0.220978 0.152149 0.173254 0.190589 0.207777 0.219689 0.216509 0.192114 0.174373 0.170644 0.174046 0.176817 0.17914 0.181028 0.182577 0.184017 0.185595 0.187449 0.211019 0.302177 0.40853 0.550825 0.703063 0.873261 1.06693 1.25912 1.35357 1.42222 1.40046 1.33965 1.2512 1.13933 1.06729 1.03207 1.01441 1.00495 1.0015 1.00046 1.00018 0.282088 0.281882 0.283612 0.285067 0.286562 0.288368 0.290447 0.293095 0.295367 0.298028 0.301036 0.303683 0.306706 0.309477 0.312141 0.314639 0.316553 0.318188 0.319099 0.319199 0.318804 0.316849 0.317069 0.629433 1.20381 1.52558 1.55179 1.53773 1.21575 0.819294 0.384945 0.150765 0.148961 0.17494 0.212935 0.266604 0.299642 0.303351 0.308003 0.267197 0.213749 0.176078 0.176031 0.178641 0.180707 0.182541 0.184209 0.185674 0.186875 0.187715 0.188329 0.188554 0.189112 0.189926 0.191445 0.193613 0.206687 0.378782 0.545485 0.651525 0.748559 0.881225 0.976032 1.00335 1.0216 1.01885 1.01046 1.00372 1.00132 1.00041 0.27971 0.279458 0.281385 0.282688 0.284271 0.2863 0.288692 0.290978 0.293493 0.296524 0.299171 0.302151 0.305132 0.307884 0.310668 0.312972 0.315048 0.316546 0.317386 0.3173 0.316769 0.314981 0.3135 0.406636 1.16759 1.47154 1.48541 1.46698 1.14826 0.779665 0.370978 0.149304 0.149959 0.234749 0.33468 0.361585 0.321131 0.302602 0.310082 0.317415 0.308822 0.222856 0.176013 0.177673 0.179708 0.181709 0.18348 0.184942 0.186209 0.18718 0.187946 0.188594 0.189381 0.190249 0.191247 0.191767 0.192075 0.190785 0.190045 0.187802 0.184003 0.177396 0.167275 0.151622 0.136016 0.121046 0.109114 0.102802 0.100839 0.10028 0.277232 0.277081 0.278896 0.280225 0.282182 0.284323 0.286605 0.288958 0.291967 0.294651 0.297581 0.300721 0.30355 0.306552 0.309256 0.311746 0.313849 0.31532 0.31625 0.316202 0.315466 0.314104 0.312324 0.310157 0.597384 1.34246 1.43107 1.41273 1.22824 0.945716 0.69338 0.593815 0.603221 0.589451 0.528252 0.429039 0.322302 0.307855 0.31248 0.318582 0.325146 0.255885 0.187128 0.178275 0.179941 0.181637 0.18323 0.184682 0.185969 0.187031 0.188022 0.188933 0.189814 0.190644 0.191366 0.191863 0.191873 0.191269 0.18975 0.187431 0.184126 0.178899 0.170301 0.158393 0.144079 0.128272 0.113446 0.104532 0.101377 0.100457 0.274772 0.274575 0.276494 0.278132 0.280051 0.282209 0.284456 0.287366 0.290105 0.29298 0.296219 0.299179 0.302303 0.305337 0.308121 0.31074 0.312873 0.3146 0.315598 0.315786 0.31516 0.313844 0.312214 0.310661 0.308611 0.568877 0.995599 1.35851 1.31726 1.22434 1.04564 0.889139 0.731659 0.571899 0.401816 0.302373 0.306103 0.311129 0.315635 0.320473 0.326486 0.257324 0.187741 0.177962 0.179634 0.18132 0.182918 0.184354 0.185627 0.186748 0.187742 0.188603 0.189354 0.190029 0.190595 0.190972 0.190877 0.190228 0.188825 0.186212 0.182343 0.177492 0.170606 0.161307 0.149451 0.134458 0.118732 0.106946 0.10212 0.100679 0.272456 0.272284 0.274344 0.275956 0.27792 0.280136 0.28281 0.285627 0.288363 0.291648 0.29472 0.297927 0.301172 0.304198 0.307151 0.309806 0.312102 0.314001 0.315326 0.316041 0.31619 0.315715 0.314493 0.312844 0.310808 0.309165 0.415065 0.607048 0.814614 0.813441 0.772353 0.622046 0.47853 0.342362 0.305722 0.308325 0.311133 0.314823 0.31901 0.323186 0.328059 0.252975 0.185473 0.1782 0.17975 0.181312 0.18281 0.184182 0.185408 0.186485 0.187424 0.188222 0.188884 0.189458 0.189877 0.190022 0.189785 0.189007 0.18767 0.18571 0.182988 0.179149 0.173359 0.165177 0.154192 0.139778 0.123694 0.109544 0.102963 0.100916 0.270302 0.270199 0.272198 0.273876 0.275991 0.27843 0.281172 0.283793 0.287033 0.290214 0.29344 0.296834 0.30004 0.303238 0.306276 0.309175 0.311844 0.314199 0.316176 0.317539 0.318229 0.318387 0.317642 0.316413 0.31472 0.313181 0.311336 0.311323 0.333796 0.354425 0.351027 0.326591 0.309846 0.309753 0.311031 0.312916 0.315162 0.318341 0.321958 0.325611 0.327219 0.249379 0.18396 0.178336 0.179795 0.181272 0.182695 0.184026 0.185223 0.186258 0.18713 0.187848 0.18846 0.188915 0.189153 0.189118 0.188728 0.187984 0.186776 0.184935 0.182409 0.178791 0.173707 0.166766 0.156993 0.14352 0.12759 0.112385 0.103862 0.101158 0.268419 0.268384 0.270359 0.272158 0.274367 0.276914 0.279427 0.282516 0.28573 0.288926 0.292391 0.295795 0.29922 0.302711 0.306157 0.309578 0.31275 0.315551 0.317836 0.319681 0.320944 0.321737 0.321783 0.321068 0.319762 0.318641 0.31705 0.316989 0.316868 0.316618 0.316058 0.314873 0.314649 0.314994 0.315866 0.317363 0.319068 0.321628 0.324616 0.327839 0.322604 0.242604 0.181443 0.178655 0.180023 0.181404 0.18273 0.183977 0.185107 0.186091 0.186917 0.187578 0.188115 0.188452 0.188527 0.188417 0.187948 0.187176 0.186113 0.184556 0.182417 0.179541 0.175516 0.169483 0.160366 0.147412 0.131144 0.114952 0.104706 0.101389 0.266837 0.266855 0.268783 0.270715 0.272978 0.275308 0.278165 0.281272 0.284382 0.287816 0.291398 0.29515 0.298983 0.302888 0.306799 0.31069 0.314237 0.317367 0.320125 0.322423 0.324221 0.325472 0.32618 0.326162 0.325314 0.324491 0.323221 0.322749 0.32197 0.321266 0.320593 0.319722 0.319439 0.319732 0.320243 0.321273 0.322651 0.324664 0.327115 0.329954 0.314712 0.232773 0.178861 0.178831 0.180173 0.181512 0.182788 0.183972 0.185045 0.185982 0.186748 0.187344 0.187808 0.188056 0.188053 0.187824 0.187339 0.186601 0.185589 0.184176 0.182339 0.179851 0.176169 0.170612 0.162163 0.1501 0.134034 0.11742 0.105615 0.101628 0.265587 0.265705 0.267641 0.269551 0.271668 0.274209 0.277138 0.280166 0.283665 0.287465 0.2916 0.295975 0.300355 0.30465 0.308632 0.312464 0.316094 0.31948 0.322539 0.325292 0.32754 0.329321 0.330469 0.331018 0.330771 0.330171 0.329181 0.328457 0.327282 0.326276 0.325304 0.324335 0.323713 0.323725 0.32406 0.324597 0.3256 0.32719 0.329239 0.331861 0.304399 0.220988 0.177776 0.179041 0.180335 0.181627 0.182858 0.183995 0.185012 0.185888 0.186607 0.187157 0.187546 0.187706 0.187686 0.187453 0.186974 0.18626 0.185328 0.184144 0.182636 0.180542 0.177383 0.172538 0.164682 0.152989 0.136782 0.119748 0.106527 0.101863 0.264626 0.264777 0.266667 0.26847 0.27063 0.273262 0.276212 0.279661 0.283462 0.287556 0.291911 0.296389 0.300958 0.305582 0.310027 0.314299 0.318197 0.321877 0.325207 0.328143 0.330692 0.332765 0.334387 0.335336 0.335567 0.335149 0.334261 0.333383 0.33203 0.330845 0.329568 0.328457 0.327533 0.327133 0.327266 0.327596 0.328233 0.32948 0.331139 0.33335 0.292187 0.209373 0.178019 0.179223 0.180481 0.181746 0.18295 0.184055 0.185035 0.185873 0.186555 0.187053 0.187366 0.187462 0.187351 0.187055 0.186621 0.186034 0.185273 0.184284 0.182925 0.180979 0.177989 0.173347 0.165868 0.154769 0.138988 0.12179 0.107417 0.102077 0.263996 0.264114 0.265975 0.267865 0.270333 0.273271 0.276914 0.280897 0.285049 0.289331 0.293657 0.298107 0.302672 0.307252 0.311718 0.316035 0.320137 0.32402 0.327689 0.330929 0.333633 0.33586 0.337606 0.338842 0.339453 0.339323 0.338521 0.33759 0.336222 0.334949 0.333468 0.332229 0.331049 0.33026 0.330035 0.330148 0.330554 0.331468 0.332855 0.334675 0.277537 0.198732 0.178188 0.179334 0.18055 0.181786 0.182973 0.18406 0.185018 0.185828 0.186466 0.186928 0.187199 0.187303 0.187274 0.187102 0.18676 0.186197 0.185367 0.184278 0.182947 0.181192 0.178546 0.174315 0.167386 0.156649 0.140862 0.123328 0.10818 0.102272 0.26376 0.26378 0.265555 0.267563 0.270002 0.272965 0.276393 0.280147 0.284285 0.288706 0.293343 0.29815 0.303113 0.308179 0.313211 0.317857 0.322193 0.326282 0.329917 0.333315 0.336217 0.338514 0.34037 0.34171 0.342433 0.34256 0.341985 0.341009 0.339657 0.338303 0.336707 0.335328 0.333973 0.332901 0.332421 0.332221 0.332398 0.333134 0.334228 0.335763 0.263235 0.191621 0.178396 0.179478 0.180639 0.181823 0.182972 0.184034 0.184973 0.185766 0.186388 0.18686 0.187141 0.187236 0.187137 0.186866 0.186465 0.185928 0.185242 0.184344 0.1832 0.181542 0.179038 0.174903 0.168219 0.157748 0.142359 0.124893 0.109041 0.102454 0.263603 0.263755 0.266083 0.268529 0.271194 0.274135 0.277426 0.281173 0.285369 0.289947 0.294806 0.299787 0.304891 0.310092 0.315194 0.319895 0.324199 0.328262 0.332022 0.335344 0.338402 0.340824 0.342613 0.34398 0.344773 0.345045 0.344634 0.343623 0.342266 0.340811 0.33917 0.33766 0.336221 0.334955 0.334284 0.33393 0.333903 0.334472 0.335426 0.331213 0.254046 0.186661 0.178503 0.179545 0.180677 0.181832 0.182943 0.183969 0.184882 0.185663 0.186271 0.186752 0.187027 0.187142 0.187126 0.186973 0.186664 0.18616 0.185448 0.184474 0.183302 0.181689 0.179522 0.175774 0.169582 0.159438 0.144096 0.126146 0.109557 0.102551 0.263682 0.263688 0.265544 0.267626 0.270136 0.273099 0.276572 0.280515 0.284884 0.289588 0.294547 0.299683 0.304952 0.310281 0.315572 0.320734 0.325575 0.329946 0.333811 0.337179 0.340062 0.342523 0.344389 0.345682 0.346431 0.346728 0.346481 0.345555 0.344148 0.342607 0.340966 0.33936 0.337862 0.336484 0.335689 0.335198 0.335058 0.335481 0.336293 0.327588 0.249381 0.184501 0.178639 0.17962 0.180697 0.181804 0.182881 0.183892 0.184794 0.185564 0.186157 0.186648 0.186917 0.187016 0.18696 0.186751 0.186389 0.185905 0.185287 0.184457 0.183474 0.182004 0.179913 0.17607 0.169778 0.159547 0.144357 0.126606 0.109931 0.102638 0.2637 0.264108 0.266378 0.268699 0.271512 0.274788 0.278485 0.282605 0.287103 0.291907 0.296957 0.302173 0.307487 0.312804 0.318018 0.323039 0.327748 0.332102 0.335951 0.339286 0.342083 0.344326 0.346063 0.347198 0.347868 0.347945 0.3476 0.346774 0.34544 0.343831 0.342138 0.340423 0.338864 0.337429 0.336543 0.335966 0.335792 0.33616 0.336916 0.322994 0.243756 0.182255 0.178661 0.179634 0.180696 0.181778 0.182828 0.183817 0.1847 0.185462 0.186052 0.186532 0.186804 0.186918 0.186857 0.186605 0.186173 0.185618 0.184973 0.18419 0.183243 0.181829 0.179847 0.176194 0.170291 0.160505 0.145597 0.127573 0.110283 0.102669 0.262241 0.262267 0.264249 0.2664 0.268975 0.271966 0.275413 0.279298 0.283578 0.288198 0.29308 0.298153 0.303339 0.308566 0.313747 0.318796 0.323612 0.328108 0.332194 0.335797 0.338853 0.341376 0.343374 0.344834 0.345827 0.346161 0.345999 0.345534 0.344674 0.343466 0.342071 0.340562 0.339134 0.337836 0.336986 0.336414 0.33625 0.33658 0.337315 0.317849 0.238239 0.180629 0.178699 0.179646 0.18067 0.181728 0.182775 0.183769 0.184658 0.185428 0.18603 0.1865 0.186759 0.186851 0.186798 0.186597 0.186249 0.185772 0.185166 0.184438 0.18354 0.182219 0.180209 0.176588 0.170766 0.160886 0.145756 0.127537 0.110245 0.10267
				</DataArray>
				<DataArray Name="Energy" type="Float32" format="ascii">