<?xml version="1.0"?>
<VTKFile type="PolyData">
	<PolyData>
		<Piece NumberOfPoints="2201" NumberOfPolys="2100">
			<Points>
				<DataArray type="Float32" NumberOfComponents="3" format="ascii">
 0 0 0 0.001 0 0 0.002 0 0 0.003 0 0 0.004 0 0 0.005 0 0 0.006 0 0 0.007 0 0 0.008 0 0 0.009 0 0 0.01 0 0 0.011 0 0 0.012 0 0 0.013 0 0 0.014 0 0 0.015 0 0 0.016 0 0 0.017 0 0 0.018 0 0 0.019 0 0 0.02 0 0 0.021 0 0 0.022 0 0 0.023 0 0 0.024 0 0 0.025 0 0 0.026 0 0 0.027 0 0 0.028 0 0 0.029 0 0 0.03 0 0 0.031 0 0 0.032 0 0 0.033 0 0 0.034 0 0 0.035 0 0 0.036 0 0 0.037 0 0 0.038 0 0 0.039 0 0 0.04 0 0 0.041 0 0 0.042 0 0 0.043 0 0 0.044 0 0 0.045 0 0 0.046 0 0 0.047 0 0 0.048 0 0 0.049 0 0 0.05 0 0 0.051 0 0 0.052 0 0 0.053 0 0 0.054 0 0 0.055 0 0 0.056 0 0 0.057 0 0 0.058 0 0 0.059 0 0 0.06 0 0 0.061 0 0 0.062 0 0 0.063 0 0 0.064 0 0 0.065 0 0 0.066 0 0 0.067 0 0 0.068 0 0 0.069 0 0 0.07 0 0 0 0.001 0 0.001 0.001 0 0.002 0.001 0 0.003 0.001 0 0.004 0.001 0 0.005 0.001 0 0.006 0.001 0 0.007 0.001 0 0.008 0.001 0 0.009 0.001 0 0.01 0.001 0 0.011 0.001 0 0.012 0.001 0 0.013 0.001 0 0.014 0.001 0 0.015 0.001 0 0.016 0.001 0 0.017 0.001 0 0.018 0.001 0 0.019 0.001 0 0.02 0.001 0 0.021 0.001 0 0.022 0.001 0 0.023 0.001 0 0.024 0.001 0 0.025 0.001 0 0.026 0.001 0 0.027 0.001 0 0.028 0.001 0 0.029 0.001 0 0.03 0.001 0 0.031 0.001 0 0.032 0.001 0 0.033 0.001 0 0.034 0.001 0 0.035 0.001 0 0.036 0.001 0 0.037 0.001 0 0.038 0.001 0 0.039 0.001 0 0.04 0.001 0 0.041 0.001 0 0.042 0.001 0 0.043 0.001 0 0.044 0.001 0 0.045 0.001 0 0.046 0.001 0 0.047 0.001 0 0.048 0.001 0 0.049 0.001 0 0.05 0.001 0 0.051 0.001 0 0.052 0.001 0 0.053 0.001 0 0.054 0.001 0 0.055 0.001 0 0.056 0.001 0 0.057 0.001 0 0.058 0.001 0 0.059 0.001 0 0.06 0.001 0 0.061 0.001 0 0.062 0.001 0 0.063 0.001 0 0.064 0.001 0 0.065 0.001 0 0.066 0.001 0 0.067 0.001 0 0.068 0.001 0 0.069 0.001 0 0.07 0.001 0 0 0.002 0 0.001 0.002 0 0.002 0.002 0 0.003 0.002 0 0.004 0.002 0 0.005 0.002 0 0.006 0.002 0 0.007 0.002 0 0.008 0.002 0 0.009 0.002 0 0.01 0.002 0 0.011 0.002 0 0.012 0.002 0 0.013 0.002 0 0.014 0.002 0 0.015 0.002 0 0.016 0.002 0 0.017 0.002 0 0.018 0.002 0 0.019 0.002 0 0.02 0.002 0 0.021 0.002 0 0.022 0.002 0 0.023 0.002 0 0.024 0.002 0 0.025 0.002 0 0.026 0.002 0 0.027 0.002 0 0.028 0.002 0 0.029 0.002 0 0.03 0.002 0 0.031 0.002 0 0.032 0.002 0 0.033 0.002 0 0.034 0.002 0 0.035 0.002 0 0.036 0.002 0 0.037 0.002 0 0.038 0.002 0 0.039 0.002 0 0.04 0.002 0 0.041 0.002 0 0.042 0.002 0 0.043 0.002 0 0.044 0.002 0 0.045 0.002 0 0.046 0.002 0 0.047 0.002 0 0.048 0.002 0 0.049 0.002 0 0.05 0.002 0 0.051 0.002 0 0.052 0.002 0 0.053 0.002 0 0.054 0.002 0 0.055 0.002 0 0.056 0.002 0 0.057 0.002 0 0.058 0.002 0 0.059 0.002 0 0.06 0.002 0 0.061 0.002 0 0.062 0.002 0 0.063 0.002 0 0.064 0.002 0 0.065 0.002 0 0.066 0.002 0 0.067 0.002 0 0.068 0.002 0 0.069 0.002 0 0.07 0.002 0 0 0.003 0 0.001 0.003 0 0.002 0.003 0 0.003 0.003 0 0.004 0.003 0 0.005 0.003 0 0.006 0.003 0 0.007 0.003 0 0.008 0.003 0 0.009 0.003 0 0.01 0.003 0 0.011 0.003 0 0.012 0.003 0 0.013 0.003 0 0.014 0.003 0 0.015 0.003 0 0.016 0.003 0 0.017 0.003 0 0.018 0.003 0 0.019 0.003 0 0.02 0.003 0 0.021 0.003 0 0.022 0.003 0 0.023 0.003 0 0.024 0.003 0 0.025 0.003 0 0.026 0.003 0 0.027 0.003 0 0.028 0.003 0 0.029 0.003 0 0.03 0.003 0 0.031 0.003 0 0.032 0.003 0 0.033 0.003 0 0.034 0.003 0 0.035 0.003 0 0.036 0.003 0 0.037 0.003 0 0.038 0.003 0 0.039 0.003 0 0.04 0.003 0 0.041 0.003 0 0.042 0.003 0 0.043 0.003 0 0.044 0.003 0 0.045 0.003 0 0.046 0.003 0 0.047 0.003 0 0.048 0.003 0 0.049 0.003 0 0.05 0.003 0 0.051 0.003 0 0.052 0.003 0 0.053 0.003 0 0.054 0.003 0 0.055 0.003 0 0.056 0.003 0 0.057 0.003 0 0.058 0.003 0 0.059 0.003 0 0.06 0.003 0 0.061 0.003 0 0.062 0.003 0 0.063 0.003 0 0.064 0.003 0 0.065 0.003 0 0.066 0.003 0 0.067 0.003 0 0.068 0.003 0 0.069 0.003 0 0.07 0.003 0 0 0.004 0 0.001 0.004 0 0.002 0.004 0 0.003 0.004 0 0.004 0.004 0 0.005 0.004 0 0.006 0.004 0 0.007 0.004 0 0.008 0.004 0 0.009 0.004 0 0.01 0.004 0 0.011 0.004 0 0.012 0.004 0 0.013 0.004 0 0.014 0.004 0 0.015 0.004 0 0.016 0.004 0 0.017 0.004 0 0.018 0.004 0 0.019 0.004 0 0.02 0.004 0 0.021 0.004 0 0.022 0.004 0 0.023 0.004 0 0.024 0.004 0 0.025 0.004 0 0.026 0.004 0 0.027 0.004 0 0.028 0.004 0 0.029 0.004 0 0.03 0.004 0 0.031 0.004 0 0.032 0.004 0 0.033 0.004 0 0.034 0.004 0 0.035 0.004 0 0.036 0.004 0 0.037 0.004 0 0.038 0.004 0 0.039 0.004 0 0.04 0.004 0 0.041 0.004 0 0.042 0.004 0 0.043 0.004 0 0.044 0.004 0 0.045 0.004 0 0.046 0.004 0 0.047 0.004 0 0.048 0.004 0 0.049 0.004 0 0.05 0.004 0 0.051 0.004 0 0.052 0.004 0 0.053 0.004 0 0.054 0.004 0 0.055 0.004 0 0.056 0.004 0 0.057 0.004 0 0.058 0.004 0 0.059 0.004 0 0.06 0.004 0 0.061 0.004 0 0.062 0.004 0 0.063 0.004 0 0.064 0.004 0 0.065 0.004 0 0.066 0.004 0 0.067 0.004 0 0.068 0.004 0 0.069 0.004 0 0.07 0.004 0 0 0.005 0 0.001 0.005 0 0.002 0.005 0 0.003 0.005 0 0.004 0.005 0 0.005 0.005 0 0.006 0.005 0 0.007 0.005 0 0.008 0.005 0 0.009 0.005 0 0.01 0.005 0 0.011 0.005 0 0.012 0.005 0 0.013 0.005 0 0.014 0.005 0 0.015 0.005 0 0.016 0.005 0 0.017 0.005 0 0.018 0.005 0 0.019 0.005 0 0.02 0.005 0 0.021 0.005 0 0.022 0.005 0 0.023 0.005 0 0.024 0.005 0 0.025 0.005 0 0.026 0.005 0 0.027 0.005 0 0.028 0.005 0 0.029 0.005 0 0.03 0.005 0 0.031 0.005 0 0.032 0.005 0 0.033 0.005 0 0.034 0.005 0 0.035 0.005 0 0.036 0.005 0 0.037 0.005 0 0.038 0.005 0 0.039 0.005 0 0.04 0.005 0 0.041 0.005 0 0.042 0.005 0 0.043 0.005 0 0.044 0.005 0 0.045 0.005 0 0.046 0.005 0 0.047 0.005 0 0.048 0.005 0 0.049 0.005 0 0.05 0.005 0 0.051 0.005 0 0.052 0.005 0 0.053 0.005 0 0.054 0.005 0 0.055 0.005 0 0.056 0.005 0 0.057 0.005 0 0.058 0.005 0 0.059 0.005 0 0.06 0.005 0 0.061 0.005 0 0.062 0.005 0 0.063 0.005 0 0.064 0.005 0 0.065 0.005 0 0.066 0.005 0 0.067 0.005 0 0.068 0.005 0 0.069 0.005 0 0.07 0.005 0 0 0.006 0 0.001 0.006 0 0.002 0.006 0 0.003 0.006 0 0.004 0.006 0 0.005 0.006 0 0.006 0.006 0 0.007 0.006 0 0.008 0.006 0 0.009 0.006 0 0.01 0.006 0 0.011 0.006 0 0.012 0.006 0 0.013 0.006 0 0.014 0.006 0 0.015 0.006 0 0.016 0.006 0 0.017 0.006 0 0.018 0.006 0 0.019 0.006 0 0.02 0.006 0 0.021 0.006 0 0.022 0.006 0 0.023 0.006 0 0.024 0.006 0 0.025 0.006 0 0.026 0.006 0 0.027 0.006 0 0.028 0.006 0 0.029 0.006 0 0.03 0.006 0 0.031 0.006 0 0.032 0.006 0 0.033 0.006 0 0.034 0.006 0 0.035 0.006 0 0.036 0.006 0 0.037 0.006 0 0.038 0.006 0 0.039 0.006 0 0.04 0.006 0 0.041 0.006 0 0.042 0.006 0 0.043 0.006 0 0.044 0.006 0 0.045 0.006 0 0.046 0.006 0 0.047 0.006 0 0.048 0.006 0 0.049 0.006 0 0.05 0.006 0 0.051 0.006 0 0.052 0.006 0 0.053 0.006 0 0.054 0.006 0 0.055 0.006 0 0.056 0.006 0 0.057 0.006 0 0.058 0.006 0 0.059 0.006 0 0.06 0.006 0 0.061 0.006 0 0.062 0.006 0 0.063 0.006 0 0.064 0.006 0 0.065 0.006 0 0.066 0.006 0 0.067 0.006 0 0.068 0.006 0 0.069 0.006 0 0.07 0.006 0 0 0.007 0 0.001 0.007 0 0.002 0.007 0 0.003 0.007 0 0.004 0.007 0 0.005 0.007 0 0.006 0.007 0 0.007 0.007 0 0.008 0.007 0 0.009 0.007 0 0.01 0.007 0 0.011 0.007 0 0.012 0.007 0 0.013 0.007 0 0.014 0.007 0 0.015 0.007 0 0.016 0.007 0 0.017 0.007 0 0.018 0.007 0 0.019 0.007 0 0.02 0.007 0 0.021 0.007 0 0.022 0.007 0 0.023 0.007 0 0.024 0.007 0 0.025 0.007 0 0.026 0.007 0 0.027 0.007 0 0.028 0.007 0 0.029 0.007 0 0.03 0.007 0 0.031 0.007 0 0.032 0.007 0 0.033 0.007 0 0.034 0.007 0 0.035 0.007 0 0.036 0.007 0 0.037 0.007 0 0.038 0.007 0 0.039 0.007 0 0.04 0.007 0 0.041 0.007 0 0.042 0.007 0 0.043 0.007 0 0.044 0.007 0 0.045 0.007 0 0.046 0.007 0 0.047 0.007 0 0.048 0.007 0 0.049 0.007 0 0.05 0.007 0 0.051 0.007 0 0.052 0.007 0 0.053 0.007 0 0.054 0.007 0 0.055 0.007 0 0.056 0.007 0 0.057 0.007 0 0.058 0.007 0 0.059 0.007 0 0.06 0.007 0 0.061 0.007 0 0.062 0.007 0 0.063 0.007 0 0.064 0.007 0 0.065 0.007 0 0.066 0.007 0 0.067 0.007 0 0.068 0.007 0 0.069 0.007 0 0.07 0.007 0 0 0.008 0 0.001 0.008 0 0.002 0.008 0 0.003 0.008 0 0.004 0.008 0 0.005 0.008 0 0.006 0.008 0 0.007 0.008 0 0.008 0.008 0 0.009 0.008 0 0.01 0.008 0 0.011 0.008 0 0.012 0.008 0 0.013 0.008 0 0.014 0.008 0 0.015 0.008 0 0.016 0.008 0 0.017 0.008 0 0.018 0.008 0 0.019 0.008 0 0.02 0.008 0 0.021 0.008 0 0.022 0.008 0 0.023 0.008 0 0.024 0.008 0 0.025 0.008 0 0.026 0.008 0 0.027 0.008 0 0.028 0.008 0 0.029 0.008 0 0.03 0.008 0 0.031 0.008 0 0.032 0.008 0 0.033 0.008 0 0.034 0.008 0 0.035 0.008 0 0.036 0.008 0 0.037 0.008 0 0.038 0.008 0 0.039 0.008 0 0.04 0.008 0 0.041 0.008 0 0.042 0.008 0 0.043 0.008 0 0.044 0.008 0 0.045 0.008 0 0.046 0.008 0 0.047 0.008 0 0.048 0.008 0 0.049 0.008 0 0.05 0.008 0 0.051 0.008 0 0.052 0.008 0 0.053 0.008 0 0.054 0.008 0 0.055 0.008 0 0.056 0.008 0 0.057 0.008 0 0.058 0.008 0 0.059 0.008 0 0.06 0.008 0 0.061 0.008 0 0.062 0.008 0 0.063 0.008 0 0.064 0.008 0 0.065 0.008 0 0.066 0.008 0 0.067 0.008 0 0.068 0.008 0 0.069 0.008 0 0.07 0.008 0 0 0.009 0 0.001 0.009 0 0.002 0.009 0 0.003 0.009 0 0.004 0.009 0 0.005 0.009 0 0.006 0.009 0 0.007 0.009 0 0.008 0.009 0 0.009 0.009 0 0.01 0.009 0 0.011 0.009 0 0.012 0.009 0 0.013 0.009 0 0.014 0.009 0 0.015 0.009 0 0.016 0.009 0 0.017 0.009 0 0.018 0.009 0 0.019 0.009 0 0.02 0.009 0 0.021 0.009 0 0.022 0.009 0 0.023 0.009 0 0.024 0.009 0 0.025 0.009 0 0.026 0.009 0 0.027 0.009 0 0.028 0.009 0 0.029 0.009 0 0.03 0.009 0 0.031 0.009 0 0.032 0.009 0 0.033 0.009 0 0.034 0.009 0 0.035 0.009 0 0.036 0.009 0 0.037 0.009 0 0.038 0.009 0 0.039 0.009 0 0.04 0.009 0 0.041 0.009 0 0.042 0.009 0 0.043 0.009 0 0.044 0.009 0 0.045 0.009 0 0.046 0.009 0 0.047 0.009 0 0.048 0.009 0 0.049 0.009 0 0.05 0.009 0 0.051 0.009 0 0.052 0.009 0 0.053 0.009 0 0.054 0.009 0 0.055 0.009 0 0.056 0.009 0 0.057 0.009 0 0.058 0.009 0 0.059 0.009 0 0.06 0.009 0 0.061 0.009 0 0.062 0.009 0 0.063 0.009 0 0.064 0.009 0 0.065 0.009 0 0.066 0.009 0 0.067 0.009 0 0.068 0.009 0 0.069 0.009 0 0.07 0.009 0 0 0.01 0 0.001 0.01 0 0.002 0.01 0 0.003 0.01 0 0.004 0.01 0 0.005 0.01 0 0.006 0.01 0 0.007 0.01 0 0.008 0.01 0 0.009 0.01 0 0.01 0.01 0 0.011 0.01 0 0.012 0.01 0 0.013 0.01 0 0.014 0.01 0 0.015 0.01 0 0.016 0.01 0 0.017 0.01 0 0.018 0.01 0 0.019 0.01 0 0.02
[...]
			<CellData Scalars="Density">
				<DataArray Name="Density" type="Float32" format="ascii">
 0.393181 0.392571 0.396192 0.399711 0.404592 0.41032 0.417019 0.424582 0.433002 0.442182 0.45202 0.462349 0.47292 0.483441 0.493548 0.502829 0.511214 0.518668 0.525178 0.532387 1.24646 2.33585 2.69725 2.71395 2.67489 2.50539 2.17472 1.70974 1.22134 1.03277 1.004 1.00047 1.00005 1.00001 1 1 1 1 1 1 1 1 1 1 1 1 1 1 1 1 1 1 1 1 1 1 1 1 1 1 1 1 1 1 1 1 1 1 1 1 0.391964 0.391439 0.394184 0.397605 0.401927 0.407287 0.413534 0.420641 0.428663 0.437498 0.447055 0.457197 0.467661 0.478096 0.48815 0.497541 0.506142 0.513813 0.521545 0.529021 1.25303 2.33328 2.68864 2.70651 2.66839 2.50117 2.17234 1.70908 1.22138 1.03277 1.00399 1.00047 1.00006 1.00001 1 1 1 1 1 1 1 1 1 1 1 1 1 1 1 1 1 1 1 1 1 1 1 1 1 1 1 1 1 1 1 1 1 1 1 1 0.391018 0.390183 0.393528 0.397381 0.402045 0.407715 0.414465 0.422197 0.430805 0.440121 0.450061 0.460465 0.471103 0.481678 0.49179 0.501218 0.509744 0.516984 0.52384 0.531326 1.26145 2.33914 2.6856 2.70361 2.66404 2.49714 2.169 1.70662 1.21988 1.0327 1.00398 1.00048 1.00007 1.00001 1 1 1 1 1 1 1 1 1 1 1 1 1 1 1 1 1 1 1 1 1 1 1 1 1 1 1 1 1 1 1 1 1 1 1 1 0.389792 0.388726 0.392061 0.395599 0.399929 0.405234 0.411686 0.419197 0.427495 0.436479 0.446084 0.456146 0.466502 0.476872 0.486924 0.496264 0.504929 0.51296 0.520909 0.529013 1.27505 2.34477 2.68172 2.70036 2.65917 2.49137 2.16216 1.70496 1.22024 1.03245 1.00422 1.00067 1.00014 1.00005 1.00002 1.00001 1 1 1 1 1 1 1 1 1 1 1 1 1 1 1 1 1 1 1 1 1 1 1 1 1 1 1 1 1 1 1 1 1 1 0.387678 0.386664 0.389976 0.393727 0.398344 0.404267 0.411196 0.41886 0.427269 0.43647 0.446327 0.456732 0.467502 0.478099 0.488274 0.497765 0.506365 0.514089 0.52238 0.531143 1.30247 2.37347 2.70299 2.72062 2.67262 2.50336 2.17201 1.69691 1.2113 1.03484 1.00601 1.00141 1.00046 1.00021 1.00011 1.00005 1.00002 1.00001 1.00001 1 1 1 1 1 1 1 1 1 1 1 1 1 1 1 1 1 1 1 1 1 1 1 1 1 1 1 1 1 1 1 0.385647 0.384169 0.387687 0.391393 0.396104 0.401782 0.408285 0.415756 0.42409 0.433151 0.442911 0.453261 0.463772 0.474142 0.48441 0.493964 0.502669 0.511292 0.520019 0.529742 1.35299 2.42163 2.75168 2.79253 2.75263 2.57663 2.2206 1.72816 1.25267 1.05486 1.01341 1.00441 1.00199 1.001 1.00052 1.00026 1.00012 1.00006 1.00003 1.00001 1.00001 1 1 1 1 1 1 1 1 1 1 1 1 1 1 1 1 1 1 1 1 1 1 1 1 1 1 1 1 1 0.382966 0.381496 0.384969 0.388731 0.393291 0.398899 0.405553 0.413017 0.421292 0.430404 0.440203 0.45028 0.460652 0.471113 0.481026 0.490271 0.499159 0.507442 0.515995 0.526497 1.43792 2.4855 2.79955 2.86886 2.84863 2.69915 2.38401 1.9183 1.40786 1.11552 1.03874 1.01721 1.00897 1.00472 1.0025 1.00122 1.00061 1.00032 1.00015 1.00007 1.00003 1.00001 1.00001 1 1 1 1 1 1 1 1 1 1 1 1 1 1 1 1 1 1 1 1 1 1 1 1 1 1 1 0.380297 0.378561 0.382081 0.385549 0.390252 0.395945 0.40239 0.409722 0.417942 0.426883 0.436303 0.44635 0.45676 0.466635 0.476344 0.485901 0.49428 0.501924 0.510759 0.540587 1.55748 2.55236 2.81874 2.91207 2.91206 2.80627 2.54437 2.11789 1.62532 1.27611 1.13275 1.07131 1.04078 1.02218 1.0116 1.00587 1.0031 1.00155 1.00073 1.00036 1.00017 1.00007 1.00003 1.00001 1.00001 1 1 1 1 1 1 1 1 1 1 1 1 1 1 1 1 1 1 1 1 1 1 1 1 1 0.377302 0.375558 0.378777 0.382541 0.387165 0.392452 0.398707 0.406108 0.414119 0.422841 0.432284 0.442216 0.45188 0.461697 0.471575 0.480132 0.487898 0.495725 0.503779 0.615739 1.65844 2.56585 2.75785 2.88069 2.90939 2.85465 2.64085 2.25989 1.83075 1.51761 1.34995 1.25244 1.16685 1.0966 1.05307 1.02838 1.01492 1.00749 1.00372 1.00183 1.00088 1.0004 1.00018 1.00008 1.00003 1.00001 1.00001 1 1 1 1 1 1 1 1 1 1 1 1 1 1 1 1 1 1 1 1 1 1 1 0.374261 0.372328 0.375775 0.379302 0.38346 0.388772 0.39527 0.402319 0.410092 0.418718 0.427938 0.437204 0.446935 0.456855 0.465588 0.473687 0.481724 0.488144 0.494784 0.70127 1.76361 2.54032 2.68225 2.81314 2.82114 2.75569 2.56783 2.25688 1.93446 1.71469 1.58219 1.50206 1.41586 1.31556 1.2126 1.12568 1.06889 1.03625 1.01843 1.00928 1.00456 1.0021 1.00099 1.00044 1.00018 1.00008 1.00003 1.00001 1 1 1 1 1 1 1 1 1 1 1 1 1 1 1 1 1 1 1 1 1 1 0.371102 0.369071 0.37236 0.375595 0.379977 0.385476 0.391326 0.398111 0.405934 0.414302 0.423032 0.432307 0.442013 0.450841 0.459184 0.467419 0.474073 0.479306 0.484492 0.794093 1.87021 2.46726 2.56381 2.66139 2.64111 2.54129 2.35478 2.12456 1.93415 1.81398 1.74617 1.70148 1.64551 1.57365 1.48417 1.37755 1.26296 1.15951 1.08683 1.04571 1.02284 1.01088 1.00527 1.00235 1.00105 1.00045 1.00016 1.00006 1.00002 1.00001 1 1 1 1 1 1 1 1 1 1 1 1 1 1 1 1 1 1 1 1 0.367818 0.365659 0.368999 0.372243 0.376731 0.381408 0.387233 0.394289 0.401555 0.409648 0.418184 0.42746 0.43627 0.444713 0.453221 0.460073 0.466017 0.470377 0.473258 0.873832 1.92747 2.35537 2.39259 2.41229 2.33969 2.10817 1.8332 1.67582 1.64096 1.67591 1.73924 1.78344 1.79043 1.76845 1.7209 1.64536 1.55332 1.4428 1.3163 1.19625 1.10656 1.05402 1.02718 1.01271 1.00595 1.00245 1.00093 1.00039 1.00015 1.00004 1.00001 1 1 1 1 1 1 1 1 1 1 1 1 1 1 1 1 1 1 1 0.364602 0.362363 0.365644 0.368892 0.372677 0.377593 0.383703 0.389876 0.397103 0.40501 0.413438 0.421984 0.430335 0.43908 0.446379 0.452577 0.457671 0.460607 0.460889 0.906905 1.90677 2.2194 2.1775 2.04525 1.55446 1.11279 0.791224 0.684217 0.701641 0.790016 0.930478 1.09627 1.22924 1.39426 1.55115 1.64768 1.69575 1.69666 1.62648 1.50967 1.37593 1.23831 1.13132 1.06732 1.03245 1.01347 1.00553 1.0024 1.0008 1.00022 1.00006 1.00002 1.00001 1 1 1 1 1 1 1 1 1 1 1 1 1 1 1 1 1 0.361315 0.359017 0.362199 0.36511 0.369148 0.374241 0.379322 0.38559 0.392891 0.40018 0.408343 0.416373 0.425009 0.432819 0.43949 0.445355 0.449201 0.451605 0.449345 0.811926 1.73781 2.04431 1.8745 1.39827 0.859292 0.347191 0.168483 0.16773 0.169926 0.173022 0.177079 0.184128 0.261472 0.390532 0.553273 0.711128 0.872373 1.04877 1.24906 1.3538 1.40987 1.4125 1.36139 1.26339 1.15003 1.07044 1.03301 1.01339 1.00436 1.00135 1.00046 1.00012 1.00003 1.00001 1 1 1 1 1 1 1 1 1 1 1 1 1 1 1 1 0.358065 0.355672 0.358851 0.361871 0.365874 0.37 0.375301 0.381764 0.388102 0.395502 0.403264 0.411121 0.419237 0.426431 0.433017 0.437993 0.441096 0.442824 0.438302 0.74043 1.62675 1.89711 1.62826 1.06043 0.524456 0.184013 0.183808 0.211587 0.223395 0.221467 0.202505 0.184862 0.18379 0.186796 0.18919 0.191164 0.19332 0.195936 0.211132 0.353232 0.491912 0.619353 0.74832 0.868475 0.962132 1.01206 1.02008 1.01568 1.00929 1.00454 1.0012 1.00029 1.00009 1.00002 1 1 1 1 1 1 1 1 1 1 1 1 1 1 1 1 0.354852 0.352325 0.355521 0.358372 0.361789 0.366186 0.371736 0.377137 0.383579 0.390867 0.397891 0.405829 0.413313 0.420419 0.426567 0.431185 0.433417 0.434256 0.428731 0.431121 1.06356 1.66081 1.57906 1.20896 0.859308 0.594468 0.464363 0.322975 0.305218 0.324065 0.311606 0.238061 0.18647 0.186768 0.189142 0.191199 0.192811 0.193754 0.19466 0.194193 0.193512 0.191983 0.18845 0.1818 0.171813 0.157797 0.139708 0.122531 0.109459 0.102828 0.100743 0.100198 0.100052 0.100012 0.100003 0.100001 0.1 0.1 0.1 0.1 0.1 0.1 0.1 0.1 0.1 0.1 0.1 0.1 0.1 0.1 0.351591 0.349064 0.352099 0.354737 0.358323 0.362888 0.367411 0.372815 0.379406 0.385728 0.39291 0.400374 0.407325 0.414264 0.420267 0.424443 0.426945 0.425817 0.42017 0.411665 0.446315 0.804143 1.05653 1.00447 0.815124 0.650654 0.494954 0.385982 0.332853 0.336845 0.341287 0.27116 0.197694 0.187748 0.18976 0.191676 0.193236 0.194371 0.194989 0.194974 0.194073 0.192144 0.188852 0.183628 0.175193 0.163314 0.148032 0.130822 0.114368 0.104625 0.101285 0.100334 0.100083 0.10002 0.100005 0.100001 0.1 0.1 0.1 0.1 0.1 0.1 0.1 0.1 0.1 0.1 0.1 0.1 0.1 0.1 0.348417 0.345749 0.348612 0.351474 0.35495 0.358757 0.363216 0.368996 0.374592 0.380857 0.387999 0.39461 0.401623 0.408287 0.413965 0.417948 0.420624 0.420074 0.415026 0.406779 0.396536 0.384947 0.440058 0.446946 0.42402 0.379188 0.343537 0.339255 0.341176 0.343565 0.346885 0.273373 0.197328 0.188799 0.190357 0.191879 0.193149 0.194099 0.194529 0.19439 0.193316 0.191242 0.18802 0.183265 0.176302 0.166804 0.15405 0.137749 0.120267 0.107162 0.101979 0.100517 0.100128 0.100031 0.100007 0.100002 0.1 0.1 0.1 0.1 0.1 0.1 0.1 0.1 0.1 0.1 0.1 0.1 0.1 0.1 0.345171 0.342413 0.345457 0.348187 0.35119 0.354894 0.359682 0.364558 0.369864 0.376409 0.382605 0.389138 0.396051 0.4023 0.407721 0.412137 0.414468 0.415118 0.411882 0.406484 0.398871 0.389107 0.379122 0.368902 0.360745 0.354646 0.351052 0.348503 0.348975 0.350226 0.345066 0.258847 0.192749 0.189741 0.19105 0.192267 0.193263 0.19392 0.19414 0.193934 0.193101 0.191378 0.188697 0.184685 0.178945 0.170817 0.159224 0.143455 0.12565 0.109857 0.102779 0.100704 0.100166 0.100037 0.100008 0.100002 0.1 0.1 0.1 0.1 0.1 0.1 0.1 0.1 0.1 0.1 0.1 0.1 0.1 0.1 0.342034 0.339225 0.342236 0.344524 0.347576 0.351432 0.355613 0.360026 0.365768 0.371409 0.37729 0.384028 0.390242 0.396293 0.401857 0.406265 0.408655 0.410327 0.408713 0.405164 0.39938 0.392382 0.384862 0.377068 0.370227 0.364322 0.360132 0.356852 0.355856 0.355775 0.331828 0.238684 0.189526 0.190592 0.19166 0.192639 0.193396 0.193815 0.193868 0.193496 0.192661 0.191141 0.188887 0.185524 0.180655 0.173542 0.162884 0.147942 0.130122 0.112807 0.103577 0.100873 0.100199 0.100044 0.100009 0.100002 0.1 0.1 0.1 0.1 0.1 0.1 0.1 0.1 0.1 0.1 0.1 0.1 0.1 0.1 0.338896 0.336032 0.338781 0.34118 0.344366 0.347737 0.351415 0.356235 0.361283 0.366385 0.372608 0.378546 0.384531 0.390603 0.396045 0.400214 0.40337 0.405324 0.405352 0.403559 0.399746 0.394892 0.389166 0.38311 0.377173 0.371829 0.367433 0.36384 0.361745 0.360437 0.317699 0.225663 0.190495 0.191349 0.192207 0.192991 0.193567 0.193893 0.193928 0.193543 0.192722 0.191283 0.189257 0.186459 0.182382 0.176336 0.16664 0.15242 0.134132 0.115533 0.104333 0.101034 0.10023 0.100049 0.10001 0.100002 0.1 0.1 0.1 0.1 0.1 0.1 0.1 0.1 0.1 0.1 0.1 0.1 0.1 0.1 0.335804 0.332806 0.335469 0.338106 0.340712 0.343793 0.347813 0.352165 0.356581 0.362021 0.367572 0.373107 0.379258 0.384869 0.390242 0.394667 0.398382 0.400528 0.40164 0.401243 0.399246 0.395887 0.391613 0.38694 0.381761 0.377007 0.372567 0.368738 0.366199 0.364199 0.301303 0.214011 0.191343 0.191989 0.192658 0.193241 0.193624 0.193772 0.193661 0.193231 0.192445 0.191186 0.189551 0.187263 0.183746 0.178289 0.169135 0.155694 0.137433 0.118205 0.105144 0.101211 0.100265 0.100055 0.100011 0.100002 0.1 0.1 0.1 0.1 0.1 0.1 0.1 0.1 0.1 0.1 0.1 0.1 0.1 0.1 0.332711 0.329655 0.332521 0.334699 0.33714 0.340503 0.344109 0.347838 0.352572 0.357581 0.362607 0.368363 0.373957 0.379392 0.384854 0.389469 0.393396 0.396193 0.3981 0.398639 0.397969 0.395929 0.39282 0.389084 0.384777 0.380464 0.376349 0.372467 0.369656 0.365478 0.281239 0.204056 0.192081 0.192518 0.192974 0.193359 0.193612 0.193661 0.193467 0.193004 0.192298 0.191283 0.190009 0.188084 0.185059 0.180268 0.171834 0.159051 0.140572 0.120707 0.105936 0.101378 0.100294 0.10006 0.100012 0.100002 0.1 0.1 0.1 0.1 0.1 0.1 0.1 0.1 0.1 0.1 0.1 0.1 0.1 0.1 0.329708 0.326627 0.32931 0.331253 0.334065 0.336963 0.34019 0.344153 0.348611 0.353091 0.358363 0.363743 0.369068 0.374773 0.380004 0.384736 0.389053 0.392487 0.394962 0.396277 0.396413 0.395445 0.393267 0.390384 0.386927 0.38297 0.379214 0.37535 0.372471 0.358133 0.270231 0.198913 0.192707 0.192957 0.193225 0.193419 0.193499 0.193428 0.193194 0.19277 0.192189 0.191358 0.190335 0.188731 0.186151 0.181785 0.173752 0.161412 0.143044 0.122969 0.106756 0.101538 0.100322 0.100065 0.100013 0.100002 0.1 0.1 0.1 0.1 0.1 0.1 0.1 0.1 0.1 0.1 0.1 0.1 0.1 0.1 0.326816 0.323692 0.326151 0.328345 0.330893 0.333501 0.336837 0.340717 0.344718 0.349348 0.354321 0.359335 0.36496 0.370405 0.375622 0.380858 0.385338 0.389113 0.39218 0.394197 0.395196 0.395077 0.393806 0.391671 0.388662 0.38508 0.381489 0.377782 0.374821 0.348642 0.258576 0.195519 0.193302 0.193386 0.193504 0.193598 0.193582 0.19341 0.193104 0.192666 0.19217 0.191491 0.190693 0.189335 0.187048 0.18299 0.175471 0.163732 0.145489 0.124988 0.107459 0.101675 0.100344 0.100068 0.100013 0.100002 0.1 0.1 0.1 0.1 0.1 0.1 0.1 0.1 0.1 0.1 0.1 0.1 0.1 0.1 0.324044 0.320922 0.323351 0.325586 0.327827 0.330546 0.333875 0.337468 0.341422 0.345965 0.350639 0.355912 0.361295 0.366591 0.372246 0.377495 0.382208 0.386636 0.390101 0.392565 0.394173 0.394671 0.394203 0.392713 0.390123 0.386972 0.383555 0.379982 0.376732 0.340563 0.24934 0.194483 0.19386 0.193819 0.193825 0.193792 0.19366 0.193416 0.193082 0.192677 0.192273 0.191709 0.191041 0.189765 0.187687 0.183937 0.176838 0.165349 0.147092 0.126457 0.108112 0.101798 0.100362 0.10007 0.100013 0.100002 0.1 0.1 0.1 0.1 0.1 0.1 0.1 0.1 0.1 0.1 0.1 0.1 0.1 0.1 0.321564 0.318473 0.320979 0.322935 0.325188 0.328007 0.331197 0.33459 0.338683 0.342925 0.347715 0.352859 0.358114 0.363822 0.36949 0.374867 0.380125 0.384817 0.388693 0.391817 0.394052 0.395082 0.395059 0.394132 0.391941 0.38895 0.385594 0.382018 0.378594 0.332951 0.240768 0.194633 0.194386 0.194242 0.194111 0.193961 0.193736 0.19342 0.193031 0.192584 0.192149 0.191573 0.190952 0.189837 0.18813 0.184719 0.177991 0.166868 0.148874 0.128041 0.108704 0.101887 0.100374 0.100071 0.100013 0.100003 0.1 0.1 0.1 0.1 0.1 0.1 0.1 0.1 0.1 0.1 0.1 0.1 0.1 0.1 0.319344 0.31649 0.318764 0.320758 0.323127 0.325994 0.32893 0.332494 0.33635 0.340591 0.345364 0.350323 0.355696 0.36131 0.366907 0.372523 0.377911 0.382854 0.387276 0.391021 0.393962 0.395729 0.39609 0.39547 0.39358 0.390594 0.387323 0.383861 0.380265 0.3281 0.236021 0.195151 0.194834 0.194603 0.194425 0.194236 0.193951 0.193576 0.193131 0.192645 0.192217 0.191725 0.191309 0.190444 0.18893 0.18558 0.178991 0.167979 0.149935 0.128837 0.108998 0.101933 0.100379 0.100072 0.100013 0.100003 0.1 0.1 0.1 0.1 0.1 0.1 0.1 0.1 0.1 0.1 0.1 0.1 0.1 0.1 0.318022 0.315208 0.317273 0.319303 0.321719 0.324442 0.327476 0.331087 0.334982 0.339527 0.344396 0.349725 0.355385 0.36133 0.367514 0.373674 0.379583 0.384996 0.389643 0.393309 0.39587 0.397257 0.397516 0.396788 0.395108 0.392156 0.388924 0.385392 0.381675 0.323993 0.232136 0.19559 0.195197 0.194917 0.194677 0.19439 0.194025 0.193601 0.193131 0.192635 0.192175 0.191634 0.191115 0.190161 0.188655 0.185451 0.179166 0.168459 0.150634 0.129458 0.109221 0.101956 0.100381 0.100072 0.100014 0.100003 0.1 0.1 0.1 0.1 0.1 0.1 0.1 0.1 0.1 0.1 0.1 0.1 0.1 0.1 0.316377 0.313709 0.315464 0.317451 0.3197 0.32227 0.325249 0.328642 0.33247 0.336723 0.341367 0.346413 0.351782 0.357451 0.363324 0.369263 0.375091 0.380569 0.38548 0.389564 0.392644 0.394609 0.39557 0.395303 0.394285 0.391997 0.389217 0.38597 0.382566 0.320654 0.229553 0.195996 0.195569 0.195207 0.194861 0.194491 0.194083 0.193642 0.193168 0.192683 0.192213 0.191749 0.191315 0.190576 0.189216 0.186176 0.180048 0.169297 0.151204 0.129692 0.10926 0.101961 0.100382 0.100072 0.100014 0.100003 0.1 0.1 0.1 0.1 0.1 0.1 0.1 0.1 0.1 0.1 0.1 0.1 0.1 0.1
				</DataArray>
				<DataArray Name="Energy" type="Float32" format="ascii">