<?xml version="1.0"?>
<VTKFile type="PolyData">
	<PolyData>
		<Piece NumberOfPoints="2201" NumberOfPolys="2100">
			<Points>
				<DataArray type="Float32" NumberOfComponents="3" format="ascii">
 0 0 0 0.001 0 0 0.002 0 0 0.003 0 0 0.004 0 0 0.005 0 0 0.006 0 0 0.007 0 0 0.008 0 0 0.009 0 0 0.01 0 0 0.011 0 0 0.012 0 0 0.013 0 0 0.014 0 0 0.015 0 0 0.016 0 0 0.017 0 0 0.018 0 0 0.019 0 0 0.02 0 0 0.021 0 0 0.022 0 0 0.023 0 0 0.024 0 0 0.025 0 0 0.026 0 0 0.027 0 0 0.028 0 0 0.029 0 0 0.03 0 0 0.031 0 0 0.032 0 0 0.033 0 0 0.034 0 0 0.035 0 0 0.036 0 0 0.037 0 0 0.038 0 0 0.039 0 0 0.04 0 0 0.041 0 0 0.042 0 0 0.043 0 0 0.044 0 0 0.045 0 0 0.046 0 0 0.047 0 0 0.048 0 0 0.049 0 0 0.05 0 0 0.051 0 0 0.052 0 0 0.053 0 0 0.054 0 0 0.055 0 0 0.056 0 0 0.057 0 0 0.058 0 0 0.059 0 0 0.06 0 0 0.061 0 0 0.062 0 0 0.063 0 0 0.064 0 0 0.065 0 0 0.066 0 0 0.067 0 0 0.068 0 0 0.069 0 0 0.07 0 0 0 0.001 0 0.001 0.001 0 0.002 0.001 0 0.003 0.001 0 0.004 0.001 0 0.005 0.001 0 0.006 0.001 0 0.007 0.001 0 0.008 0.001 0 0.009 0.001 0 0.01 0.001 0 0.011 0.001 0 0.012 0.001 0 0.013 0.001 0 0.014 0.001 0 0.015 0.001 0 0.016 0.001 0 0.017 0.001 0 0.018 0.001 0 0.019 0.001 0 0.02 0.001 0 0.021 0.001 0 0.022 0.001 0 0.023 0.001 0 0.024 0.001 0 0.025 0.001 0 0.026 0.001 0 0.027 0.001 0 0.028 0.001 0 0.029 0.001 0 0.03 0.001 0 0.031 0.001 0 0.032 0.001 0 0.033 0.001 0 0.034 0.001 0 0.035 0.001 0 0.036 0.001 0 0.037 0.001 0 0.038 0.001 0 0.039 0.001 0 0.04 0.001 0 0.041 0.001 0 0.042 0.001 0 0.043 0.001 0 0.044 0.001 0 0.045 0.001 0 0.046 0.001 0 0.047 0.001 0 0.048 0.001 0 0.049 0.001 0 0.05 0.001 0 0.051 0.001 0 0.052 0.001 0 0.053 0.001 0 0.054 0.001 0 0.055 0.001 0 0.056 0.001 0 0.057 0.001 0 0.058 0.001 0 0.059 0.001 0 0.06 0.001 0 0.061 0.001 0 0.062 0.001 0 0.063 0.001 0 0.064 0.001 0 0.065 0.001 0 0.066 0.001 0 0.067 0.001 0 0.068 0.001 0 0.069 0.001 0 0.07 0.001 0 0 0.002 0 0.001 0.002 0 0.002 0.002 0 0.003 0.002 0 0.004 0.002 0 0.005 0.002 0 0.006 0.002 0 0.007 0.002 0 0.008 0.002 0 0.009 0.002 0 0.01 0.002 0 0.011 0.002 0 0.012 0.002 0 0.013 0.002 0 0.014 0.002 0 0.015 0.002 0 0.016 0.002 0 0.017 0.002 0 0.018 0.002 0 0.019 0.002 0 0.02 0.002 0 0.021 0.002 0 0.022 0.002 0 0.023 0.002 0 0.024 0.002 0 0.025 0.002 0 0.026 0.002 0 0.027 0.002 0 0.028 0.002 0 0.029 0.002 0 0.03 0.002 0 0.031 0.002 0 0.032 0.002 0 0.033 0.002 0 0.034 0.002 0 0.035 0.002 0 0.036 0.002 0 0.037 0.002 0 0.038 0.002 0 0.039 0.002 0 0.04 0.002 0 0.041 0.002 0 0.042 0.002 0 0.043 0.002 0 0.044 0.002 0 0.045 0.002 0 0.046 0.002 0 0.047 0.002 0 0.048 0.002 0 0.049 0.002 0 0.05 0.002 0 0.051 0.002 0 0.052 0.002 0 0.053 0.002 0 0.054 0.002 0 0.055 0.002 0 0.056 0.002 0 0.057 0.002 0 0.058 0.002 0 0.059 0.002 0 0.06 0.002 0 0.061 0.002 0 0.062 0.002 0 0.063 0.002 0 0.064 0.002 0 0.065 0.002 0 0.066 0.002 0 0.067 0.002 0 0.068 0.002 0 0.069 0.002 0 0.07 0.002 0 0 0.003 0 0.001 0.003 0 0.002 0.003 0 0.003 0.003 0 0.004 0.003 0 0.005 0.003 0 0.006 0.003 0 0.007 0.003 0 0.008 0.003 0 0.009 0.003 0 0.01 0.003 0 0.011 0.003 0 0.012 0.003 0 0.013 0.003 0 0.014 0.003 0 0.015 0.003 0 0.016 0.003 0 0.017 0.003 0 0.018 0.003 0 0.019 0.003 0 0.02 0.003 0 0.021 0.003 0 0.022 0.003 0 0.023 0.003 0 0.024 0.003 0 0.025 0.003 0 0.026 0.003 0 0.027 0.003 0 0.028 0.003 0 0.029 0.003 0 0.03 0.003 0 0.031 0.003 0 0.032 0.003 0 0.033 0.003 0 0.034 0.003 0 0.035 0.003 0 0.036 0.003 0 0.037 0.003 0 0.038 0.003 0 0.039 0.003 0 0.04 0.003 0 0.041 0.003 0 0.042 0.003 0 0.043 0.003 0 0.044 0.003 0 0.045 0.003 0 0.046 0.003 0 0.047 0.003 0 0.048 0.003 0 0.049 0.003 0 0.05 0.003 0 0.051 0.003 0 0.052 0.003 0 0.053 0.003 0 0.054 0.003 0 0.055 0.003 0 0.056 0.003 0 0.057 0.003 0 0.058 0.003 0 0.059 0.003 0 0.06 0.003 0 0.061 0.003 0 0.062 0.003 0 0.063 0.003 0 0.064 0.003 0 0.065 0.003 0 0.066 0.003 0 0.067 0.003 0 0.068 0.003 0 0.069 0.003 0 0.07 0.003 0 0 0.004 0 0.001 0.004 0 0.002 0.004 0 0.003 0.004 0 0.004 0.004 0 0.005 0.004 0 0.006 0.004 0 0.007 0.004 0 0.008 0.004 0 0.009 0.004 0 0.01 0.004 0 0.011 0.004 0 0.012 0.004 0 0.013 0.004 0 0.014 0.004 0 0.015 0.004 0 0.016 0.004 0 0.017 0.004 0 0.018 0.004 0 0.019 0.004 0 0.02 0.004 0 0.021 0.004 0 0.022 0.004 0 0.023 0.004 0 0.024 0.004 0 0.025 0.004 0 0.026 0.004 0 0.027 0.004 0 0.028 0.004 0 0.029 0.004 0 0.03 0.004 0 0.031 0.004 0 0.032 0.004 0 0.033 0.004 0 0.034 0.004 0 0.035 0.004 0 0.036 0.004 0 0.037 0.004 0 0.038 0.004 0 0.039 0.004 0 0.04 0.004 0 0.041 0.004 0 0.042 0.004 0 0.043 0.004 0 0.044 0.004 0 0.045 0.004 0 0.046 0.004 0 0.047 0.004 0 0.048 0.004 0 0.049 0.004 0 0.05 0.004 0 0.051 0.004 0 0.052 0.004 0 0.053 0.004 0 0.054 0.004 0 0.055 0.004 0 0.056 0.004 0 0.057 0.004 0 0.058 0.004 0 0.059 0.004 0 0.06 0.004 0 0.061 0.004 0 0.062 0.004 0 0.063 0.004 0 0.064 0.004 0 0.065 0.004 0 0.066 0.004 0 0.067 0.004 0 0.068 0.004 0 0.069 0.004 0 0.07 0.004 0 0 0.005 0 0.001 0.005 0 0.002 0.005 0 0.003 0.005 0 0.004 0.005 0 0.005 0.005 0 0.006 0.005 0 0.007 0.005 0 0.008 0.005 0 0.009 0.005 0 0.01 0.005 0 0.011 0.005 0 0.012 0.005 0 0.013 0.005 0 0.014 0.005 0 0.015 0.005 0 0.016 0.005 0 0.017 0.005 0 0.018 0.005 0 0.019 0.005 0 0.02 0.005 0 0.021 0.005 0 0.022 0.005 0 0.023 0.005 0 0.024 0.005 0 0.025 0.005 0 0.026 0.005 0 0.027 0.005 0 0.028 0.005 0 0.029 0.005 0 0.03 0.005 0 0.031 0.005 0 0.032 0.005 0 0.033 0.005 0 0.034 0.005 0 0.035 0.005 0 0.036 0.005 0 0.037 0.005 0 0.038 0.005 0 0.039 0.005 0 0.04 0.005 0 0.041 0.005 0 0.042 0.005 0 0.043 0.005 0 0.044 0.005 0 0.045 0.005 0 0.046 0.005 0 0.047 0.005 0 0.048 0.005 0 0.049 0.005 0 0.05 0.005 0 0.051 0.005 0 0.052 0.005 0 0.053 0.005 0 0.054 0.005 0 0.055 0.005 0 0.056 0.005 0 0.057 0.005 0 0.058 0.005 0 0.059 0.005 0 0.06 0.005 0 0.061 0.005 0 0.062 0.005 0 0.063 0.005 0 0.064 0.005 0 0.065 0.005 0 0.066 0.005 0 0.067 0.005 0 0.068 0.005 0 0.069 0.005 0 0.07 0.005 0 0 0.006 0 0.001 0.006 0 0.002 0.006 0 0.003 0.006 0 0.004 0.006 0 0.005 0.006 0 0.006 0.006 0 0.007 0.006 0 0.008 0.006 0 0.009 0.006 0 0.01 0.006 0 0.011 0.006 0 0.012 0.006 0 0.013 0.006 0 0.014 0.006 0 0.015 0.006 0 0.016 0.006 0 0.017 0.006 0 0.018 0.006 0 0.019 0.006 0 0.02 0.006 0 0.021 0.006 0 0.022 0.006 0 0.023 0.006 0 0.024 0.006 0 0.025 0.006 0 0.026 0.006 0 0.027 0.006 0 0.028 0.006 0 0.029 0.006 0 0.03 0.006 0 0.031 0.006 0 0.032 0.006 0 0.033 0.006 0 0.034 0.006 0 0.035 0.006 0 0.036 0.006 0 0.037 0.006 0 0.038 0.006 0 0.039 0.006 0 0.04 0.006 0 0.041 0.006 0 0.042 0.006 0 0.043 0.006 0 0.044 0.006 0 0.045 0.006 0 0.046 0.006 0 0.047 0.006 0 0.048 0.006 0 0.049 0.006 0 0.05 0.006 0 0.051 0.006 0 0.052 0.006 0 0.053 0.006 0 0.054 0.006 0 0.055 0.006 0 0.056 0.006 0 0.057 0.006 0 0.058 0.006 0 0.059 0.006 0 0.06 0.006 0 0.061 0.006 0 0.062 0.006 0 0.063 0.006 0 0.064 0.006 0 0.065 0.006 0 0.066 0.006 0 0.067 0.006 0 0.068 0.006 0 0.069 0.006 0 0.07 0.006 0 0 0.007 0 0.001 0.007 0 0.002 0.007 0 0.003 0.007 0 0.004 0.007 0 0.005 0.007 0 0.006 0.007 0 0.007 0.007 0 0.008 0.007 0 0.009 0.007 0 0.01 0.007 0 0.011 0.007 0 0.012 0.007 0 0.013 0.007 0 0.014 0.007 0 0.015 0.007 0 0.016 0.007 0 0.017 0.007 0 0.018 0.007 0 0.019 0.007 0 0.02 0.007 0 0.021 0.007 0 0.022 0.007 0 0.023 0.007 0 0.024 0.007 0 0.025 0.007 0 0.026 0.007 0 0.027 0.007 0 0.028 0.007 0 0.029 0.007 0 0.03 0.007 0 0.031 0.007 0 0.032 0.007 0 0.033 0.007 0 0.034 0.007 0 0.035 0.007 0 0.036 0.007 0 0.037 0.007 0 0.038 0.007 0 0.039 0.007 0 0.04 0.007 0 0.041 0.007 0 0.042 0.007 0 0.043 0.007 0 0.044 0.007 0 0.045 0.007 0 0.046 0.007 0 0.047 0.007 0 0.048 0.007 0 0.049 0.007 0 0.05 0.007 0 0.051 0.007 0 0.052 0.007 0 0.053 0.007 0 0.054 0.007 0 0.055 0.007 0 0.056 0.007 0 0.057 0.007 0 0.058 0.007 0 0.059 0.007 0 0.06 0.007 0 0.061 0.007 0 0.062 0.007 0 0.063 0.007 0 0.064 0.007 0 0.065 0.007 0 0.066 0.007 0 0.067 0.007 0 0.068 0.007 0 0.069 0.007 0 0.07 0.007 0 0 0.008 0 0.001 0.008 0 0.002 0.008 0 0.003 0.008 0 0.004 0.008 0 0.005 0.008 0 0.006 0.008 0 0.007 0.008 0 0.008 0.008 0 0.009 0.008 0 0.01 0.008 0 0.011 0.008 0 0.012 0.008 0 0.013 0.008 0 0.014 0.008 0 0.015 0.008 0 0.016 0.008 0 0.017 0.008 0 0.018 0.008 0 0.019 0.008 0 0.02 0.008 0 0.021 0.008 0 0.022 0.008 0 0.023 0.008 0 0.024 0.008 0 0.025 0.008 0 0.026 0.008 0 0.027 0.008 0 0.028 0.008 0 0.029 0.008 0 0.03 0.008 0 0.031 0.008 0 0.032 0.008 0 0.033 0.008 0 0.034 0.008 0 0.035 0.008 0 0.036 0.008 0 0.037 0.008 0 0.038 0.008 0 0.039 0.008 0 0.04 0.008 0 0.041 0.008 0 0.042 0.008 0 0.043 0.008 0 0.044 0.008 0 0.045 0.008 0 0.046 0.008 0 0.047 0.008 0 0.048 0.008 0 0.049 0.008 0 0.05 0.008 0 0.051 0.008 0 0.052 0.008 0 0.053 0.008 0 0.054 0.008 0 0.055 0.008 0 0.056 0.008 0 0.057 0.008 0 0.058 0.008 0 0.059 0.008 0 0.06 0.008 0 0.061 0.008 0 0.062 0.008 0 0.063 0.008 0 0.064 0.008 0 0.065 0.008 0 0.066 0.008 0 0.067 0.008 0 0.068 0.008 0 0.069 0.008 0 0.07 0.008 0 0 0.009 0 0.001 0.009 0 0.002 0.009 0 0.003 0.009 0 0.004 0.009 0 0.005 0.009 0 0.006 0.009 0 0.007 0.009 0 0.008 0.009 0 0.009 0.009 0 0.01 0.009 0 0.011 0.009 0 0.012 0.009 0 0.013 0.009 0 0.014 0.009 0 0.015 0.009 0 0.016 0.009 0 0.017 0.009 0 0.018 0.009 0 0.019 0.009 0 0.02 0.009 0 0.021 0.009 0 0.022 0.009 0 0.023 0.009 0 0.024 0.009 0 0.025 0.009 0 0.026 0.009 0 0.027 0.009 0 0.028 0.009 0 0.029 0.009 0 0.03 0.009 0 0.031 0.009 0 0.032 0.009 0 0.033 0.009 0 0.034 0.009 0 0.035 0.009 0 0.036 0.009 0 0.037 0.009 0 0.038 0.009 0 0.039 0.009 0 0.04 0.009 0 0.041 0.009 0 0.042 0.009 0 0.043 0.009 0 0.044 0.009 0 0.045 0.009 0 0.046 0.009 0 0.047 0.009 0 0.048 0.009 0 0.049 0.009 0 0.05 0.009 0 0.051 0.009 0 0.052 0.009 0 0.053 0.009 0 0.054 0.009 0 0.055 0.009 0 0.056 0.009 0 0.057 0.009 0 0.058 0.009 0 0.059 0.009 0 0.06 0.009 0 0.061 0.009 0 0.062 0.009 0 0.063 0.009 0 0.064 0.009 0 0.065 0.009 0 0.066 0.009 0 0.067 0.009 0 0.068 0.009 0 0.069 0.009 0 0.07 0.009 0 0 0.01 0 0.001 0.01 0 0.002 0.01 0 0.003 0.01 0 0.004 0.01 0 0.005 0.01 0 0.006 0.01 0 0.007 0.01 0 0.008 0.01 0 0.009 0.01 0 0.01 0.01 0 0.011 0.01 0 0.012 0.01 0 0.013 0.01 0 0.014 0.01 0 0.015 0.01 0 0.016 0.01 0 0.017 0.01 0 0.018 0.01 0 0.019 0.01 0 0.02
[...]
			<CellData Scalars="Density">
				<DataArray Name="Density" type="Float32" format="ascii">
 0.298886 0.299679 0.300923 0.301948 0.303493 0.305305 0.307447 0.309939 0.31277 0.315916 0.319388 0.323191 0.327303 0.331693 0.336325 0.341148 0.346142 0.35136 0.356755 0.362576 0.36897 0.375344 0.382571 0.391297 0.947121 1.67471 2.1851 2.33002 2.46903 2.59588 2.69142 2.71353 2.64845 2.46744 2.1462 1.69363 1.22855 1.04141 1.00736 1.00172 1.00055 1.00027 1.00015 1.00008 1.00004 1.00002 1.00001 1.00001 1 1 1 1 1 1 1 1 1 1 1 1 1 1 1 1 1 1 1 1 1 1 0.297682 0.298462 0.299523 0.300533 0.301929 0.303592 0.305643 0.307999 0.310713 0.313722 0.317075 0.320717 0.324703 0.328907 0.333383 0.338027 0.342909 0.347971 0.35322 0.358982 0.365093 0.371965 0.379771 0.397766 1.04129 1.74418 2.2108 2.36959 2.51372 2.64547 2.7545 2.79234 2.74384 2.57265 2.24407 1.77251 1.29684 1.06462 1.01465 1.00433 1.00186 1.001 1.00054 1.00029 1.00016 1.00008 1.00005 1.00002 1.00001 1.00001 1 1 1 1 1 1 1 1 1 1 1 1 1 1 1 1 1 1 1 1 0.297425 0.298201 0.299346 0.300617 0.302109 0.3039 0.305989 0.308403 0.31115 0.31421 0.317578 0.321212 0.325131 0.329278 0.333643 0.338234 0.343011 0.347955 0.352975 0.358704 0.364532 0.370767 0.378072 0.409616 1.0617 1.7721 2.22732 2.39846 2.554 2.69426 2.81278 2.87613 2.84266 2.69019 2.38946 1.9379 1.44489 1.12197 1.03596 1.01455 1.00756 1.00418 1.00231 1.00129 1.0007 1.00039 1.00021 1.00011 1.00006 1.00003 1.00002 1.00001 1 1 1 1 1 1 1 1 1 1 1 1 1 1 1 1 1 1 0.297049 0.297778 0.298911 0.300024 0.301488 0.30313 0.305111 0.307386 0.310023 0.312997 0.316269 0.319893 0.32368 0.327819 0.33213 0.336595 0.34117 0.3458 0.350772 0.356113 0.361875 0.367991 0.375028 0.443347 1.10124 1.81198 2.22819 2.41266 2.58335 2.73505 2.85858 2.93204 2.91284 2.79023 2.53856 2.13241 1.65502 1.25567 1.10719 1.05294 1.03135 1.01785 1.01021 1.00576 1.0032 1.00179 1.00096 1.00052 1.00028 1.00014 1.00007 1.00004 1.00002 1.00001 1 1 1 1 1 1 1 1 1 1 1 1 1 1 1 1 0.296546 0.297267 0.298305 0.299504 0.300883 0.302658 0.30469 0.307062 0.309786 0.312764 0.315942 0.319387 0.323049 0.326888 0.330989 0.335113 0.33938 0.343864 0.348516 0.353619 0.359235 0.364827 0.371237 0.50104 1.16452 1.86384 2.2106 2.39533 2.57263 2.73513 2.86185 2.95117 2.96499 2.88666 2.6793 2.30977 1.8714 1.47477 1.28128 1.18503 1.12337 1.07432 1.04423 1.02544 1.01432 1.00803 1.00437 1.00242 1.00132 1.00068 1.00036 1.00019 1.00009 1.00005 1.00002 1.00001 1.00001 1 1 1 1 1 1 1 1 1 1 1 1 1 0.295941 0.29643 0.297646 0.298767 0.300209 0.301818 0.303723 0.306075 0.30866 0.311511 0.314669 0.317981 0.321595 0.325358 0.329283 0.333358 0.337497 0.341492 0.345901 0.350872 0.355709 0.361034 0.366937 0.585405 1.2517 1.90858 2.17105 2.34492 2.51787 2.68179 2.81241 2.92756 2.95538 2.90672 2.73624 2.40608 2.01249 1.68126 1.49592 1.39745 1.32515 1.24428 1.16798 1.10421 1.06167 1.03552 1.01982 1.01107 1.00599 1.00318 1.00174 1.00091 1.00045 1.00024 1.00012 1.00006 1.00003 1.00001 1.00001 1 1 1 1 1 1 1 1 1 1 1 0.295126 0.295622 0.296762 0.29797 0.299271 0.30083 0.302856 0.305092 0.307553 0.310399 0.313391 0.316704 0.320185 0.323802 0.327693 0.331568 0.335275 0.339239 0.343337 0.347225 0.351828 0.356993 0.362118 0.668732 1.34 1.9277 2.1235 2.29059 2.45743 2.61881 2.7562 2.88826 2.89189 2.8211 2.64791 2.36861 2.04819 1.8079 1.67542 1.5964 1.53873 1.46667 1.38926 1.30533 1.22005 1.14255 1.08478 1.04888 1.02718 1.01489 1.00817 1.00424 1.0022 1.00117 1.00059 1.00028 1.00014 1.00007 1.00003 1.00001 1.00001 1 1 1 1 1 1 1 1 1 0.29418 0.294504 0.295802 0.296857 0.298157 0.299908 0.301779 0.303869 0.306447 0.309105 0.312105 0.315334 0.318631 0.322257 0.325847 0.329443 0.333217 0.336726 0.339904 0.343612 0.347689 0.351881 0.356911 0.753922 1.43126 1.92411 2.07692 2.22767 2.37864 2.53294 2.67172 2.79384 2.76605 2.66234 2.46577 2.22314 1.99343 1.84541 1.7747 1.733 1.70481 1.65996 1.60249 1.53299 1.45445 1.36813 1.27716 1.18869 1.11487 1.06638 1.03717 1.01971 1.01063 1.00567 1.00282 1.00139 1.00072 1.00035 1.00016 1.00007 1.00003 1.00001 1.00001 1 1 1 1 1 1 1 0.292997 0.293324 0.294592 0.29566 0.29711 0.298664 0.300446 0.30279 0.305119 0.307802 0.310787 0.313769 0.317132 0.320455 0.323877 0.327517 0.330728 0.333772 0.336764 0.339564 0.342702 0.346534 0.351697 0.833536 1.51543 1.88551 2.01608 2.15049 2.28516 2.4234 2.53675 2.61328 2.55439 2.43435 2.24169 2.0426 1.89786 1.82587 1.80234 1.79135 1.78809 1.77623 1.75181 1.714 1.66121 1.59479 1.51808 1.43201 1.33762 1.24134 1.15266 1.08769 1.04923 1.0262 1.01343 1.00697 1.00359 1.00176 1.00084 1.00038 1.00018 1.00008 1.00003 1.00001 1.00001 1 1 1 1 1 0.291676 0.291843 0.293243 0.29427 0.295662 0.297206 0.299323 0.30132 0.303694 0.306486 0.309133 0.312259 0.315383 0.318576 0.322015 0.325048 0.328124 0.33102 0.333307 0.335493 0.337969 0.340752 0.345646 0.894894 1.56043 1.83459 1.94849 2.0635 2.17548 2.27126 2.33013 2.34049 2.25894 2.13298 1.96604 1.84217 1.78218 1.76344 1.77797 1.79462 1.80939 1.81852 1.81744 1.80969 1.79126 1.75942 1.71443 1.65432 1.57998 1.49554 1.40022 1.29781 1.19733 1.11452 1.0632 1.03383 1.01739 1.00867 1.00428 1.00201 1.00097 1.00044 1.00019 1.00008 1.00003 1.00001 1 1 1 1 0.290101 0.290268 0.291578 0.292838 0.294142 0.295944 0.297659 0.299772 0.302398 0.304762 0.30764 0.310627 0.313575 0.316841 0.319738 0.322769 0.325724 0.327996 0.329987 0.331578 0.333027 0.335094 0.339726 0.930158 1.57162 1.78045 1.87378 1.96493 2.03792 2.07296 2.07398 1.98992 1.64253 1.34224 1.18885 1.15215 1.19788 1.28149 1.38296 1.4841 1.5896 1.6933 1.77289 1.81968 1.83938 1.83454 1.82246 1.79896 1.76027 1.70708 1.63907 1.55754 1.46296 1.35466 1.24511 1.14671 1.08021 1.04201 1.02132 1.01035 1.00511 1.00234 1.00105 1.00047 1.00016 1.00006 1.00003 1.00001 1 1 0.288389 0.288389 0.289948 0.29111 0.29246 0.294062 0.29599 0.298444 0.300571 0.303199 0.306103 0.308789 0.311933 0.314785 0.317714 0.32066 0.323008 0.325176 0.326793 0.327915 0.328701 0.329638 0.333235 0.936213 1.55762 1.71742 1.79336 1.85211 1.87721 1.87104 1.64509 1.20281 0.788763 0.467097 0.341444 0.329886 0.373962 0.441148 0.514867 0.601796 0.719798 0.868672 1.0423 1.176 1.31443 1.45488 1.58304 1.69236 1.77422 1.80981 1.79889 1.75587 1.69662 1.61823 1.52242 1.41725 1.29355 1.18077 1.0989 1.05092 1.02601 1.01243 1.00586 1.00247 1.00096 1.00039 1.00016 1.00005 1.00001 1.00001 0.286475 0.286394 0.288023 0.289087 0.290613 0.292331 0.29454 0.296467 0.298879 0.301725 0.304197 0.307189 0.31007 0.312911 0.315862 0.318267 0.320647 0.32254 0.323893 0.32462 0.324767 0.324363 0.327078 0.908488 1.50969 1.65055 1.70813 1.72562 1.73658 1.49986 1.06978 0.587806 0.197927 0.154637 0.157909 0.157697 0.159245 0.160815 0.164233 0.168423 0.171979 0.175372 0.182032 0.267532 0.37015 0.489602 0.623283 0.774589 0.952791 1.14685 1.2848 1.42174 1.54895 1.63738 1.68097 1.67161 1.59035 1.47674 1.35121 1.22257 1.12309 1.06378 1.03107 1.01329 1.00562 1.0024 1.00087 1.00024 1.00008 1.00003 0.284356 0.284252 0.285825 0.287089 0.288728 0.290523 0.292385 0.29464 0.297411 0.299757 0.302573 0.305514 0.308249 0.311248 0.313806 0.31632 0.318494 0.320131 0.321265 0.321614 0.321415 0.319969 0.321826 0.741495 1.39398 1.58689 1.62677 1.61632 1.54942 1.12081 0.662674 0.220313 0.152254 0.173297 0.190626 0.20787 0.219892 0.216895 0.192333 0.174377 0.170744 0.174112 0.17687 0.179162 0.181037 0.182575 0.184035 0.185597 0.187559 0.202494 0.301992 0.423754 0.572875 0.728921 0.896932 1.08998 1.26746 1.35143 1.39502 1.39339 1.34443 1.24848 1.14318 1.07066 1.03345 1.0139 1.00446 1.00166 1.0005 1.00018 0.282084 0.281878 0.283608 0.285062 0.286557 0.288365 0.290445 0.293093 0.295361 0.298019 0.301017 0.303655 0.306677 0.309444 0.312111 0.314611 0.316526 0.318163 0.319077 0.319176 0.318785 0.316825 0.317039 0.627021 1.20032 1.5253 1.55184 1.53813 1.21692 0.819701 0.38433 0.150833 0.149066 0.175261 0.213232 0.266826 0.299436 0.30301 0.307923 0.266974 0.213464 0.176011 0.176134 0.178747 0.180818 0.182657 0.184318 0.185806 0.187073 0.187876 0.188524 0.188693 0.189005 0.189517 0.190705 0.192952 0.248691 0.381986 0.506996 0.627545 0.759552 0.874636 0.954996 1.00956 1.02367 1.01459 1.01063 1.00412 1.00121 1.00042 0.279706 0.279455 0.281381 0.282684 0.284267 0.286297 0.288691 0.290976 0.29349 0.296513 0.29915 0.302125 0.305098 0.307852 0.31064 0.312945 0.315023 0.316522 0.31736 0.317273 0.316756 0.314966 0.313476 0.40662 1.16405 1.47144 1.48548 1.46757 1.14934 0.779993 0.370378 0.149392 0.150063 0.234847 0.335061 0.361466 0.320915 0.302541 0.310071 0.31736 0.308364 0.2223 0.176046 0.177775 0.179807 0.181817 0.183653 0.185152 0.186438 0.187393 0.188149 0.188636 0.189156 0.189724 0.190266 0.190246 0.190408 0.189194 0.188298 0.186726 0.183151 0.176534 0.166534 0.153657 0.137377 0.120904 0.10905 0.102772 0.100831 0.100288 0.277229 0.277079 0.278893 0.280222 0.282178 0.284321 0.286604 0.288958 0.291964 0.294641 0.297564 0.300692 0.303518 0.306521 0.309227 0.311723 0.313829 0.315297 0.316225 0.316177 0.315449 0.314084 0.312302 0.310132 0.597001 1.34211 1.43113 1.41305 1.22885 0.945819 0.692444 0.593448 0.602915 0.590049 0.528497 0.42906 0.322189 0.307722 0.312276 0.318288 0.32487 0.255267 0.186982 0.178369 0.180095 0.181849 0.183488 0.184935 0.18625 0.187309 0.18825 0.189049 0.189753 0.190314 0.19063 0.190703 0.190557 0.189891 0.188618 0.18653 0.183401 0.17813 0.170069 0.158507 0.144102 0.128422 0.113551 0.104582 0.101387 0.100453 0.27477 0.274573 0.276492 0.278129 0.280048 0.282208 0.284456 0.287366 0.290103 0.292973 0.296201 0.299151 0.302271 0.305301 0.308092 0.310717 0.312854 0.31458 0.315574 0.315761 0.31514 0.313821 0.31219 0.310636 0.308611 0.569384 0.99668 1.35978 1.31784 1.22483 1.04599 0.889563 0.732114 0.572412 0.402123 0.302528 0.306158 0.311059 0.315449 0.320185 0.326051 0.256441 0.18737 0.177976 0.179709 0.181433 0.183083 0.184594 0.185921 0.187031 0.187989 0.188773 0.189385 0.189894 0.190078 0.190071 0.189823 0.189123 0.187858 0.185506 0.182052 0.177361 0.170704 0.161518 0.149662 0.134746 0.118935 0.107047 0.102142 0.100685 0.272454 0.272283 0.274342 0.275954 0.277918 0.280135 0.282811 0.285629 0.288364 0.291644 0.294706 0.297903 0.301139 0.304164 0.307121 0.309781 0.312084 0.313983 0.315306 0.316018 0.316168 0.315689 0.314465 0.312819 0.310788 0.309151 0.415633 0.608834 0.816273 0.814731 0.773454 0.623136 0.479392 0.342953 0.30602 0.308569 0.31131 0.314851 0.318904 0.322917 0.327522 0.252546 0.185369 0.178206 0.179851 0.181478 0.183024 0.184444 0.185688 0.186761 0.187669 0.188404 0.188977 0.189427 0.189569 0.189469 0.189086 0.188297 0.187138 0.185333 0.182719 0.179125 0.173532 0.165349 0.154395 0.139911 0.123798 0.109644 0.103006 0.100928 0.270301 0.270198 0.272197 0.273875 0.27599 0.278429 0.281172 0.283795 0.287034 0.290211 0.293429 0.296812 0.300008 0.303202 0.306241 0.309147 0.311824 0.314184 0.316161 0.317521 0.318209 0.318364 0.317615 0.31639 0.314698 0.313164 0.311343 0.31133 0.334053 0.354791 0.351431 0.326976 0.310119 0.310016 0.31132 0.313185 0.315407 0.318471 0.321958 0.32549 0.326694 0.24887 0.183632 0.178199 0.179765 0.181344 0.182842 0.184217 0.185445 0.186506 0.187367 0.188073 0.188637 0.189001 0.189066 0.188918 0.188477 0.187664 0.186416 0.184621 0.18225 0.178891 0.173944 0.166952 0.157161 0.143681 0.127753 0.1125 0.103895 0.101167 0.268418 0.268385 0.270359 0.272157 0.274366 0.276914 0.279428 0.282518 0.285732 0.288926 0.292383 0.295777 0.299193 0.30268 0.306126 0.309551 0.312729 0.315535 0.317823 0.319669 0.320931 0.321722 0.321761 0.32105 0.319743 0.318631 0.317061 0.317005 0.316918 0.316695 0.316182 0.315044 0.314871 0.315259 0.316123 0.317649 0.319359 0.321851 0.324692 0.327805 0.322185 0.242226 0.181151 0.178438 0.179882 0.181357 0.182783 0.184105 0.185283 0.186291 0.187115 0.187784 0.188299 0.188605 0.188635 0.188419 0.187944 0.18721 0.186174 0.18466 0.182648 0.179906 0.175875 0.169719 0.16057 0.14761 0.13131 0.115055 0.104745 0.1014 0.266838 0.266857 0.268783 0.270715 0.272978 0.275308 0.278166 0.281274 0.284385 0.287817 0.291396 0.295141 0.298966 0.302862 0.306771 0.310663 0.314213 0.317347 0.320109 0.32241 0.324208 0.325463 0.326168 0.326148 0.325298 0.324484 0.323221 0.322755 0.321999 0.321312 0.320688 0.319863 0.319622 0.319973 0.320507 0.321496 0.322898 0.324828 0.327257 0.330035 0.314456 0.232486 0.178636 0.178604 0.179966 0.181371 0.182741 0.184015 0.185141 0.18611 0.186912 0.187541 0.188022 0.188283 0.188283 0.188051 0.187563 0.186834 0.185853 0.184482 0.18265 0.180153 0.17645 0.170824 0.16236 0.150262 0.134164 0.117526 0.105665 0.101639 0.265588 0.265706 0.267641 0.269552 0.271669 0.274209 0.277139 0.280168 0.283668 0.287468 0.291602 0.295974 0.300347 0.30463 0.308604 0.312435 0.316067 0.319456 0.32252 0.325276 0.327528 0.329313 0.330471 0.331006 0.33075 0.330164 0.329174 0.32846 0.327298 0.326305 0.325372 0.32443 0.323872 0.323904 0.324305 0.324831 0.325851 0.327394 0.329357 0.331939 0.304247 0.220806 0.17763 0.178842 0.180111 0.181426 0.182719 0.183932 0.185015 0.185955 0.18673 0.187319 0.187773 0.187973 0.187963 0.187762 0.187347 0.186699 0.185791 0.184612 0.183069 0.180945 0.177731 0.172737 0.164807 0.153124 0.136954 0.119882 0.106568 0.101874 0.264628 0.264779 0.266668 0.268472 0.27063 0.273263 0.276214 0.279663 0.283466 0.28756 0.291916 0.296391 0.300957 0.305574 0.31001 0.314278 0.318172 0.321849 0.325186 0.328125 0.330675 0.332755 0.334385 0.335357 0.335531 0.335134 0.334254 0.333382 0.332031 0.330856 0.329615 0.328513 0.327661 0.327324 0.32746 0.327875 0.328508 0.329732 0.331356 0.333488 0.292124 0.209256 0.177929 0.179079 0.180282 0.181523 0.182746 0.183912 0.184968 0.18587 0.186593 0.187135 0.187547 0.187712 0.187695 0.187489 0.187081 0.18647 0.185646 0.184604 0.183183 0.181149 0.178095 0.173405 0.16599 0.154928 0.139091 0.121835 0.107446 0.102087 0.263998 0.264116 0.265977 0.267867 0.270335 0.273274 0.276916 0.2809 0.285052 0.289334 0.293659 0.298107 0.30267 0.307246 0.311705 0.316017 0.320116 0.323997 0.327663 0.330908 0.333616 0.335846 0.337551 0.338881 0.339459 0.339301 0.338508 0.337574 0.336201 0.334936 0.333475 0.332256 0.331115 0.330433 0.330242 0.330347 0.330818 0.331722 0.333101 0.334914 0.277587 0.198733 0.178226 0.179318 0.180466 0.181643 0.182806 0.183911 0.18491 0.185764 0.186476 0.187022 0.187386 0.187518 0.187466 0.187253 0.18688 0.186333 0.185527 0.184457 0.183106 0.181347 0.178759 0.174511 0.167526 0.156727 0.140957 0.123465 0.108253 0.102287 0.263762 0.263783 0.265557 0.267566 0.270004 0.272968 0.276396 0.280149 0.284288 0.288709 0.293346 0.298155 0.303119 0.308188 0.31321 0.317846 0.322177 0.326264 0.329902 0.333283 0.336203 0.338556 0.340343 0.341671 0.342454 0.34255 0.341966 0.340978 0.339621 0.338273 0.33668 0.335337 0.333998 0.332991 0.332607 0.332447 0.33265 0.333421 0.334519 0.336047 0.263361 0.191712 0.178492 0.179542 0.180664 0.181803 0.182916 0.18397 0.184937 0.185771 0.186435 0.186926 0.187246 0.187373 0.187312 0.187041 0.186578 0.185996 0.185282 0.184402 0.183295 0.181697 0.179207 0.175026 0.168367 0.157963 0.142571 0.125002 0.109056 0.102458 0.263605 0.263758 0.266086 0.268531 0.271196 0.274137 0.277427 0.281175 0.285373 0.289952 0.294812 0.299794 0.304898 0.310098 0.315191 0.319885 0.324186 0.328243 0.332006 0.335331 0.338347 0.340794 0.342581 0.343915 0.344708 0.345008 0.344601 0.343576 0.342216 0.340766 0.339122 0.337645 0.336208 0.335005 0.334388 0.334101 0.334124 0.334743 0.33574 0.331528 0.254262 0.186843 0.178714 0.179725 0.18081 0.181921 0.183006 0.184019 0.184936 0.185728 0.186348 0.186802 0.187084 0.187186 0.187127 0.186935 0.186606 0.186122 0.185446 0.184545 0.18341 0.181789 0.179615 0.175884 0.169661 0.159424 0.144019 0.126113 0.109584 0.102566 0.263684 0.26369 0.265546 0.267629 0.270139 0.273101 0.276575 0.280518 0.284888 0.289591 0.294551 0.299687 0.304955 0.310286 0.315578 0.320739 0.325575 0.329937 0.333791 0.337164 0.340035 0.342526 0.344382 0.345677 0.346395 0.34669 0.346446 0.345507 0.344098 0.342555 0.340914 0.339332 0.337836 0.336529 0.335778 0.335347 0.335284 0.335764 0.336638 0.327942 0.249623 0.184726 0.178918 0.179904 0.180952 0.182021 0.183069 0.184054 0.184935 0.185682 0.186276 0.186722 0.187006 0.187138 0.187127 0.186961 0.186621 0.186113 0.185443 0.184607 0.183649 0.182212 0.18013 0.17625 0.169911 0.159698 0.144557 0.126784 0.110013 0.102652 0.263702 0.264111 0.26638 0.268702 0.271515 0.274791 0.278488 0.282608 0.287107 0.291911 0.296961 0.302177 0.307491 0.312808 0.318022 0.323041 0.327747 0.332094 0.335942 0.339275 0.34206 0.344294 0.346043 0.347173 0.347839 0.347907 0.347558 0.346725 0.345385 0.343774 0.342083 0.340377 0.338821 0.337463 0.336606 0.336096 0.335996 0.336446 0.337299 0.323436 0.244098 0.182564 0.178999 0.179965 0.181008 0.182079 0.183124 0.184105 0.184986 0.185734 0.186321 0.186747 0.187012 0.187103 0.187026 0.186787 0.186393 0.185881 0.18524 0.184432 0.183457 0.182006 0.179983 0.176306 0.170371 0.160559 0.145622 0.127579 0.110296 0.102676 0.262242 0.262269 0.264251 0.266402 0.268977 0.271968 0.275416 0.279301 0.283581 0.288201 0.293084 0.298157 0.303343 0.30857 0.313751 0.318799 0.323613 0.328108 0.33219 0.335787 0.338837 0.341357 0.343356 0.344814 0.345806 0.346133 0.345964 0.345496 0.344625 0.343414 0.342017 0.340511 0.3391 0.337867 0.337031 0.336534 0.336452 0.336874 0.337706 0.318301 0.238601 0.18095 0.179062 0.180008 0.18103 0.182083 0.183117 0.18409 0.184962 0.185702 0.186295 0.186736 0.187021 0.187151 0.187135 0.186975 0.186667 0.186208 0.185592 0.184831 0.183877 0.182447 0.180354 0.176734 0.170872 0.160962 0.145823 0.12759 0.110277 0.102679
				</DataArray>
				<DataArray Name="Energy" type="Float32" format="ascii">