<?xml version="1.0"?>
<VTKFile type="PolyData">
	<PolyData>
		<Piece NumberOfPoints="2201" NumberOfPolys="2100">
			<Points>
				<DataArray type="Float32" NumberOfComponents="3" format="ascii">
 0 0 0 0.001 0 0 0.002 0 0 0.003 0 0 0.004 0 0 0.005 0 0 0.006 0 0 0.007 0 0 0.008 0 0 0.009 0 0 0.01 0 0 0.011 0 0 0.012 0 0 0.013 0 0 0.014 0 0 0.015 0 0 0.016 0 0 0.017 0 0 0.018 0 0 0.019 0 0 0.02 0 0 0.021 0 0 0.022 0 0 0.023 0 0 0.024 0 0 0.025 0 0 0.026 0 0 0.027 0 0 0.028 0 0 0.029 0 0 0.03 0 0 0.031 0 0 0.032 0 0 0.033 0 0 0.034 0 0 0.035 0 0 0.036 0 0 0.037 0 0 0.038 0 0 0.039 0 0 0.04 0 0 0.041 0 0 0.042 0 0 0.043 0 0 0.044 0 0 0.045 0 0 0.046 0 0 0.047 0 0 0.048 0 0 0.049 0 0 0.05 0 0 0.051 0 0 0.052 0 0 0.053 0 0 0.054 0 0 0.055 0 0 0.056 0 0 0.057 0 0 0.058 0 0 0.059 0 0 0.06 0 0 0.061 0 0 0.062 0 0 0.063 0 0 0.064 0 0 0.065 0 0 0.066 0 0 0.067 0 0 0.068 0 0 0.069 0 0 0.07 0 0 0 0.001 0 0.001 0.001 0 0.002 0.001 0 0.003 0.001 0 0.004 0.001 0 0.005 0.001 0 0.006 0.001 0 0.007 0.001 0 0.008 0.001 0 0.009 0.001 0 0.01 0.001 0 0.011 0.001 0 0.012 0.001 0 0.013 0.001 0 0.014 0.001 0 0.015 0.001 0 0.016 0.001 0 0.017 0.001 0 0.018 0.001 0 0.019 0.001 0 0.02 0.001 0 0.021 0.001 0 0.022 0.001 0 0.023 0.001 0 0.024 0.001 0 0.025 0.001 0 0.026 0.001 0 0.027 0.001 0 0.028 0.001 0 0.029 0.001 0 0.03 0.001 0 0.031 0.001 0 0.032 0.001 0 0.033 0.001 0 0.034 0.001 0 0.035 0.001 0 0.036 0.001 0 0.037 0.001 0 0.038 0.001 0 0.039 0.001 0 0.04 0.001 0 0.041 0.001 0 0.042 0.001 0 0.043 0.001 0 0.044 0.001 0 0.045 0.001 0 0.046 0.001 0 0.047 0.001 0 0.048 0.001 0 0.049 0.001 0 0.05 0.001 0 0.051 0.001 0 0.052 0.001 0 0.053 0.001 0 0.054 0.001 0 0.055 0.001 0 0.056 0.001 0 0.057 0.001 0 0.058 0.001 0 0.059 0.001 0 0.06 0.001 0 0.061 0.001 0 0.062 0.001 0 0.063 0.001 0 0.064 0.001 0 0.065 0.001 0 0.066 0.001 0 0.067 0.001 0 0.068 0.001 0 0.069 0.001 0 0.07 0.001 0 0 0.002 0 0.001 0.002 0 0.002 0.002 0 0.003 0.002 0 0.004 0.002 0 0.005 0.002 0 0.006 0.002 0 0.007 0.002 0 0.008 0.002 0 0.009 0.002 0 0.01 0.002 0 0.011 0.002 0 0.012 0.002 0 0.013 0.002 0 0.014 0.002 0 0.015 0.002 0 0.016 0.002 0 0.017 0.002 0 0.018 0.002 0 0.019 0.002 0 0.02 0.002 0 0.021 0.002 0 0.022 0.002 0 0.023 0.002 0 0.024 0.002 0 0.025 0.002 0 0.026 0.002 0 0.027 0.002 0 0.028 0.002 0 0.029 0.002 0 0.03 0.002 0 0.031 0.002 0 0.032 0.002 0 0.033 0.002 0 0.034 0.002 0 0.035 0.002 0 0.036 0.002 0 0.037 0.002 0 0.038 0.002 0 0.039 0.002 0 0.04 0.002 0 0.041 0.002 0 0.042 0.002 0 0.043 0.002 0 0.044 0.002 0 0.045 0.002 0 0.046 0.002 0 0.047 0.002 0 0.048 0.002 0 0.049 0.002 0 0.05 0.002 0 0.051 0.002 0 0.052 0.002 0 0.053 0.002 0 0.054 0.002 0 0.055 0.002 0 0.056 0.002 0 0.057 0.002 0 0.058 0.002 0 0.059 0.002 0 0.06 0.002 0 0.061 0.002 0 0.062 0.002 0 0.063 0.002 0 0.064 0.002 0 0.065 0.002 0 0.066 0.002 0 0.067 0.002 0 0.068 0.002 0 0.069 0.002 0 0.07 0.002 0 0 0.003 0 0.001 0.003 0 0.002 0.003 0 0.003 0.003 0 0.004 0.003 0 0.005 0.003 0 0.006 0.003 0 0.007 0.003 0 0.008 0.003 0 0.009 0.003 0 0.01 0.003 0 0.011 0.003 0 0.012 0.003 0 0.013 0.003 0 0.014 0.003 0 0.015 0.003 0 0.016 0.003 0 0.017 0.003 0 0.018 0.003 0 0.019 0.003 0 0.02 0.003 0 0.021 0.003 0 0.022 0.003 0 0.023 0.003 0 0.024 0.003 0 0.025 0.003 0 0.026 0.003 0 0.027 0.003 0 0.028 0.003 0 0.029 0.003 0 0.03 0.003 0 0.031 0.003 0 0.032 0.003 0 0.033 0.003 0 0.034 0.003 0 0.035 0.003 0 0.036 0.003 0 0.037 0.003 0 0.038 0.003 0 0.039 0.003 0 0.04 0.003 0 0.041 0.003 0 0.042 0.003 0 0.043 0.003 0 0.044 0.003 0 0.045 0.003 0 0.046 0.003 0 0.047 0.003 0 0.048 0.003 0 0.049 0.003 0 0.05 0.003 0 0.051 0.003 0 0.052 0.003 0 0.053 0.003 0 0.054 0.003 0 0.055 0.003 0 0.056 0.003 0 0.057 0.003 0 0.058 0.003 0 0.059 0.003 0 0.06 0.003 0 0.061 0.003 0 0.062 0.003 0 0.063 0.003 0 0.064 0.003 0 0.065 0.003 0 0.066 0.003 0 0.067 0.003 0 0.068 0.003 0 0.069 0.003 0 0.07 0.003 0 0 0.004 0 0.001 0.004 0 0.002 0.004 0 0.003 0.004 0 0.004 0.004 0 0.005 0.004 0 0.006 0.004 0 0.007 0.004 0 0.008 0.004 0 0.009 0.004 0 0.01 0.004 0 0.011 0.004 0 0.012 0.004 0 0.013 0.004 0 0.014 0.004 0 0.015 0.004 0 0.016 0.004 0 0.017 0.004 0 0.018 0.004 0 0.019 0.004 0 0.02 0.004 0 0.021 0.004 0 0.022 0.004 0 0.023 0.004 0 0.024 0.004 0 0.025 0.004 0 0.026 0.004 0 0.027 0.004 0 0.028 0.004 0 0.029 0.004 0 0.03 0.004 0 0.031 0.004 0 0.032 0.004 0 0.033 0.004 0 0.034 0.004 0 0.035 0.004 0 0.036 0.004 0 0.037 0.004 0 0.038 0.004 0 0.039 0.004 0 0.04 0.004 0 0.041 0.004 0 0.042 0.004 0 0.043 0.004 0 0.044 0.004 0 0.045 0.004 0 0.046 0.004 0 0.047 0.004 0 0.048 0.004 0 0.049 0.004 0 0.05 0.004 0 0.051 0.004 0 0.052 0.004 0 0.053 0.004 0 0.054 0.004 0 0.055 0.004 0 0.056 0.004 0 0.057 0.004 0 0.058 0.004 0 0.059 0.004 0 0.06 0.004 0 0.061 0.004 0 0.062 0.004 0 0.063 0.004 0 0.064 0.004 0 0.065 0.004 0 0.066 0.004 0 0.067 0.004 0 0.068 0.004 0 0.069 0.004 0 0.07 0.004 0 0 0.005 0 0.001 0.005 0 0.002 0.005 0 0.003 0.005 0 0.004 0.005 0 0.005 0.005 0 0.006 0.005 0 0.007 0.005 0 0.008 0.005 0 0.009 0.005 0 0.01 0.005 0 0.011 0.005 0 0.012 0.005 0 0.013 0.005 0 0.014 0.005 0 0.015 0.005 0 0.016 0.005 0 0.017 0.005 0 0.018 0.005 0 0.019 0.005 0 0.02 0.005 0 0.021 0.005 0 0.022 0.005 0 0.023 0.005 0 0.024 0.005 0 0.025 0.005 0 0.026 0.005 0 0.027 0.005 0 0.028 0.005 0 0.029 0.005 0 0.03 0.005 0 0.031 0.005 0 0.032 0.005 0 0.033 0.005 0 0.034 0.005 0 0.035 0.005 0 0.036 0.005 0 0.037 0.005 0 0.038 0.005 0 0.039 0.005 0 0.04 0.005 0 0.041 0.005 0 0.042 0.005 0 0.043 0.005 0 0.044 0.005 0 0.045 0.005 0 0.046 0.005 0 0.047 0.005 0 0.048 0.005 0 0.049 0.005 0 0.05 0.005 0 0.051 0.005 0 0.052 0.005 0 0.053 0.005 0 0.054 0.005 0 0.055 0.005 0 0.056 0.005 0 0.057 0.005 0 0.058 0.005 0 0.059 0.005 0 0.06 0.005 0 0.061 0.005 0 0.062 0.005 0 0.063 0.005 0 0.064 0.005 0 0.065 0.005 0 0.066 0.005 0 0.067 0.005 0 0.068 0.005 0 0.069 0.005 0 0.07 0.005 0 0 0.006 0 0.001 0.006 0 0.002 0.006 0 0.003 0.006 0 0.004 0.006 0 0.005 0.006 0 0.006 0.006 0 0.007 0.006 0 0.008 0.006 0 0.009 0.006 0 0.01 0.006 0 0.011 0.006 0 0.012 0.006 0 0.013 0.006 0 0.014 0.006 0 0.015 0.006 0 0.016 0.006 0 0.017 0.006 0 0.018 0.006 0 0.019 0.006 0 0.02 0.006 0 0.021 0.006 0 0.022 0.006 0 0.023 0.006 0 0.024 0.006 0 0.025 0.006 0 0.026 0.006 0 0.027 0.006 0 0.028 0.006 0 0.029 0.006 0 0.03 0.006 0 0.031 0.006 0 0.032 0.006 0 0.033 0.006 0 0.034 0.006 0 0.035 0.006 0 0.036 0.006 0 0.037 0.006 0 0.038 0.006 0 0.039 0.006 0 0.04 0.006 0 0.041 0.006 0 0.042 0.006 0 0.043 0.006 0 0.044 0.006 0 0.045 0.006 0 0.046 0.006 0 0.047 0.006 0 0.048 0.006 0 0.049 0.006 0 0.05 0.006 0 0.051 0.006 0 0.052 0.006 0 0.053 0.006 0 0.054 0.006 0 0.055 0.006 0 0.056 0.006 0 0.057 0.006 0 0.058 0.006 0 0.059 0.006 0 0.06 0.006 0 0.061 0.006 0 0.062 0.006 0 0.063 0.006 0 0.064 0.006 0 0.065 0.006 0 0.066 0.006 0 0.067 0.006 0 0.068 0.006 0 0.069 0.006 0 0.07 0.006 0 0 0.007 0 0.001 0.007 0 0.002 0.007 0 0.003 0.007 0 0.004 0.007 0 0.005 0.007 0 0.006 0.007 0 0.007 0.007 0 0.008 0.007 0 0.009 0.007 0 0.01 0.007 0 0.011 0.007 0 0.012 0.007 0 0.013 0.007 0 0.014 0.007 0 0.015 0.007 0 0.016 0.007 0 0.017 0.007 0 0.018 0.007 0 0.019 0.007 0 0.02 0.007 0 0.021 0.007 0 0.022 0.007 0 0.023 0.007 0 0.024 0.007 0 0.025 0.007 0 0.026 0.007 0 0.027 0.007 0 0.028 0.007 0 0.029 0.007 0 0.03 0.007 0 0.031 0.007 0 0.032 0.007 0 0.033 0.007 0 0.034 0.007 0 0.035 0.007 0 0.036 0.007 0 0.037 0.007 0 0.038 0.007 0 0.039 0.007 0 0.04 0.007 0 0.041 0.007 0 0.042 0.007 0 0.043 0.007 0 0.044 0.007 0 0.045 0.007 0 0.046 0.007 0 0.047 0.007 0 0.048 0.007 0 0.049 0.007 0 0.05 0.007 0 0.051 0.007 0 0.052 0.007 0 0.053 0.007 0 0.054 0.007 0 0.055 0.007 0 0.056 0.007 0 0.057 0.007 0 0.058 0.007 0 0.059 0.007 0 0.06 0.007 0 0.061 0.007 0 0.062 0.007 0 0.063 0.007 0 0.064 0.007 0 0.065 0.007 0 0.066 0.007 0 0.067 0.007 0 0.068 0.007 0 0.069 0.007 0 0.07 0.007 0 0 0.008 0 0.001 0.008 0 0.002 0.008 0 0.003 0.008 0 0.004 0.008 0 0.005 0.008 0 0.006 0.008 0 0.007 0.008 0 0.008 0.008 0 0.009 0.008 0 0.01 0.008 0 0.011 0.008 0 0.012 0.008 0 0.013 0.008 0 0.014 0.008 0 0.015 0.008 0 0.016 0.008 0 0.017 0.008 0 0.018 0.008 0 0.019 0.008 0 0.02 0.008 0 0.021 0.008 0 0.022 0.008 0 0.023 0.008 0 0.024 0.008 0 0.025 0.008 0 0.026 0.008 0 0.027 0.008 0 0.028 0.008 0 0.029 0.008 0 0.03 0.008 0 0.031 0.008 0 0.032 0.008 0 0.033 0.008 0 0.034 0.008 0 0.035 0.008 0 0.036 0.008 0 0.037 0.008 0 0.038 0.008 0 0.039 0.008 0 0.04 0.008 0 0.041 0.008 0 0.042 0.008 0 0.043 0.008 0 0.044 0.008 0 0.045 0.008 0 0.046 0.008 0 0.047 0.008 0 0.048 0.008 0 0.049 0.008 0 0.05 0.008 0 0.051 0.008 0 0.052 0.008 0 0.053 0.008 0 0.054 0.008 0 0.055 0.008 0 0.056 0.008 0 0.057 0.008 0 0.058 0.008 0 0.059 0.008 0 0.06 0.008 0 0.061 0.008 0 0.062 0.008 0 0.063 0.008 0 0.064 0.008 0 0.065 0.008 0 0.066 0.008 0 0.067 0.008 0 0.068 0.008 0 0.069 0.008 0 0.07 0.008 0 0 0.009 0 0.001 0.009 0 0.002 0.009 0 0.003 0.009 0 0.004 0.009 0 0.005 0.009 0 0.006 0.009 0 0.007 0.009 0 0.008 0.009 0 0.009 0.009 0 0.01 0.009 0 0.011 0.009 0 0.012 0.009 0 0.013 0.009 0 0.014 0.009 0 0.015 0.009 0 0.016 0.009 0 0.017 0.009 0 0.018 0.009 0 0.019 0.009 0 0.02 0.009 0 0.021 0.009 0 0.022 0.009 0 0.023 0.009 0 0.024 0.009 0 0.025 0.009 0 0.026 0.009 0 0.027 0.009 0 0.028 0.009 0 0.029 0.009 0 0.03 0.009 0 0.031 0.009 0 0.032 0.009 0 0.033 0.009 0 0.034 0.009 0 0.035 0.009 0 0.036 0.009 0 0.037 0.009 0 0.038 0.009 0 0.039 0.009 0 0.04 0.009 0 0.041 0.009 0 0.042 0.009 0 0.043 0.009 0 0.044 0.009 0 0.045 0.009 0 0.046 0.009 0 0.047 0.009 0 0.048 0.009 0 0.049 0.009 0 0.05 0.009 0 0.051 0.009 0 0.052 0.009 0 0.053 0.009 0 0.054 0.009 0 0.055 0.009 0 0.056 0.009 0 0.057 0.009 0 0.058 0.009 0 0.059 0.009 0 0.06 0.009 0 0.061 0.009 0 0.062 0.009 0 0.063 0.009 0 0.064 0.009 0 0.065 0.009 0 0.066 0.009 0 0.067 0.009 0 0.068 0.009 0 0.069 0.009 0 0.07 0.009 0 0 0.01 0 0.001 0.01 0 0.002 0.01 0 0.003 0.01 0 0.004 0.01 0 0.005 0.01 0 0.006 0.01 0 0.007 0.01 0 0.008 0.01 0 0.009 0.01 0 0.01 0.01 0 0.011 0.01 0 0.012 0.01 0 0.013 0.01 0 0.014 0.01 0 0.015 0.01 0 0.016 0.01 0 0.017 0.01 0 0.018 0.01 0 0.019 0.01 0 0.02
[...]
			<CellData Scalars="Density">
				<DataArray Name="Density" type="Float32" format="ascii">
 0.248811 0.249378 0.249488 0.249373 0.249142 0.248872 0.248609 0.248396 0.248258 0.248218 0.248301 0.248538 0.248938 0.249513 0.250229 0.25114 0.252204 0.253442 0.254857 0.256538 0.258455 0.260891 0.263715 0.267599 0.272364 0.304875 0.681111 1.07942 1.51151 1.74523 1.90818 2.08139 2.26084 2.4479 2.64053 2.83216 3.02074 3.20161 3.34917 3.45696 3.45962 3.36259 3.0913 2.59254 1.96529 1.4664 1.24426 1.14228 1.08754 1.05439 1.03299 1.01932 1.01128 1.00665 1.00386 1.00218 1.00124 1.00071 1.0004 1.00022 1.00012 1.00007 1.00003 1.00002 1.00001 1.00001 1 1 1 1 0.247829 0.248372 0.248506 0.2484 0.248217 0.247969 0.247725 0.247515 0.247367 0.247284 0.24732 0.247473 0.247797 0.248254 0.248879 0.249648 0.250563 0.25164 0.252886 0.254354 0.256106 0.258273 0.261044 0.264529 0.268898 0.356879 0.735543 1.13108 1.52479 1.71111 1.8735 2.03798 2.21173 2.3932 2.57299 2.7532 2.92658 3.09069 3.23302 3.34356 3.31529 3.18658 2.93442 2.52911 2.03947 1.62723 1.41235 1.29823 1.22428 1.15772 1.10169 1.06226 1.03783 1.02254 1.01299 1.0075 1.00436 1.00248 1.00137 1.00077 1.00044 1.00024 1.00013 1.00007 1.00004 1.00002 1.00001 1.00001 1 1 0.247763 0.24832 0.248426 0.248329 0.248119 0.247869 0.247614 0.247382 0.247242 0.247172 0.247219 0.247444 0.247802 0.248332 0.248984 0.249743 0.250638 0.251725 0.252904 0.254343 0.255939 0.257856 0.260194 0.263206 0.267205 0.368316 0.747471 1.14402 1.51901 1.67936 1.82222 1.97507 2.14118 2.30696 2.47365 2.64528 2.80342 2.95447 3.08235 3.17792 3.13429 3.01775 2.80015 2.46247 2.06971 1.75172 1.58026 1.47711 1.41076 1.34197 1.27137 1.20156 1.13737 1.08605 1.05188 1.03118 1.01822 1.01035 1.00588 1.00338 1.00189 1.00102 1.00057 1.00032 1.00017 1.00009 1.00005 1.00003 1.00002 1.00001 0.247673 0.248214 0.248339 0.248226 0.248042 0.247795 0.247549 0.247348 0.247212 0.247143 0.247179 0.247312 0.247625 0.248078 0.24866 0.24937 0.250214 0.251099 0.25228 0.253495 0.254969 0.256753 0.258597 0.261438 0.26482 0.408963 0.790019 1.17673 1.49236 1.62285 1.75732 1.90024 2.0484 2.20032 2.35819 2.51873 2.66448 2.8062 2.92671 3.00495 2.955 2.83893 2.63666 2.36061 2.05444 1.82144 1.70311 1.63147 1.58458 1.52925 1.4668 1.39844 1.32653 1.25284 1.1814 1.11886 1.07221 1.04284 1.02517 1.01451 1.00814 1.00449 1.00256 1.00141 1.00076 1.00043 1.00024 1.00014 1.00008 1.00004 0.247541 0.24808 0.248202 0.248114 0.24793 0.247683 0.247444 0.247252 0.247131 0.247079 0.247094 0.247306 0.247616 0.24805 0.248605 0.249203 0.249876 0.250754 0.251644 0.252731 0.254105 0.255361 0.257103 0.259203 0.262052 0.429675 0.813275 1.1993 1.46065 1.5718 1.6921 1.81824 1.95195 2.09621 2.23959 2.39003 2.52954 2.66604 2.78434 2.83314 2.78194 2.65881 2.45445 2.21554 1.98298 1.83438 1.76445 1.72499 1.702 1.6715 1.63157 1.58157 1.52196 1.4547 1.38258 1.30676 1.23024 1.15843 1.09943 1.05933 1.03445 1.01967 1.01125 1.00614 1.00343 1.00196 1.00111 1.00063 1.00036 1.00021 0.247394 0.247923 0.248063 0.247983 0.247805 0.247556 0.247321 0.247125 0.247027 0.246941 0.247007 0.247137 0.247407 0.247829 0.248272 0.24883 0.249505 0.250101 0.250899 0.251908 0.252755 0.253916 0.255107 0.256494 0.25922 0.475833 0.861613 1.23554 1.42285 1.52327 1.6296 1.74413 1.87228 1.99943 2.13204 2.2723 2.40468 2.52938 2.64469 2.65755 2.59256 2.46643 2.26468 2.05614 1.88757 1.80414 1.77324 1.76014 1.7551 1.74753 1.73232 1.70837 1.67373 1.62816 1.57299 1.50863 1.43769 1.36168 1.28238 1.20361 1.13296 1.08049 1.04703 1.02665 1.01521 1.00868 1.00499 1.00291 1.00171 1.00103 0.24725 0.24778 0.247925 0.24786 0.247681 0.247451 0.247196 0.24703 0.246904 0.246849 0.246841 0.246982 0.247265 0.247561 0.248017 0.248545 0.248952 0.24953 0.250192 0.250734 0.251475 0.252285 0.253099 0.254097 0.256143 0.511559 0.895886 1.25245 1.38981 1.4777 1.57481 1.68507 1.79644 1.91245 2.03823 2.15812 2.27513 2.37965 2.48261 2.46654 2.37714 2.24456 2.05825 1.89102 1.7871 1.7484 1.74667 1.75549 1.76406 1.77085 1.77112 1.76683 1.756 1.73612 1.7082 1.66928 1.61973 1.55987 1.49116 1.41624 1.33609 1.25369 1.17402 1.10837 1.06431 1.03786 1.02234 1.01334 1.00822 1.00566 0.247145 0.247676 0.247837 0.247766 0.247613 0.247363 0.24714 0.246938 0.246819 0.246715 0.246727 0.246876 0.247019 0.247362 0.247766 0.248104 0.248559 0.248994 0.24927 0.249702 0.250112 0.250648 0.251309 0.251758 0.253153 0.536382 0.924473 1.25718 1.35747 1.43826 1.53107 1.6266 1.72624 1.83575 1.93756 2.0374 2.13107 2.20866 2.27721 2.24266 2.15021 2.0154 1.86075 1.73734 1.68032 1.67144 1.68849 1.71321 1.73694 1.75809 1.77109 1.77873 1.7819 1.77857 1.7723 1.75868 1.73642 1.70495 1.66196 1.60834 1.5438 1.47077 1.39105 1.30725 1.22318 1.14806 1.09332 1.06072 1.0453 1.03804 0.24709 0.247612 0.247764 0.247709 0.247542 0.247315 0.247084 0.246879 0.246741 0.246645 0.246662 0.246686 0.246892 0.247175 0.247457 0.247856 0.24819 0.24837 0.248607 0.24873 0.248902 0.249257 0.249476 0.249611 0.250546 0.547979 0.944298 1.25062 1.32889 1.40467 1.48516 1.57002 1.66103 1.74758 1.82862 1.90306 1.96964 2.01207 2.03775 1.97809 1.86918 1.72476 1.61562 1.55414 1.54878 1.57758 1.61767 1.65147 1.67896 1.70693 1.73234 1.75448 1.77179 1.78085 1.78643 1.78717 1.78256 1.77467 1.7589 1.7346 1.69949 1.65261 1.59402 1.52556 1.45154 1.3809 1.3263 1.28759 1.27132 1.2497 0.247204 0.247693 0.247861 0.247786 0.24761 0.247361 0.247115 0.246886 0.246714 0.246603 0.24652 0.246584 0.246736 0.24694 0.247275 0.247587 0.247816 0.248027 0.248061 0.247972 0.247982 0.247914 0.247846 0.247845 0.248734 0.541428 0.953234 1.23911 1.30397 1.3698 1.4406 1.51651 1.58834 1.65583 1.71206 1.75697 1.78977 1.79207 1.69002 1.38493 1.12687 0.98158 0.927191 0.920115 0.961783 1.0302 1.11529 1.21234 1.31673 1.42008 1.5144 1.59767 1.66662 1.72214 1.7605 1.77814 1.78651 1.7914 1.79161 1.78765 1.77892 1.76389 1.74084 1.71411 1.69049 1.6827 1.7022 1.72987 1.75544 1.74229 0.24744 0.247871 0.248047 0.247975 0.24779 0.247529 0.247267 0.247018 0.246843 0.246707 0.246651 0.24666 0.246708 0.246884 0.247098 0.247332 0.247593 0.247739 0.247735 0.247621 0.247335 0.246964 0.246705 0.24647 0.246999 0.526955 0.955015 1.22391 1.2772 1.335 1.39814 1.45891 1.5151 1.56479 1.59483 1.61507 1.61133 1.3244 0.982064 0.645274 0.378463 0.263211 0.231296 0.233875 0.265436 0.312025 0.371999 0.444607 0.531567 0.634648 0.752547 0.881676 0.997232 1.11058 1.2369 1.36346 1.47389 1.57985 1.68101 1.75334 1.79255 1.8119 1.82342 1.85136 1.90363 1.98892 2.09654 2.19078 2.23347 2.247 0.247883 0.248229 0.248457 0.248357 0.248147 0.247874 0.247582 0.247335 0.247149 0.24705 0.247041 0.247088 0.247227 0.247419 0.247663 0.247914 0.248088 0.248146 0.248038 0.2477 0.247178 0.246567 0.246178 0.245634 0.245391 0.47234 0.931507 1.20651 1.25299 1.30369 1.35519 1.40383 1.44807 1.47857 1.49324 1.45572 1.13336 0.77191 0.374415 0.159087 0.145363 0.145041 0.144985 0.14543 0.147368 0.149529 0.152195 0.154804 0.157376 0.160022 0.162553 0.164654 0.208834 0.295847 0.397289 0.498979 0.595391 0.72159 0.891313 1.06331 1.19472 1.33578 1.49144 1.65086 1.81594 1.984 2.09518 2.07958 1.96748 2.02934 0.248539 0.248788 0.249118 0.24889 0.248732 0.248423 0.248169 0.247937 0.247825 0.247728 0.247786 0.247871 0.248029 0.248258 0.248488 0.248733 0.248949 0.249014 0.248902 0.248503 0.247862 0.246893 0.246387 0.245548 0.244819 0.448812 0.877899 1.18649 1.23182 1.27247 1.31552 1.35519 1.38837 1.40692 1.39019 1.09447 0.739466 0.32562 0.141166 0.14152 0.158662 0.173967 0.181949 0.184198 0.175812 0.169243 0.161529 0.154939 0.15691 0.159708 0.161942 0.163795 0.165513 0.166985 0.168314 0.169651 0.171073 0.172759 0.174914 0.207716 0.295706 0.399112 0.517073 0.633279 0.742586 0.840091 0.860868 0.742748 0.609297 0.667098 0.249524 0.249632 0.250099 0.249746 0.249748 0.249348 0.249211 0.248935 0.248917 0.248801 0.248926 0.249065 0.249263 0.249526 0.249853 0.250114 0.250352 0.250456 0.250337 0.249943 0.249187 0.248113 0.247575 0.246587 0.24585 0.348249 0.866126 1.18079 1.21355 1.24799 1.28346 1.31585 1.34175 1.3622 1.1466 0.801653 0.411846 0.14191 0.145929 0.174449 0.204469 0.234271 0.259929 0.267748 0.271954 0.261953 0.244431 0.214576 0.175144 0.158758 0.160948 0.163066 0.164778 0.166348 0.167881 0.169413 0.17098 0.17259 0.174465 0.177243 0.182455 0.19244 0.208055 0.227718 0.246757 0.261864 0.274419 0.284117 0.289659 0.293918 0.250791 0.250738 0.25142 0.250932 0.251183 0.250647 0.250755 0.250406 0.250491 0.250416 0.250578 0.250747 0.251076 0.251343 0.251693 0.252052 0.252311 0.252462 0.252393 0.252135 0.251323 0.250339 0.249539 0.248526 0.247679 0.25559 0.710747 1.14644 1.20279 1.23073 1.25881 1.28662 1.30934 1.25179 0.915221 0.548537 0.186023 0.136461 0.146951 0.171516 0.199531 0.241765 0.286119 0.294999 0.281057 0.279057 0.285717 0.291542 0.276164 0.20812 0.16284 0.162073 0.163925 0.165609 0.167173 0.168701 0.170282 0.172055 0.174484 0.178497 0.185409 0.197293 0.215535 0.236 0.253805 0.267936 0.278583 0.286618 0.292422 0.295028 0.252365 0.252157 0.253157 0.252462 0.253058 0.252396 0.252687 0.252315 0.252515 0.252439 0.252782 0.252957 0.253344 0.253738 0.254114 0.254525 0.254913 0.255177 0.255152 0.255038 0.254335 0.253599 0.252346 0.251469 0.250668 0.250882 0.510919 0.912528 1.19329 1.22123 1.24328 1.26872 1.28505 1.01443 0.705214 0.360923 0.138298 0.134969 0.135114 0.146058 0.176889 0.289221 0.35372 0.342142 0.289728 0.28047 0.284721 0.290139 0.296233 0.284731 0.205238 0.162229 0.163619 0.165196 0.166693 0.168181 0.169724 0.171526 0.174033 0.178276 0.186106 0.199725 0.219844 0.241955 0.261034 0.274932 0.283924 0.289908 0.295011 0.297128 0.254279 0.253968 0.255249 0.254515 0.255269 0.254559 0.255067 0.254603 0.255127 0.255008 0.255446 0.255726 0.256152 0.256632 0.257157 0.257649 0.258125 0.258561 0.258642 0.258639 0.258188 0.257596 0.256396 0.255799 0.254926 0.255208 0.271279 0.873243 1.21275 1.22671 1.24154 1.25865 1.24844 0.971434 0.680491 0.354696 0.138658 0.135685 0.1361 0.142305 0.393346 0.500332 0.499525 0.346417 0.278689 0.282629 0.287151 0.291683 0.29624 0.297444 0.227361 0.16841 0.163323 0.164706 0.166188 0.167715 0.169301 0.171193 0.174043 0.179123 0.188654 0.205415 0.227425 0.249971 0.268533 0.281421 0.289783 0.295096 0.298888 0.299508 0.256678 0.25624 0.257866 0.256972 0.257985 0.257151 0.25796 0.257417 0.258141 0.258106 0.258584 0.258956 0.259496 0.260045 0.260672 0.261334 0.261913 0.262478 0.262739 0.262846 0.262651 0.26222 0.261324 0.260918 0.260183 0.260259 0.261183 0.361225 1.13221 1.23804 1.2468 1.25716 1.27131 1.00205 0.727782 0.459675 0.245556 0.232862 0.306039 0.52929 0.621664 0.548343 0.357253 0.275858 0.279525 0.283454 0.287573 0.291949 0.296305 0.300798 0.238778 0.173744 0.162912 0.164385 0.16585 0.167309 0.168843 0.170743 0.173702 0.179131 0.189415 0.20773 0.231726 0.255751 0.274364 0.28651 0.293536 0.29834 0.302167 0.301705 0.259412 0.258848 0.260779 0.25978 0.261048 0.260088 0.261172 0.260679 0.261489 0.261559 0.262113 0.262577 0.263198 0.263877 0.264603 0.265391 0.266143 0.266835 0.267274 0.267545 0.26755 0.267387 0.266796 0.266496 0.266023 0.266169 0.266526 0.268478 0.448128 0.901148 1.2683 1.27163 1.26784 1.22108 1.04317 0.865159 0.802288 0.801778 0.778832 0.705403 0.555003 0.376514 0.275866 0.278898 0.282125 0.285306 0.288942 0.29284 0.297012 0.301481 0.255278 0.181999 0.162777 0.16406 0.165407 0.166843 0.168411 0.170392 0.17364 0.179851 0.192277 0.212643 0.23767 0.261105 0.278448 0.289885 0.296762 0.300776 0.304352 0.303563 0.262458 0.261858 0.263925 0.262855 0.264352 0.263456 0.264713 0.264273 0.26512 0.265321 0.265912 0.266496 0.267206 0.26797 0.268822 0.269738 0.270625 0.271479 0.272092 0.272536 0.272711 0.272812 0.27252 0.27234 0.272055 0.272225 0.272497 0.273854 0.276084 0.318589 0.679883 0.964662 1.18226 1.21409 1.1934 1.10804 0.994335 0.851989 0.695438 0.508193 0.332067 0.277454 0.27965 0.281854 0.284084 0.286823 0.290021 0.293403 0.297028 0.301029 0.257334 0.183471 0.162405 0.1637 0.165083 0.166521 0.168053 0.170022 0.173366 0.179729 0.192564 0.214506 0.241678 0.26635 0.283178 0.292975 0.299229 0.303106 0.306464 0.305655 0.265745 0.265197 0.267304 0.266236 0.267833 0.267015 0.268399 0.268127 0.268885 0.269264 0.269912 0.270566 0.271363 0.272258 0.273159 0.274179 0.275219 0.276194 0.276983 0.277604 0.27794 0.278212 0.278185 0.278141 0.277991 0.278149 0.278327 0.279374 0.280821 0.282493 0.285548 0.394051 0.516724 0.613938 0.656068 0.643868 0.560008 0.44314 0.350424 0.285907 0.280818 0.280909 0.282033 0.283611 0.285725 0.288198 0.291084 0.294186 0.297564 0.301319 0.252996 0.180472 0.16221 0.163495 0.164809 0.166183 0.167704 0.169757 0.173388 0.18067 0.194715 0.217447 0.24468 0.269253 0.286253 0.296031 0.301566 0.30518 0.308522 0.307998 0.269179 0.268623 0.270805 0.269799 0.271443 0.270766 0.272064 0.272074 0.272754 0.273222 0.273924 0.274718 0.275498 0.276476 0.277526 0.278541 0.279668 0.280804 0.281737 0.282518 0.283032 0.283415 0.283574 0.283662 0.283601 0.283737 0.283823 0.284445 0.285386 0.286457 0.287445 0.288366 0.288998 0.28949 0.291459 0.292796 0.287999 0.284606 0.28296 0.282 0.28244 0.283 0.283934 0.28515 0.286996 0.289115 0.291655 0.294483 0.29761 0.30121 0.246884 0.176811 0.1619 0.163146 0.164462 0.165856 0.167398 0.169479 0.173156 0.180664 0.195939 0.220464 0.24898 0.273503 0.289676 0.298738 0.303909 0.307259 0.310407 0.310402 0.272584 0.272087 0.274244 0.273399 0.274967 0.274571 0.275638 0.275878 0.276555 0.277181 0.277804 0.278699 0.279622 0.280508 0.28161 0.282772 0.283879 0.285028 0.286173 0.287088 0.287764 0.288264 0.28853 0.2887 0.288683 0.288768 0.288766 0.28898 0.289455 0.289988 0.290344 0.29069 0.290572 0.290168 0.289515 0.288515 0.287469 0.286166 0.285008 0.284436 0.284506 0.284889 0.285609 0.286582 0.288076 0.289933 0.292231 0.294856 0.297703 0.301054 0.237762 0.172263 0.161645 0.162903 0.164209 0.165571 0.167095 0.169216 0.173057 0.180903 0.196442 0.220989 0.249629 0.274642 0.291483 0.300801 0.30571 0.308872 0.31189 0.312381 0.275881 0.27548 0.277523 0.276946 0.278349 0.278242 0.279119 0.279542 0.280091 0.280859 0.281592 0.28234 0.283343 0.284407 0.2854 0.286506 0.287802 0.288927 0.290038 0.291153 0.291983 0.292581 0.292942 0.293147 0.293121 0.293129 0.293017 0.292947 0.292956 0.29305 0.293011 0.292907 0.292409 0.291662 0.290738 0.289686 0.28865 0.287594 0.286576 0.286063 0.285943 0.286064 0.286556 0.287408 0.288677 0.29038 0.292527 0.295098 0.297857 0.298328 0.22858 0.168054 0.161439 0.162661 0.163949 0.165317 0.166873 0.169061 0.17306 0.181511 0.198478 0.223984 0.252419 0.276307 0.292358 0.301831 0.307134 0.310247 0.313115 0.313767 0.278918 0.278676 0.280576 0.28023 0.281444 0.281616 0.282246 0.282865 0.283429 0.284066 0.284924 0.285837 0.286644 0.287698 0.288935 0.289986 0.291089 0.29242 0.293515 0.294542 0.295566 0.296282 0.296709 0.296947 0.29687 0.296782 0.296537 0.29622 0.295886 0.295567 0.295169 0.29465 0.293901 0.292976 0.291906 0.290782 0.289678 0.288649 0.287688 0.287127 0.286908 0.2869 0.287231 0.287916 0.289013 0.290548 0.292562 0.295042 0.297739 0.292725 0.220862 0.164445 0.161107 0.162375 0.163698 0.165078 0.166648 0.168847 0.172844 0.181293 0.19858 0.224788 0.253892 0.277861 0.293282 0.302066 0.307322 0.310805 0.313852 0.314594 0.281619 0.281487 0.283273 0.283176 0.284055 0.28454 0.285038 0.285623 0.286306 0.287028 0.287684 0.288685 0.289748 0.29064 0.291716 0.293021 0.294124 0.2952 0.29649 0.297499 0.298415 0.299272 0.299783 0.30005 0.299945 0.29974 0.299327 0.298791 0.298199 0.297563 0.296848 0.296026 0.295037 0.293967 0.292798 0.291603 0.290461 0.289379 0.288433 0.287736 0.28736 0.287235 0.287521 0.288204 0.28929 0.290755 0.292657 0.295059 0.297747 0.287059 0.214427 0.162378 0.161066 0.162293 0.163576 0.164937 0.166518 0.168759 0.172869 0.18187 0.199688 0.226018 0.254723 0.278393 0.294025 0.302871 0.307718 0.310851 0.313884 0.314703 0.283882 0.283904 0.285477 0.28574 0.286303 0.28684 0.287399 0.287974 0.288551 0.289383 0.290198 0.290988 0.292035 0.293166 0.294191 0.295275 0.296581 0.297687 0.298739 0.299902 0.300788 0.301546 0.302135 0.302437 0.302352 0.302002 0.301446 0.300746 0.299946 0.299069 0.298067 0.296978 0.295808 0.294582 0.293291 0.292047 0.290825 0.289651 0.288687 0.287911 0.287491 0.287318 0.287479 0.288058 0.289109 0.29061 0.292551 0.294986 0.297661 0.281744 0.208598 0.160903 0.160867 0.162081 0.163374 0.164745 0.166334 0.168587 0.172699 0.181846 0.200374 0.227562 0.256476 0.279333 0.293897 0.302334 0.307277 0.310556 0.313613 0.314418 0.285566 0.285813 0.287108 0.287598 0.288077 0.288584 0.289119 0.289788 0.290443 0.291148 0.29202 0.292961 0.293913 0.294979 0.296137 0.29726 0.298379 0.299598 0.300656 0.30166 0.302599 0.303288 0.303817 0.304148 0.30414 0.303666 0.303003 0.302187 0.301244 0.300153 0.298926 0.297632 0.296267 0.29487 0.293474 0.292098 0.290804 0.289654 0.288713 0.287928 0.28746 0.287307 0.287525 0.288126 0.289128 0.290583 0.292478 0.294777 0.297427 0.27781 0.204676 0.16013 0.160661 0.161886 0.163184 0.164566 0.166189 0.168501 0.172678 0.181837 0.200348 0.227534 0.256526 0.279531 0.293972 0.302154 0.307054 0.310263 0.31316 0.314177 0.286907 0.287401 0.288495 0.288936 0.289492 0.290027 0.290555 0.291177 0.291896 0.292634 0.293472 0.294446 0.295461 0.296556 0.297687 0.29885 0.299988 0.301106 0.302189 0.303129 0.304018 0.30465 0.305054 0.305282 0.305238 0.304833 0.304199 0.303344 0.302302 0.301085 0.299741 0.298283 0.296746 0.295195 0.293648 0.292172 0.2908 0.289557 0.288518 0.287694 0.287233 0.287095 0.287324 0.287953 0.28899 0.290455 0.292328 0.29463 0.297393 0.272168 0.198798 0.159556 0.160654 0.161905 0.163224 0.164625 0.166235 0.168544 0.17282 0.182373 0.201358 0.228989 0.257986 0.280594 0.294677 0.302598 0.307185 0.310165 0.312947 0.313952 0.285782 0.286672 0.287516 0.28796 0.288454 0.288964 0.289465 0.290027 0.290698 0.291445 0.292227 0.293133 0.294124 0.295161 0.296239 0.297368 0.298472 0.299538 0.300581 0.30151 0.302338 0.302955 0.3034 0.303597 0.303594 0.303192 0.302571 0.301723 0.300686 0.299477 0.298129 0.296737 0.295308 0.293864 0.292464 0.291163 0.289973 0.288916 0.288074 0.287431 0.287067 0.286996 0.287267 0.287908 0.288954 0.290412 0.292321 0.294647 0.297261 0.267005 0.1939 0.15939 0.16051 0.161743 0.163048 0.164436 0.166035 0.168348 0.172619 0.182045 0.201031 0.228721 0.257847 0.280511 0.294481 0.302281 0.306947 0.310171 0.313278 0.313945
				</DataArray>
				<DataArray Name="Energy" type="Float32" format="ascii">