<?xml version="1.0"?>
<VTKFile type="PolyData">
	<PolyData>
		<Piece NumberOfPoints="1206" NumberOfPolys="1000">
			<Points>
				<DataArray type="Float32" NumberOfComponents="3" format="ascii">
 0 0 0 0.005 0 0 0.01 0 0 0.015 0 0 0.02 0 0 0.025 0 0 0.03 0 0 0.035 0 0 0.04 0 0 0.045 0 0 0.05 0 0 0.055 0 0 0.06 0 0 0.065 0 0 0.07 0 0 0.075 0 0 0.08 0 0 0.085 0 0 0.09 0 0 0.095 0 0 0.1 0 0 0.105 0 0 0.11 0 0 0.115 0 0 0.12 0 0 0.125 0 0 0.13 0 0 0.135 0 0 0.14 0 0 0.145 0 0 0.15 0 0 0.155 0 0 0.16 0 0 0.165 0 0 0.17 0 0 0.175 0 0 0.18 0 0 0.185 0 0 0.19 0 0 0.195 0 0 0.2 0 0 0.205 0 0 0.21 0 0 0.215 0 0 0.22 0 0 0.225 0 0 0.23 0 0 0.235 0 0 0.24 0 0 0.245 0 0 0.25 0 0 0.255 0 0 0.26 0 0 0.265 0 0 0.27 0 0 0.275 0 0 0.28 0 0 0.285 0 0 0.29 0 0 0.295 0 0 0.3 0 0 0.305 0 0 0.31 0 0 0.315 0 0 0.32 0 0 0.325 0 0 0.33 0 0 0.335 0 0 0.34 0 0 0.345 0 0 0.35 0 0 0.355 0 0 0.36 0 0 0.365 0 0 0.37 0 0 0.375 0 0 0.38 0 0 0.385 0 0 0.39 0 0 0.395 0 0 0.4 0 0 0.405 0 0 0.41 0 0 0.415 0 0 0.42 0 0 0.425 0 0 0.43 0 0 0.435 0 0 0.44 0 0 0.445 0 0 0.45 0 0 0.455 0 0 0.46 0 0 0.465 0 0 0.47 0 0 0.475 0 0 0.48 0 0 0.485 0 0 0.49 0 0 0.495 0 0 0.5 0 0 0.505 0 0 0.51 0 0 0.515 0 0 0.52 0 0 0.525 0 0 0.53 0 0 0.535 0 0 0.54 0 0 0.545 0 0 0.55 0 0 0.555 0 0 0.56 0 0 0.565 0 0 0.57 0 0 0.575 0 0 0.58 0 0 0.585 0 0 0.59 0 0 0.595 0 0 0.6 0 0 0.605 0 0 0.61 0 0 0.615 0 0 0.62 0 0 0.625 0 0 0.63 0 0 0.635 0 0 0.64 0 0 0.645 0 0 0.65 0 0 0.655 0 0 0.66 0 0 0.665 0 0 0.67 0 0 0.675 0 0 0.68 0 0 0.685 0 0 0.69 0 0 0.695 0 0 0.7 0 0 0.705 0 0 0.71 0 0 0.715 0 0 0.72 0 0 0.725 0 0 0.73 0 0 0.735 0 0 0.74 0 0 0.745 0 0 0.75 0 0 0.755 0 0 0.76 0 0 0.765 0 0 0.77 0 0 0.775 0 0 0.78 0 0 0.785 0 0 0.79 0 0 0.795 0 0 0.8 0 0 0.805 0 0 0.81 0 0 0.815 0 0 0.82 0 0 0.825 0 0 0.83 0 0 0.835 0 0 0.84 0 0 0.845 0 0 0.85 0 0 0.855 0 0 0.86 0 0 0.865 0 0 0.87 0 0 0.875 0 0 0.88 0 0 0.885 0 0 0.89 0 0 0.895 0 0 0.9 0 0 0.905 0 0 0.91 0 0 0.915 0 0 0.92 0 0 0.925 0 0 0.93 0 0 0.935 0 0 0.94 0 0 0.945 0 0 0.95 0 0 0.955 0 0 0.96 0 0 0.965 0 0 0.97 0 0 0.975 0 0 0.98 0 0 0.985 0 0 0.99 0 0 0.995 0 0 1 0 0 0 0.02 0 0.005 0.02 0 0.01 0.02 0 0.015 0.02 0 0.02 0.02 0 0.025 0.02 0 0.03 0.02 0 0.035 0.02 0 0.04 0.02 0 0.045 0.02 0 0.05 0.02 0 0.055 0.02 0 0.06 0.02 0 0.065 0.02 0 0.07 0.02 0 0.075 0.02 0 0.08 0.02 0 0.085 0.02 0 0.09 0.02 0 0.095 0.02 0 0.1 0.02 0 0.105 0.02 0 0.11 0.02 0 0.115 0.02 0 0.12 0.02 0 0.125 0.02 0 0.13 0.02 0 0.135 0.02 0 0.14 0.02 0 0.145 0.02 0 0.15 0.02 0 0.155 0.02 0 0.16 0.02 0 0.165 0.02 0 0.17 0.02 0 0.175 0.02 0 0.18 0.02 0 0.185 0.02 0 0.19 0.02 0 0.195 0.02 0 0.2 0.02 0 0.205 0.02 0 0.21 0.02 0 0.215 0.02 0 0.22 0.02 0 0.225 0.02 0 0.23 0.02 0 0.235 0.02 0 0.24 0.02 0 0.245 0.02 0 0.25 0.02 0 0.255 0.02 0 0.26 0.02 0 0.265 0.02 0 0.27 0.02 0 0.275 0.02 0 0.28 0.02 0 0.285 0.02 0 0.29 0.02 0 0.295 0.02 0 0.3 0.02 0 0.305 0.02 0 0.31 0.02 0 0.315 0.02 0 0.32 0.02 0 0.325 0.02 0 0.33 0.02 0 0.335 0.02 0 0.34 0.02 0 0.345 0.02 0 0.35 0.02 0 0.355 0.02 0 0.36 0.02 0 0.365 0.02 0 0.37 0.02 0 0.375 0.02 0 0.38 0.02 0 0.385 0.02 0 0.39 0.02 0 0.395 0.02 0 0.4 0.02 0 0.405 0.02 0 0.41 0.02 0 0.415 0.02 0 0.42 0.02 0 0.425 0.02 0 0.43 0.02 0 0.435 0.02 0 0.44 0.02 0 0.445 0.02 0 0.45 0.02 0 0.455 0.02 0 0.46 0.02 0 0.465 0.02 0 0.47 0.02 0 0.475 0.02 0 0.48 0.02 0 0.485 0.02 0 0.49 0.02 0 0.495 0.02 0 0.5 0.02 0 0.505 0.02 0 0.51 0.02 0 0.515 0.02 0 0.52 0.02 0 0.525 0.02 0 0.53 0.02 0 0.535 0.02 0 0.54 0.02 0 0.545 0.02 0 0.55 0.02 0 0.555 0.02 0 0.56 0.02 0 0.565 0.02 0 0.57 0.02 0 0.575 0.02 0 0.58 0.02 0 0.585 0.02 0 0.59 0.02 0 0.595 0.02 0 0.6 0.02 0 0.605 0.02 0 0.61 0.02 0 0.615 0.02 0 0.62 0.02 0 0.625 0.02 0 0.63 0.02 0 0.635 0.02 0 0.64 0.02 0 0.645 0.02 0 0.65 0.02 0 0.655 0.02 0 0.66 0.02 0 0.665 0.02 0 0.67 0.02 0 0.675 0.02 0 0.68 0.02 0 0.685 0.02 0 0.69 0.02 0 0.695 0.02 0 0.7 0.02 0 0.705 0.02 0 0.71 0.02 0 0.715 0.02 0 0.72 0.02 0 0.725 0.02 0 0.73 0.02 0 0.735 0.02 0 0.74 0.02 0 0.745 0.02 0 0.75 0.02 0 0.755 0.02 0 0.76 0.02 0 0.765 0.02 0 0.77 0.02 0 0.775 0.02 0 0.78 0.02 0 0.785 0.02 0 0.79 0.02 0 0.795 0.02 0 0.8 0.02 0 0.805 0.02 0 0.81 0.02 0 0.815 0.02 0 0.82 0.02 0 0.825 0.02 0 0.83 0.02 0 0.835 0.02 0 0.84 0.02 0 0.845 0.02 0 0.85 0.02 0 0.855 0.02 0 0.86 0.02 0 0.865 0.02 0 0.87 0.02 0 0.875 0.02 0 0.88 0.02 0 0.885 0.02 0 0.89 0.02 0 0.895 0.02 0 0.9 0.02 0 0.905 0.02 0 0.91 0.02 0 0.915 0.02 0 0.92 0.02 0 0.925 0.02 0 0.93 0.02 0 0.935 0.02 0 0.94 0.02 0 0.945 0.02 0 0.95 0.02 0 0.955 0.02 0 0.96 0.02 0 0.965 0.02 0 0.97 0.02 0 0.975 0.02 0 0.98 0.02 0 0.985 0.02 0 0.99 0.02 0 0.995 0.02 0 1 0.02 0 0 0.04 0 0.005 0.04 0 0.01 0.04 0 0.015 0.04 0 0.02 0.04 0 0.025 0.04 0 0.03 0.04 0 0.035 0.04 0 0.04 0.04 0 0.045 0.04 0 0.05 0.04 0 0.055 0.04 0 0.06 0.04 0 0.065 0.04 0 0.07 0.04 0 0.075 0.04 0 0.08 0.04 0 0.085 0.04 0 0.09 0.04 0 0.095 0.04 0 0.1 0.04 0 0.105 0.04 0 0.11 0.04 0 0.115 0.04 0 0.12 0.04 0 0.125 0.04 0 0.13 0.04 0 0.135 0.04 0 0.14 0.04 0 0.145 0.04 0 0.15 0.04 0 0.155 0.04 0 0.16 0.04 0 0.165 0.04 0 0.17 0.04 0 0.175 0.04 0 0.18 0.04 0 0.185 0.04 0 0.19 0.04 0 0.195 0.04 0 0.2 0.04 0 0.205 0.04 0 0.21 0.04 0 0.215 0.04 0 0.22 0.04 0 0.225 0.04 0 0.23 0.04 0 0.235 0.04 0 0.24 0.04 0 0.245 0.04 0 0.25 0.04 0 0.255 0.04 0 0.26 0.04 0 0.265 0.04 0 0.27 0.04 0 0.275 0.04 0 0.28 0.04 0 0.285 0.04 0 0.29 0.04 0 0.295 0.04 0 0.3 0.04 0 0.305 0.04 0 0.31 0.04 0 0.315 0.04 0 0.32 0.04 0 0.325 0.04 0 0.33 0.04 0 0.335 0.04 0 0.34 0.04 0 0.345 0.04 0 0.35 0.04 0 0.355 0.04 0 0.36 0.04 0 0.365 0.04 0 0.37 0.04 0 0.375 0.04 0 0.38 0.04 0 0.385 0.04 0 0.39 0.04 0 0.395 0.04 0 0.4 0.04 0 0.405 0.04 0 0.41 0.04 0 0.415 0.04 0 0.42 0.04 0 0.425 0.04 0 0.43 0.04 0 0.435 0.04 0 0.44 0.04 0 0.445 0.04 0 0.45 0.04 0 0.455 0.04 0 0.46 0.04 0 0.465 0.04 0 0.47 0.04 0 0.475 0.04 0 0.48 0.04 0 0.485 0.04 0 0.49 0.04 0 0.495 0.04 0 0.5 0.04 0 0.505 0.04 0 0.51 0.04 0 0.515 0.04 0 0.52 0.04 0 0.525 0.04 0 0.53 0.04 0 0.535 0.04 0 0.54 0.04 0 0.545 0.04 0 0.55 0.04 0 0.555 0.04 0 0.56 0.04 0 0.565 0.04 0 0.57 0.04 0 0.575 0.04 0 0.58 0.04 0 0.585 0.04 0 0.59 0.04 0 0.595 0.04 0 0.6 0.04 0 0.605 0.04 0 0.61 0.04 0 0.615 0.04 0 0.62 0.04 0 0.625 0.04 0 0.63 0.04 0 0.635 0.04 0 0.64 0.04 0 0.645 0.04 0 0.65 0.04 0 0.655 0.04 0 0.66 0.04 0 0.665 0.04 0 0.67 0.04 0 0.675 0.04 0 0.68 0.04 0 0.685 0.04 0 0.69 0.04 0 0.695 0.04 0 0.7 0.04 0 0.705 0.04 0 0.71 0.04 0 0.715 0.04 0 0.72 0.04 0 0.725 0.04 0 0.73 0.04 0 0.735 0.04 0 0.74 0.04 0 0.745 0.04 0 0.75 0.04 0 0.755 0.04 0 0.76 0.04 0 0.765 0.04 0 0.77 0.04 0 0.775 0.04 0 0.78 0.04 0 0.785 0.04 0 0.79 0.04 0 0.795 0.04 0 0.8 0.04 0 0.805 0.04 0 0.81 0.04 0 0.815 0.04 0 0.82 0.04 0 0.825 0.04 0 0.83 0.04 0 0.835 0.04 0 0.84 0.04 0 0.845 0.04 0 0.85 0.04 0 0.855 0.04 0 0.86 0.04 0 0.865 0.04 0 0.87 0.04 0 0.875 0.04 0 0.88 0.04 0 0.885 0.04 0 0.89 0.04 0 0.895 0.04 0 0.9 0.04 0 0.905 0.04 0 0.91 0.04 0 0.915 0.04 0 0.92 0.04 0 0.925 0.04 0 0.93 0.04 0 0.935 0.04 0 0.94 0.04 0 0.945 0.04 0 0.95 0.04 0 0.955 0.04 0 0.96 0.04 0 0.965 0.04 0 0.97 0.04 0 0.975 0.04 0 0.98 0.04 0 0.985 0.04 0 0.99 0.04 0 0.995 0.04 0 1 0.04 0 0 0.06 0 0.005 0.06 0 0.01 0.06 0 0.015 0.06 0 0.02 0.06 0 0.025 0.06 0 0.03 0.06 0 0.035 0.06 0 0.04 0.06 0 0.045 0.06 0 0.05 0.06 0 0.055 0.06 0 0.06 0.06 0 0.065 0.06 0 0.07 0.06 0 0.075 0.06 0 0.08 0.06 0 0.085 0.06 0 0.09 0.06 0 0.095 0.06 0 0.1 0.06 0 0.105 0.06 0 0.11 0.06 0 0.115 0.06 0 0.12 0.06 0 0.125 0.06 0 0.13 0.06 0 0.135 0.06 0 0.14 0.06 0 0.145 0.06 0 0.15 0.06 0 0.155 0.06 0 0.16 0.06 0 0.165 0.06 0 0.17 0.06 0 0.175 0.06 0 0.18 0.06 0 0.185 0.06 0 0.19 0.06 0 0.195 0.06 0 0.2 0.06 0 0.205 0.06 0 0.21 0.06 0 0.215 0.06 0 0.22 0.06 0 0.225 0.06 0 0.23 0.06 0 0.235 0.06 0 0.24 0.06 0 0.245 0.06 0 0.25 0.06 0 0.255 0.06 0 0.26 0.06 0 0.265 0.06 0 0.27 0.06 0 0.275 0.06 0 0.28 0.06 0 0.285 0.06 0 0.29 0.06 0 0.295 0.06 0 0.3 0.06 0 0.305 0.06 0 0.31 0.06 0 0.315 0.06 0 0.32 0.06 0 0.325 0.06 0 0.33 0.06 0 0.335 0.06 0 0.34 0.06 0 0.345 0.06 0 0.35 0.06 0 0.355 0.06 0 0.36 0.06 0 0.365 0.06 0 0.37 0.06 0 0.375 0.06 0 0.38 0.06 0 0.385 0.06 0 0.39 0.06 0 0.395 0.06 0 0.4 0.06 0 0.405 0.06 0 0.41 0.06 0 0.415 0.06 0 0.42 0.06 0 0.425 0.06 0 0.43 0.06 0 0.435 0.06 0 0.44 0.06 0 0.445 0.06 0 0.45 0.06 0 0.455 0.06 0 0.46 0.06 0 0.465 0.06 0 0.47 0.06 0 0.475 0.06 0 0.48 0.06 0 0.485 0.06 0 0.49 0.06 0 0.495 0.06 0 0.5 0.06 0 0.505 0.06 0 0.51 0.06 0 0.515 0.06 0 0.52 0.06 0 0.525 0.06 0 0.53 0.06 0 0.535 0.06 0 0.54 0.06 0 0.545 0.06 0 0.55 0.06 0 0.555 0.06 0 0.56 0.06 0 0.565 0.06 0 0.57 0.06 0 0.575 0.06 0 0.58 0.06 0 0.585 0.06 0 0.59 0.06 0 0.595 0.06 0 0.6 0.06 0 0.605 0.06 0 0.61 0.06 0 0.615 0.06 0 0.62 0.06 0 0.625 0.06 0 0.63 0.06 0 0.635 0.06 0 0.64 0.06 0 0.645 0.06 0 0.65 0.06 0 0.655 0.06 0 0.66 0.06 0 0.665 0.06 0 0.67 0.06 0 0.675 0.06 0 0.68 0.06 0 0.685 0.06 0 0.69 0.06 0 0.695 0.06 0 0.7 0.06 0 0.705 0.06 0 0.71 0.06 0 0.715 0.06 0 0.72 0.06 0 0.725 0.06 0 0.73 0.06 0 0.735 0.06 0 0.74 0.06 0 0.745 0.06 0 0.75 0.06 0 0.755 0.06 0 0.76 0.06 0 0.765 0.06 0 0.77 0.06 0 0.775 0.06 0 0.78 0.06 0 0.785 0.06 0 0.79 0.06 0 0.795 0.06 0 0.8 0.06 0 0.805 0.06 0 0.81 0.06 0 0.815 0.06 0 0.82 0.06 0 0.825 0.06 0 0.83 0.06 0 0.835 0.06 0 0.84 0.06 0 0.845 0.06 0 0.85 0.06 0 0.855 0.06 0 0.86 0.06 0 0.865 0.06 0 0.87 0.06 0 0.875 0.06 0 0.88 0.06 0 0.885 0.06 0 0.89 0.06 0 0.895 0.06 0 0.9 0.06 0 0.905 0.06 0 0.91 0.06 0 0.915 0.06 0 0.92 0.06 0 0.925 0.06 0 0.93 0.06 0 0.935 0.06 0 0.94 0.06 0 0.945 0.06 0 0.95 0.06 0 0.955 0.06 0 0.96 0.06 0 0.965 0.06 0 0.97 0.06 0 0.975 0.06 0 0.98 0.06 0 0.985 0.06 0 0.99 0.06 0 0.995 0.06 0 1 0.06 0 0 0.08 0 0.005 0.08 0 0.01 0.08 0 0.015 0.08 0 0.02 0.08 0 0.025 0.08 0 0.03 0.08 0 0.035 0.08 0 0.04 0.08 0 0.045 0.08 0 0.05 0.08 0 0.055 0.08 0 0.06 0.08 0 0.065 0.08 0 0.07 0.08 0 0.075 0.08 0 0.08 0.08 0 0.085 0.08 0 0.09 0.08 0 0.095 0.08 0 0.1 0.08 0 0.105 0.08 0 0.11 0.08 0 0.115 0.08 0 0.12 0.08 0 0.125 0.08 0 0.13 0.08 0 0.135 0.08 0 0.14 0.08 0 0.145 0.08 0 0.15 0.08 0 0.155 0.08 0 0.16 0.08 0 0.165 0.08 0
[...]
			<PointData Scalars="VitesseX">
				<DataArray Name="VitesseX" type="Float32" format="ascii">
 0 -5.25625e-15 -2.33447e-15 2.91702e-15 5.25581e-14 -3.77671e-14 -7.16873e-15 -3.10856e-14 2.50783e-15 6.83712e-15 -1.515e-14 -1.57529e-14 -1.89312e-13 2.8584e-14 -1.94816e-13 5.37972e-14 -6.74694e-14 -4.35535e-15 -4.59168e-14 -1.10182e-13 -4.34717e-14 -7.07357e-14 -1.69453e-13 2.25879e-14 -3.28727e-13 -8.9996e-14 -5.91295e-14 6.24539e-14 -1.79988e-13 6.52491e-14 -9.79871e-14 6.55317e-14 -6.53453e-14 -2.06349e-14 -4.59871e-13 -1.82563e-13 -9.42212e-14 -2.09264e-13 4.16668e-14 -3.88249e-13 -1.58078e-13 -2.04865e-13 -2.59832e-13 9.14512e-14 1.14036e-13 -9.03356e-14 1.01928e-13 -1.86766e-13 3.08466e-13 -1.06348e-13 1.02476e-13 -2.18976e-13 -1.32192e-13 -2.10474e-13 -2.44122e-13 2.16128e-12 1.75244e-11 1.28172e-10 8.64433e-10 5.46899e-09 3.23161e-08 1.77753e-07 9.06538e-07 4.26726e-06 1.84419e-05 7.27185e-05 0.000259697 0.00083287 0.0023768 0.00598519 0.0132375 0.0257358 0.0443039 0.0685076 0.0969656 0.12813 0.160841 0.194379 0.228383 0.262663 0.297056 0.331445 0.36578 0.400016 0.434122 0.468062 0.501802 0.535305 0.568531 0.601433 0.63396 0.666056 0.697655 0.728689 0.759085 0.788774 0.817703 0.845848 0.873228 0.899908 0.926591 0.941655 0.9414 0.940467 0.93923 0.937728 0.93618 0.934662 0.933258 0.93203 0.931027 0.930123 0.929506 0.928956 0.928488 0.928165 0.927868 0.927651 0.927815 0.926978 0.917289 0.929145 0.925155 0.930565 0.92705 0.928374 0.929713 0.92976 0.929768 0.929773 0.929789 0.929731 0.929575 0.929376 0.929199 0.929096 0.929016 0.928761 0.925991 0.915024 0.886864 0.830542 0.742265 0.623903 0.484931 0.341634 0.213 0.115447 0.0543225 0.022846 0.00899954 0.00342869 0.00128541 0.000477708 0.000176447 6.48141e-05 2.36736e-05 8.59417e-06 3.09917e-06 1.10952e-06 3.94108e-07 1.38818e-07 4.84614e-08 1.67597e-08 5.73832e-09 1.94448e-09 6.51841e-10 2.15982e-10 7.06887e-11 2.23988e-11 6.81723e-12 2.3447e-12 5.10941e-14 -2.85438e-13 -1.39623e-13 1.72346e-14 -1.97531e-13 -5.49633e-13 7.49026e-13 6.60438e-14 5.16787e-15 -3.4168e-13 1.22829e-13 -4.53502e-13 1.66009e-13 -4.58886e-13 -2.35349e-13 5.0111e-15 -1.16966e-14 -4.97115e-13 2.03401e-13 9.1072e-13 1.63654e-13 5.04341e-13 7.24587e-13 9.03167e-15 7.33506e-13 -2.33987e-13 -2.43508e-13 3.14629e-14 0 0 1.6841e-15 3.63077e-16 1.37477e-14 -4.00796e-15 5.53776e-14 2.19545e-14 -1.96962e-14 -1.31558e-14 -1.79932e-14 -4.38215e-14 -7.99187e-14 1.05939e-13 -1.97877e-13 -4.20435e-14 -9.73494e-14 9.76329e-15 -1.3651e-13 1.54586e-15 -3.43695e-14 -1.35402e-13 -3.08885e-14 -7.9093e-14 -2.95237e-13 1.32974e-13 -1.66589e-13 -1.05186e-13 -1.21889e-13 -9.41381e-15 -1.16914e-13 1.39956e-13 -1.22229e-13 -7.73851e-14 -2.10948e-13 -6.97593e-15 -3.03448e-13 -1.33348e-13 -4.2783e-14 -3.13598e-13 -5.41716e-14 -3.06309e-13 -1.34521e-13 4.15967e-14 -7.49552e-14 -1.18675e-13 1.76335e-13 -5.75012e-14 7.1364e-14 -1.66462e-13 1.07641e-13 -2.36282e-13 -1.17157e-13 -1.30294e-13 -3.51176e-13 2.71955e-13 2.01267e-12 1.79883e-11 1.27712e-10 8.64712e-10 5.46888e-09 3.23161e-08 1.77754e-07 9.06538e-07 4.26725e-06 1.84419e-05 7.27185e-05 0.000259697 0.00083287 0.0023768 0.00598519 0.0132375 0.0257358 0.0443039 0.0685076 0.0969656 0.12813 0.160841 0.194379 0.228383 0.262663 0.297056 0.331445 0.36578 0.400016 0.434122 0.468062 0.501802 0.535305 0.568531 0.601433 0.63396 0.666056 0.697655 0.728689 0.759085 0.788774 0.817703 0.845848 0.873228 0.899908 0.926591 0.941655 0.9414 0.940467 0.93923 0.937728 0.93618 0.934662 0.933258 0.93203 0.931027 0.930123 0.929506 0.928956 0.928488 0.928165 0.927868 0.927651 0.927815 0.926978 0.917289 0.929145 0.925155 0.930565 0.92705 0.928374 0.929713 0.92976 0.929768 0.929773 0.929789 0.929731 0.929575 0.929376 0.929199 0.929096 0.929016 0.928761 0.925991 0.915024 0.886864 0.830542 0.742265 0.623903 0.484931 0.341634 0.213 0.115447 0.0543225 0.022846 0.00899954 0.00342869 0.00128541 0.000477708 0.000176447 6.48141e-05 2.36736e-05 8.59417e-06 3.09917e-06 1.10952e-06 3.94108e-07 1.38818e-07 4.84618e-08 1.67586e-08 5.73871e-09 1.94487e-09 6.51721e-10 2.16153e-10 7.03061e-11 2.27161e-11 7.13581e-12 1.46838e-12 6.25527e-13 -1.66969e-13 6.30805e-14 -2.72896e-13 -2.27605e-13 3.76133e-13 -2.27955e-13 1.91441e-13 -4.04425e-13 1.93031e-13 -8.52589e-13 -3.71427e-14 -2.62317e-13 1.10443e-13 -1.30584e-13 -2.09854e-13 -1.52549e-13 9.65643e-15 5.16615e-14 -4.56127e-13 9.35374e-13 3.02416e-13 3.96777e-13 3.29433e-13 3.57048e-14 4.62382e-13 -3.20593e-13 -2.52985e-13 0 0 1.06687e-14 2.79384e-14 6.54301e-14 4.25693e-14 1.03363e-14 5.42809e-14 -2.27928e-14 1.54393e-14 4.03713e-14 -7.49034e-14 -1.54514e-14 -1.03271e-13 9.0476e-14 -1.38659e-13 -4.79146e-14 -1.46769e-13 -3.07651e-14 -2.93759e-14 -7.56803e-14 -5.34206e-14 -3.47457e-14 -2.38701e-13 1.3074e-13 -2.19338e-13 -3.17956e-14 -6.92415e-14 -1.81108e-13 -1.54505e-13 9.53178e-14 -1.26249e-13 5.8314e-14 -1.92268e-13 8.88636e-15 -4.22806e-13 -1.73078e-13 -1.65399e-14 -1.25016e-13 -1.27362e-13 -2.6356e-13 5.97695e-14 -3.18105e-13 5.4988e-14 8.57299e-15 1.71959e-13 -1.72287e-13 -5.22683e-14 -2.23328e-13 4.33474e-15 -1.90526e-13 4.2341e-14 -3.37493e-14 -6.52812e-14 -2.37278e-13 -2.09726e-13 2.62762e-12 1.80463e-11 1.27822e-10 8.64505e-10 5.469e-09 3.23162e-08 1.77754e-07 9.06538e-07 4.26725e-06 1.84419e-05 7.27185e-05 0.000259697 0.00083287 0.0023768 0.00598519 0.0132375 0.0257358 0.0443039 0.0685076 0.0969656 0.12813 0.160841 0.194379 0.228383 0.262663 0.297056 0.331445 0.36578 0.400016 0.434122 0.468062 0.501802 0.535305 0.568531 0.601433 0.63396 0.666056 0.697655 0.728689 0.759085 0.788774 0.817703 0.845848 0.873228 0.899908 0.926591 0.941655 0.9414 0.940467 0.93923 0.937728 0.93618 0.934662 0.933258 0.93203 0.931027 0.930123 0.929506 0.928956 0.928488 0.928165 0.927868 0.927651 0.927815 0.926978 0.917289 0.929145 0.925155 0.930565 0.92705 0.928374 0.929713 0.92976 0.929768 0.929773 0.929789 0.929731 0.929575 0.929376 0.929199 0.929096 0.929016 0.928761 0.925991 0.915024 0.886864 0.830542 0.742265 0.623903 0.484931 0.341634 0.213 0.115447 0.0543225 0.022846 0.00899954 0.00342869 0.00128541 0.000477708 0.000176447 6.48141e-05 2.36736e-05 8.59417e-06 3.09917e-06 1.10952e-06 3.94108e-07 1.38818e-07 4.84616e-08 1.67593e-08 5.73864e-09 1.94474e-09 6.519e-10 2.1609e-10 7.06131e-11 2.25319e-11 6.75964e-12 2.41231e-12 1.17047e-14 5.04706e-14 -2.46373e-13 2.67635e-13 -2.07039e-13 9.9334e-14 1.4314e-13 -2.38534e-13 -3.55403e-13 -4.51316e-13 -4.99291e-13 -7.94206e-13 1.93058e-13 -7.63796e-15 -3.22648e-13 -1.59837e-13 -8.99162e-14 -1.24377e-13 2.13845e-13 -2.40929e-13 3.20448e-14 3.69524e-13 2.46783e-13 5.15271e-13 -2.38743e-14 -1.38533e-13 1.09835e-12 -3.33658e-13 0 0 1.97756e-14 5.65773e-14 6.41361e-14 5.18578e-14 2.18791e-14 4.52258e-14 -1.63421e-14 -1.40389e-14 -1.32483e-14 -1.35454e-14 2.04337e-14 -6.97787e-14 2.86462e-14 -1.45922e-13 4.27365e-14 -3.66243e-14 -1.15239e-13 -1.14133e-13 -9.29058e-14 -5.94005e-15 -1.91068e-13 2.71095e-14 2.58032e-14 -8.28452e-14 -1.18878e-13 1.389e-14 -1.02694e-13 -6.28487e-14 -1.3222e-13 -1.39436e-13 -6.78184e-14 -1.56001e-13 -2.35777e-13 -1.89685e-13 -5.86801e-14 -1.6759e-13 -1.89013e-13 5.76085e-14 -4.83007e-14 -1.99966e-13 -1.17819e-13 -7.34061e-14 4.88843e-14 5.82356e-14 -1.24057e-13 -1.9106e-13 -1.44154e-13 8.15416e-14 1.50147e-13 8.21257e-14 -3.40828e-13 -2.36514e-13 4.64132e-14 1.10871e-13 2.31643e-12 1.79912e-11 1.28035e-10 8.64509e-10 5.46896e-09 3.23164e-08 1.77754e-07 9.06538e-07 4.26726e-06 1.84419e-05 7.27185e-05 0.000259697 0.00083287 0.0023768 0.00598519 0.0132375 0.0257358 0.0443039 0.0685076 0.0969656 0.12813 0.160841 0.194379 0.228383 0.262663 0.297056 0.331445 0.36578 0.400016 0.434122 0.468062 0.501802 0.535305 0.568531 0.601433 0.63396 0.666056 0.697655 0.728689 0.759085 0.788774 0.817703 0.845848 0.873228 0.899908 0.926591 0.941655 0.9414 0.940467 0.93923 0.937728 0.93618 0.934662 0.933258 0.93203 0.931027 0.930123 0.929506 0.928956 0.928488 0.928165 0.927868 0.927651 0.927815 0.926978 0.917289 0.929145 0.925155 0.930565 0.92705 0.928374 0.929713 0.92976 0.929768 0.929773 0.929789 0.929731 0.929575 0.929376 0.929199 0.929096 0.929016 0.928761 0.925991 0.915024 0.886864 0.830542 0.742265 0.623903 0.484931 0.341634 0.213 0.115447 0.0543225 0.022846 0.00899954 0.00342869 0.00128541 0.000477708 0.000176447 6.48141e-05 2.36736e-05 8.59417e-06 3.09917e-06 1.10952e-06 3.94108e-07 1.38818e-07 4.84615e-08 1.67594e-08 5.73833e-09 1.94464e-09 6.51941e-10 2.16175e-10 7.05674e-11 2.28205e-11 6.97458e-12 2.18987e-12 -4.59788e-14 -1.92492e-13 -4.79817e-14 -2.11685e-13 4.23474e-13 -1.0567e-14 1.18341e-13 -6.53163e-13 -2.37779e-13 -2.78129e-13 2.15144e-14 -3.1519e-13 -4.88725e-13 -3.75317e-13 8.25517e-14 -4.16628e-13 -1.62928e-13 4.46937e-14 3.65499e-13 -3.29045e-13 2.39303e-13 5.59767e-13 -7.18034e-14 2.31031e-13 4.71566e-13 -2.69282e-14 3.27439e-13 7.63223e-13 0 0 2.10207e-14 3.42148e-14 3.33081e-14 8.81212e-15 7.07741e-14 6.82495e-15 -5.78547e-15 -2.71607e-14 -3.03771e-14 -2.72503e-14 -4.98895e-14 1.30929e-13 -1.51804e-13 2.45832e-14 -6.56407e-14 8.7988e-14 -1.44339e-13 -1.76396e-14 -8.14504e-14 -9.00957e-14 -8.07512e-14 8.6904e-14 -2.94001e-13 2.65624e-13 -2.12871e-13 -1.86705e-13 -7.29134e-14 -1.0972e-13 -2.25487e-13 -2.96241e-14 -2.02952e-13 2.38762e-14 -3.35656e-13 3.03656e-13 -1.36258e-13 -3.87961e-14 8.26126e-14 -3.07849e-13 -4.12413e-14 -3.64213e-13 -5.9686e-14 -2.11562e-14 -1.29117e-14 -1.338e-13 1.7481e-13 -2.11349e-13 5.76465e-14 -1.37306e-13 2.80907e-13 -2.73759e-13 -3.86514e-13 -3.621e-13 -7.95218e-14 5.96948e-13 2.06791e-12 1.80933e-11 1.27869e-10 8.64834e-10 5.46907e-09 3.23165e-08 1.77754e-07 9.06538e-07 4.26725e-06 1.84419e-05 7.27185e-05 0.000259697 0.00083287 0.0023768 0.00598519 0.0132375 0.0257358 0.0443039 0.0685076 0.0969656 0.12813 0.160841 0.194379 0.228383 0.262663 0.297056 0.331445 0.36578 0.400016 0.434122 0.468062 0.501802 0.535305 0.568531 0.601433 0.63396 0.666056 0.697655 0.728689 0.759085 0.788774 0.817703 0.845848 0.873228 0.899908 0.926591 0.941655 0.9414 0.940467 0.93923 0.937728 0.93618 0.934662 0.933258 0.93203 0.931027 0.930123 0.929506 0.928956 0.928488 0.928165 0.927868 0.927651 0.927815 0.926978 0.917289 0.929145 0.925155 0.930565 0.92705 0.928374 0.929713 0.92976 0.929768 0.929773 0.929789 0.929731 0.929575 0.929376 0.929199 0.929096 0.929016 0.928761 0.925991 0.915024 0.886864 0.830542 0.742265 0.623903 0.484931 0.341634 0.213 0.115447 0.0543225 0.022846 0.00899954 0.00342869 0.00128541 0.000477708 0.000176447 6.48141e-05 2.36736e-05 8.59417e-06 3.09917e-06 1.10952e-06 3.94108e-07 1.38818e-07 4.84618e-08 1.67585e-08 5.73851e-09 1.94474e-09 6.5169e-10 2.16022e-10 7.05146e-11 2.30001e-11 7.45692e-12 1.59302e-12 4.81462e-13 -2.00228e-13 -6.37291e-14 -1.50767e-13 5.80627e-14 6.70009e-13 -2.89016e-13 -3.88164e-13 -7.4057e-13 6.92835e-14 -7.07071e-13 3.9021e-13 -3.61559e-13 3.76264e-14 2.10208e-13 -3.32077e-13 -2.30729e-13 2.14155e-13 -1.31743e-13 -4.3052e-13 7.20298e-13 2.53014e-13 -2.78823e-13 2.03801e-13 2.52511e-13 2.73704e-13 -6.37297e-13 6.94025e-13 0 0 1.52032e-14 8.09101e-15 4.46262e-14 5.96212e-14 -3.00597e-14 -1.93178e-14 -1.61657e-14 3.34544e-14 8.93086e-14 -1.04723e-13 -2.74646e-14 -2.06315e-13 2.44389e-13 -4.70353e-14 -6.40876e-14 -1.3131e-13 1.48936e-13 8.52265e-14 -1.69893e-13 -4.78198e-14 1.42184e-13 -3.6908e-13 2.34932e-13 -3.36412e-13 -8.39509e-15 -3.8843e-13 3.57593e-15 -5.63913e-13 3.03179e-13 -4.10774e-13 1.56351e-13 6.46426e-14 2.19277e-13 -3.04848e-13 -7.69795e-14 3.96983e-13 1.69521e-13 -3.16776e-13 -7.92906e-13 2.45587e-13 -4.5577e-13 -1.2855e-13 1.34916e-13 3.11232e-13 -1.89846e-13 7.18163e-14 -3.72549e-13 2.12365e-13 -4.41162e-13 -5.20478e-14 -1.43533e-13 -2.53336e-13 -2.34547e-13 -2.35331e-13 2.89415e-12 1.78447e-11 1.28062e-10 8.64669e-10 5.46946e-09 3.23165e-08 1.77754e-07 9.06538e-07 4.26725e-06 1.84419e-05 7.27185e-05 0.000259697 0.00083287 0.0023768 0.00598519 0.0132375 0.0257358 0.0443039 0.0685076 0.0969656 0.12813 0.160841 0.194379 0.228383 0.262663 0.297056 0.331445 0.36578 0.400016 0.434122 0.468062 0.501802 0.535305 0.568531 0.601433 0.63396 0.666056 0.697655 0.728689 0.759085 0.788774 0.817703 0.845848 0.873228 0.899908 0.926591 0.941655 0.9414 0.940467 0.93923 0.937728 0.93618 0.934662 0.933258 0.93203 0.931027 0.930123 0.929506 0.928956 0.928488 0.928165 0.927868 0.927651 0.927815 0.926978 0.917289 0.929145 0.925155 0.930565 0.92705 0.928374 0.929713 0.92976 0.929768 0.929773 0.929789 0.929731 0.929575 0.929376 0.929199 0.929096 0.929016 0.928761 0.925991 0.915024 0.886864 0.830542 0.742265 0.623903 0.484931 0.341634 0.213 0.115447 0.0543225 0.022846 0.00899954 0.00342869 0.00128541 0.000477708 0.000176447 6.48141e-05 2.36736e-05 8.59417e-06 3.09917e-06 1.10952e-06 3.94108e-07 1.38818e-07 4.84615e-08 1.67594e-08 5.73855e-09 1.94442e-09 6.51697e-10 2.1555e-10 7.11972e-11 2.23898e-11 7.02956e-12 3.03886e-12 -1.21669e-13 1.3397e-13 -7.90025e-13 1.22013e-12 -8.87221e-13 2.5792e-13 6.76501e-13 -2.63908e-13 -9.0237e-13 -9.35549e-13 -6.27747e-13 -5.56828e-13 1.33109e-12 1.30838e-13 -3.64163e-13 2.74148e-13 -2.20316e-14 -4.26259e-13 -4.66716e-13 1.13816e-12 -6.81015e-13 2.50513e-14 1.05602e-14 3.26246e-13 1.76237e-13 -8.34553e-13 6.64908e-13 -2.6828e-13 0
				</DataArray>
				<DataArray Name="VitesseY" type="Float32" format="ascii">