<?xml version="1.0"?>
<VTKFile type="PolyData">
	<PolyData>
		<Piece NumberOfPoints="1206" NumberOfPolys="1000">
			<Points>
				<DataArray type="Float32" NumberOfComponents="3" format="ascii">
 0 0 0 0.005 0 0 0.01 0 0 0.015 0 0 0.02 0 0 0.025 0 0 0.03 0 0 0.035 0 0 0.04 0 0 0.045 0 0 0.05 0 0 0.055 0 0 0.06 0 0 0.065 0 0 0.07 0 0 0.075 0 0 0.08 0 0 0.085 0 0 0.09 0 0 0.095 0 0 0.1 0 0 0.105 0 0 0.11 0 0 0.115 0 0 0.12 0 0 0.125 0 0 0.13 0 0 0.135 0 0 0.14 0 0 0.145 0 0 0.15 0 0 0.155 0 0 0.16 0 0 0.165 0 0 0.17 0 0 0.175 0 0 0.18 0 0 0.185 0 0 0.19 0 0 0.195 0 0 0.2 0 0 0.205 0 0 0.21 0 0 0.215 0 0 0.22 0 0 0.225 0 0 0.23 0 0 0.235 0 0 0.24 0 0 0.245 0 0 0.25 0 0 0.255 0 0 0.26 0 0 0.265 0 0 0.27 0 0 0.275 0 0 0.28 0 0 0.285 0 0 0.29 0 0 0.295 0 0 0.3 0 0 0.305 0 0 0.31 0 0 0.315 0 0 0.32 0 0 0.325 0 0 0.33 0 0 0.335 0 0 0.34 0 0 0.345 0 0 0.35 0 0 0.355 0 0 0.36 0 0 0.365 0 0 0.37 0 0 0.375 0 0 0.38 0 0 0.385 0 0 0.39 0 0 0.395 0 0 0.4 0 0 0.405 0 0 0.41 0 0 0.415 0 0 0.42 0 0 0.425 0 0 0.43 0 0 0.435 0 0 0.44 0 0 0.445 0 0 0.45 0 0 0.455 0 0 0.46 0 0 0.465 0 0 0.47 0 0 0.475 0 0 0.48 0 0 0.485 0 0 0.49 0 0 0.495 0 0 0.5 0 0 0.505 0 0 0.51 0 0 0.515 0 0 0.52 0 0 0.525 0 0 0.53 0 0 0.535 0 0 0.54 0 0 0.545 0 0 0.55 0 0 0.555 0 0 0.56 0 0 0.565 0 0 0.57 0 0 0.575 0 0 0.58 0 0 0.585 0 0 0.59 0 0 0.595 0 0 0.6 0 0 0.605 0 0 0.61 0 0 0.615 0 0 0.62 0 0 0.625 0 0 0.63 0 0 0.635 0 0 0.64 0 0 0.645 0 0 0.65 0 0 0.655 0 0 0.66 0 0 0.665 0 0 0.67 0 0 0.675 0 0 0.68 0 0 0.685 0 0 0.69 0 0 0.695 0 0 0.7 0 0 0.705 0 0 0.71 0 0 0.715 0 0 0.72 0 0 0.725 0 0 0.73 0 0 0.735 0 0 0.74 0 0 0.745 0 0 0.75 0 0 0.755 0 0 0.76 0 0 0.765 0 0 0.77 0 0 0.775 0 0 0.78 0 0 0.785 0 0 0.79 0 0 0.795 0 0 0.8 0 0 0.805 0 0 0.81 0 0 0.815 0 0 0.82 0 0 0.825 0 0 0.83 0 0 0.835 0 0 0.84 0 0 0.845 0 0 0.85 0 0 0.855 0 0 0.86 0 0 0.865 0 0 0.87 0 0 0.875 0 0 0.88 0 0 0.885 0 0 0.89 0 0 0.895 0 0 0.9 0 0 0.905 0 0 0.91 0 0 0.915 0 0 0.92 0 0 0.925 0 0 0.93 0 0 0.935 0 0 0.94 0 0 0.945 0 0 0.95 0 0 0.955 0 0 0.96 0 0 0.965 0 0 0.97 0 0 0.975 0 0 0.98 0 0 0.985 0 0 0.99 0 0 0.995 0 0 1 0 0 0 0.02 0 0.005 0.02 0 0.01 0.02 0 0.015 0.02 0 0.02 0.02 0 0.025 0.02 0 0.03 0.02 0 0.035 0.02 0 0.04 0.02 0 0.045 0.02 0 0.05 0.02 0 0.055 0.02 0 0.06 0.02 0 0.065 0.02 0 0.07 0.02 0 0.075 0.02 0 0.08 0.02 0 0.085 0.02 0 0.09 0.02 0 0.095 0.02 0 0.1 0.02 0 0.105 0.02 0 0.11 0.02 0 0.115 0.02 0 0.12 0.02 0 0.125 0.02 0 0.13 0.02 0 0.135 0.02 0 0.14 0.02 0 0.145 0.02 0 0.15 0.02 0 0.155 0.02 0 0.16 0.02 0 0.165 0.02 0 0.17 0.02 0 0.175 0.02 0 0.18 0.02 0 0.185 0.02 0 0.19 0.02 0 0.195 0.02 0 0.2 0.02 0 0.205 0.02 0 0.21 0.02 0 0.215 0.02 0 0.22 0.02 0 0.225 0.02 0 0.23 0.02 0 0.235 0.02 0 0.24 0.02 0 0.245 0.02 0 0.25 0.02 0 0.255 0.02 0 0.26 0.02 0 0.265 0.02 0 0.27 0.02 0 0.275 0.02 0 0.28 0.02 0 0.285 0.02 0 0.29 0.02 0 0.295 0.02 0 0.3 0.02 0 0.305 0.02 0 0.31 0.02 0 0.315 0.02 0 0.32 0.02 0 0.325 0.02 0 0.33 0.02 0 0.335 0.02 0 0.34 0.02 0 0.345 0.02 0 0.35 0.02 0 0.355 0.02 0 0.36 0.02 0 0.365 0.02 0 0.37 0.02 0 0.375 0.02 0 0.38 0.02 0 0.385 0.02 0 0.39 0.02 0 0.395 0.02 0 0.4 0.02 0 0.405 0.02 0 0.41 0.02 0 0.415 0.02 0 0.42 0.02 0 0.425 0.02 0 0.43 0.02 0 0.435 0.02 0 0.44 0.02 0 0.445 0.02 0 0.45 0.02 0 0.455 0.02 0 0.46 0.02 0 0.465 0.02 0 0.47 0.02 0 0.475 0.02 0 0.48 0.02 0 0.485 0.02 0 0.49 0.02 0 0.495 0.02 0 0.5 0.02 0 0.505 0.02 0 0.51 0.02 0 0.515 0.02 0 0.52 0.02 0 0.525 0.02 0 0.53 0.02 0 0.535 0.02 0 0.54 0.02 0 0.545 0.02 0 0.55 0.02 0 0.555 0.02 0 0.56 0.02 0 0.565 0.02 0 0.57 0.02 0 0.575 0.02 0 0.58 0.02 0 0.585 0.02 0 0.59 0.02 0 0.595 0.02 0 0.6 0.02 0 0.605 0.02 0 0.61 0.02 0 0.615 0.02 0 0.62 0.02 0 0.625 0.02 0 0.63 0.02 0 0.635 0.02 0 0.64 0.02 0 0.645 0.02 0 0.65 0.02 0 0.655 0.02 0 0.66 0.02 0 0.665 0.02 0 0.67 0.02 0 0.675 0.02 0 0.68 0.02 0 0.685 0.02 0 0.69 0.02 0 0.695 0.02 0 0.7 0.02 0 0.705 0.02 0 0.71 0.02 0 0.715 0.02 0 0.72 0.02 0 0.725 0.02 0 0.73 0.02 0 0.735 0.02 0 0.74 0.02 0 0.745 0.02 0 0.75 0.02 0 0.755 0.02 0 0.76 0.02 0 0.765 0.02 0 0.77 0.02 0 0.775 0.02 0 0.78 0.02 0 0.785 0.02 0 0.79 0.02 0 0.795 0.02 0 0.8 0.02 0 0.805 0.02 0 0.81 0.02 0 0.815 0.02 0 0.82 0.02 0 0.825 0.02 0 0.83 0.02 0 0.835 0.02 0 0.84 0.02 0 0.845 0.02 0 0.85 0.02 0 0.855 0.02 0 0.86 0.02 0 0.865 0.02 0 0.87 0.02 0 0.875 0.02 0 0.88 0.02 0 0.885 0.02 0 0.89 0.02 0 0.895 0.02 0 0.9 0.02 0 0.905 0.02 0 0.91 0.02 0 0.915 0.02 0 0.92 0.02 0 0.925 0.02 0 0.93 0.02 0 0.935 0.02 0 0.94 0.02 0 0.945 0.02 0 0.95 0.02 0 0.955 0.02 0 0.96 0.02 0 0.965 0.02 0 0.97 0.02 0 0.975 0.02 0 0.98 0.02 0 0.985 0.02 0 0.99 0.02 0 0.995 0.02 0 1 0.02 0 0 0.04 0 0.005 0.04 0 0.01 0.04 0 0.015 0.04 0 0.02 0.04 0 0.025 0.04 0 0.03 0.04 0 0.035 0.04 0 0.04 0.04 0 0.045 0.04 0 0.05 0.04 0 0.055 0.04 0 0.06 0.04 0 0.065 0.04 0 0.07 0.04 0 0.075 0.04 0 0.08 0.04 0 0.085 0.04 0 0.09 0.04 0 0.095 0.04 0 0.1 0.04 0 0.105 0.04 0 0.11 0.04 0 0.115 0.04 0 0.12 0.04 0 0.125 0.04 0 0.13 0.04 0 0.135 0.04 0 0.14 0.04 0 0.145 0.04 0 0.15 0.04 0 0.155 0.04 0 0.16 0.04 0 0.165 0.04 0 0.17 0.04 0 0.175 0.04 0 0.18 0.04 0 0.185 0.04 0 0.19 0.04 0 0.195 0.04 0 0.2 0.04 0 0.205 0.04 0 0.21 0.04 0 0.215 0.04 0 0.22 0.04 0 0.225 0.04 0 0.23 0.04 0 0.235 0.04 0 0.24 0.04 0 0.245 0.04 0 0.25 0.04 0 0.255 0.04 0 0.26 0.04 0 0.265 0.04 0 0.27 0.04 0 0.275 0.04 0 0.28 0.04 0 0.285 0.04 0 0.29 0.04 0 0.295 0.04 0 0.3 0.04 0 0.305 0.04 0 0.31 0.04 0 0.315 0.04 0 0.32 0.04 0 0.325 0.04 0 0.33 0.04 0 0.335 0.04 0 0.34 0.04 0 0.345 0.04 0 0.35 0.04 0 0.355 0.04 0 0.36 0.04 0 0.365 0.04 0 0.37 0.04 0 0.375 0.04 0 0.38 0.04 0 0.385 0.04 0 0.39 0.04 0 0.395 0.04 0 0.4 0.04 0 0.405 0.04 0 0.41 0.04 0 0.415 0.04 0 0.42 0.04 0 0.425 0.04 0 0.43 0.04 0 0.435 0.04 0 0.44 0.04 0 0.445 0.04 0 0.45 0.04 0 0.455 0.04 0 0.46 0.04 0 0.465 0.04 0 0.47 0.04 0 0.475 0.04 0 0.48 0.04 0 0.485 0.04 0 0.49 0.04 0 0.495 0.04 0 0.5 0.04 0 0.505 0.04 0 0.51 0.04 0 0.515 0.04 0 0.52 0.04 0 0.525 0.04 0 0.53 0.04 0 0.535 0.04 0 0.54 0.04 0 0.545 0.04 0 0.55 0.04 0 0.555 0.04 0 0.56 0.04 0 0.565 0.04 0 0.57 0.04 0 0.575 0.04 0 0.58 0.04 0 0.585 0.04 0 0.59 0.04 0 0.595 0.04 0 0.6 0.04 0 0.605 0.04 0 0.61 0.04 0 0.615 0.04 0 0.62 0.04 0 0.625 0.04 0 0.63 0.04 0 0.635 0.04 0 0.64 0.04 0 0.645 0.04 0 0.65 0.04 0 0.655 0.04 0 0.66 0.04 0 0.665 0.04 0 0.67 0.04 0 0.675 0.04 0 0.68 0.04 0 0.685 0.04 0 0.69 0.04 0 0.695 0.04 0 0.7 0.04 0 0.705 0.04 0 0.71 0.04 0 0.715 0.04 0 0.72 0.04 0 0.725 0.04 0 0.73 0.04 0 0.735 0.04 0 0.74 0.04 0 0.745 0.04 0 0.75 0.04 0 0.755 0.04 0 0.76 0.04 0 0.765 0.04 0 0.77 0.04 0 0.775 0.04 0 0.78 0.04 0 0.785 0.04 0 0.79 0.04 0 0.795 0.04 0 0.8 0.04 0 0.805 0.04 0 0.81 0.04 0 0.815 0.04 0 0.82 0.04 0 0.825 0.04 0 0.83 0.04 0 0.835 0.04 0 0.84 0.04 0 0.845 0.04 0 0.85 0.04 0 0.855 0.04 0 0.86 0.04 0 0.865 0.04 0 0.87 0.04 0 0.875 0.04 0 0.88 0.04 0 0.885 0.04 0 0.89 0.04 0 0.895 0.04 0 0.9 0.04 0 0.905 0.04 0 0.91 0.04 0 0.915 0.04 0 0.92 0.04 0 0.925 0.04 0 0.93 0.04 0 0.935 0.04 0 0.94 0.04 0 0.945 0.04 0 0.95 0.04 0 0.955 0.04 0 0.96 0.04 0 0.965 0.04 0 0.97 0.04 0 0.975 0.04 0 0.98 0.04 0 0.985 0.04 0 0.99 0.04 0 0.995 0.04 0 1 0.04 0 0 0.06 0 0.005 0.06 0 0.01 0.06 0 0.015 0.06 0 0.02 0.06 0 0.025 0.06 0 0.03 0.06 0 0.035 0.06 0 0.04 0.06 0 0.045 0.06 0 0.05 0.06 0 0.055 0.06 0 0.06 0.06 0 0.065 0.06 0 0.07 0.06 0 0.075 0.06 0 0.08 0.06 0 0.085 0.06 0 0.09 0.06 0 0.095 0.06 0 0.1 0.06 0 0.105 0.06 0 0.11 0.06 0 0.115 0.06 0 0.12 0.06 0 0.125 0.06 0 0.13 0.06 0 0.135 0.06 0 0.14 0.06 0 0.145 0.06 0 0.15 0.06 0 0.155 0.06 0 0.16 0.06 0 0.165 0.06 0 0.17 0.06 0 0.175 0.06 0 0.18 0.06 0 0.185 0.06 0 0.19 0.06 0 0.195 0.06 0 0.2 0.06 0 0.205 0.06 0 0.21 0.06 0 0.215 0.06 0 0.22 0.06 0 0.225 0.06 0 0.23 0.06 0 0.235 0.06 0 0.24 0.06 0 0.245 0.06 0 0.25 0.06 0 0.255 0.06 0 0.26 0.06 0 0.265 0.06 0 0.27 0.06 0 0.275 0.06 0 0.28 0.06 0 0.285 0.06 0 0.29 0.06 0 0.295 0.06 0 0.3 0.06 0 0.305 0.06 0 0.31 0.06 0 0.315 0.06 0 0.32 0.06 0 0.325 0.06 0 0.33 0.06 0 0.335 0.06 0 0.34 0.06 0 0.345 0.06 0 0.35 0.06 0 0.355 0.06 0 0.36 0.06 0 0.365 0.06 0 0.37 0.06 0 0.375 0.06 0 0.38 0.06 0 0.385 0.06 0 0.39 0.06 0 0.395 0.06 0 0.4 0.06 0 0.405 0.06 0 0.41 0.06 0 0.415 0.06 0 0.42 0.06 0 0.425 0.06 0 0.43 0.06 0 0.435 0.06 0 0.44 0.06 0 0.445 0.06 0 0.45 0.06 0 0.455 0.06 0 0.46 0.06 0 0.465 0.06 0 0.47 0.06 0 0.475 0.06 0 0.48 0.06 0 0.485 0.06 0 0.49 0.06 0 0.495 0.06 0 0.5 0.06 0 0.505 0.06 0 0.51 0.06 0 0.515 0.06 0 0.52 0.06 0 0.525 0.06 0 0.53 0.06 0 0.535 0.06 0 0.54 0.06 0 0.545 0.06 0 0.55 0.06 0 0.555 0.06 0 0.56 0.06 0 0.565 0.06 0 0.57 0.06 0 0.575 0.06 0 0.58 0.06 0 0.585 0.06 0 0.59 0.06 0 0.595 0.06 0 0.6 0.06 0 0.605 0.06 0 0.61 0.06 0 0.615 0.06 0 0.62 0.06 0 0.625 0.06 0 0.63 0.06 0 0.635 0.06 0 0.64 0.06 0 0.645 0.06 0 0.65 0.06 0 0.655 0.06 0 0.66 0.06 0 0.665 0.06 0 0.67 0.06 0 0.675 0.06 0 0.68 0.06 0 0.685 0.06 0 0.69 0.06 0 0.695 0.06 0 0.7 0.06 0 0.705 0.06 0 0.71 0.06 0 0.715 0.06 0 0.72 0.06 0 0.725 0.06 0 0.73 0.06 0 0.735 0.06 0 0.74 0.06 0 0.745 0.06 0 0.75 0.06 0 0.755 0.06 0 0.76 0.06 0 0.765 0.06 0 0.77 0.06 0 0.775 0.06 0 0.78 0.06 0 0.785 0.06 0 0.79 0.06 0 0.795 0.06 0 0.8 0.06 0 0.805 0.06 0 0.81 0.06 0 0.815 0.06 0 0.82 0.06 0 0.825 0.06 0 0.83 0.06 0 0.835 0.06 0 0.84 0.06 0 0.845 0.06 0 0.85 0.06 0 0.855 0.06 0 0.86 0.06 0 0.865 0.06 0 0.87 0.06 0 0.875 0.06 0 0.88 0.06 0 0.885 0.06 0 0.89 0.06 0 0.895 0.06 0 0.9 0.06 0 0.905 0.06 0 0.91 0.06 0 0.915 0.06 0 0.92 0.06 0 0.925 0.06 0 0.93 0.06 0 0.935 0.06 0 0.94 0.06 0 0.945 0.06 0 0.95 0.06 0 0.955 0.06 0 0.96 0.06 0 0.965 0.06 0 0.97 0.06 0 0.975 0.06 0 0.98 0.06 0 0.985 0.06 0 0.99 0.06 0 0.995 0.06 0 1 0.06 0 0 0.08 0 0.005 0.08 0 0.01 0.08 0 0.015 0.08 0 0.02 0.08 0 0.025 0.08 0 0.03 0.08 0 0.035 0.08 0 0.04 0.08 0 0.045 0.08 0 0.05 0.08 0 0.055 0.08 0 0.06 0.08 0 0.065 0.08 0 0.07 0.08 0 0.075 0.08 0 0.08 0.08 0 0.085 0.08 0 0.09 0.08 0 0.095 0.08 0 0.1 0.08 0 0.105 0.08 0 0.11 0.08 0 0.115 0.08 0 0.12 0.08 0 0.125 0.08 0 0.13 0.08 0 0.135 0.08 0 0.14 0.08 0 0.145 0.08 0 0.15 0.08 0 0.155 0.08 0 0.16 0.08 0 0.165 0.08 0
[...]
			<PointData Scalars="VitesseX">
				<DataArray Name="VitesseX" type="Float32" format="ascii">
 0 1.05624e-14 1.31387e-14 6.03379e-14 -6.01821e-15 -5.26369e-14 2.11094e-14 8.24491e-15 -1.87317e-14 4.27059e-14 -3.35275e-14 -1.90494e-14 -1.6015e-13 3.32234e-14 -7.60025e-14 1.2272e-14 -5.0917e-14 -3.31064e-14 -9.32244e-14 -9.32211e-14 -8.52123e-14 -1.01818e-13 -2.34677e-13 3.137e-14 -1.61858e-13 -6.34987e-14 -2.37495e-13 3.27168e-14 -1.30736e-13 6.2194e-14 -1.99006e-13 5.19656e-14 -1.1128e-13 2.61172e-14 -4.34448e-13 -1.99892e-13 -1.82111e-14 -2.82666e-13 6.21188e-14 -4.06508e-13 3.80123e-14 -4.31348e-13 9.61206e-14 1.67552e-13 1.69053e-13 -1.5418e-13 -5.88568e-14 -1.94182e-13 3.73276e-13 -5.37109e-14 -2.69352e-14 -3.48342e-13 1.22478e-12 1.22623e-11 8.27398e-11 5.4197e-10 3.32316e-09 1.91064e-08 1.02709e-07 5.14396e-07 2.39059e-06 1.02617e-05 4.04662e-05 0.000145664 0.000475086 0.00139235 0.00363638 0.00840927 0.0171853 0.0311343 0.0504994 0.0744764 0.101714 0.130951 0.161325 0.19232 0.223692 0.255295 0.28701 0.318745 0.350447 0.382085 0.413635 0.445069 0.476364 0.507493 0.53843 0.569144 0.599601 0.629763 0.659586 0.689025 0.718027 0.746538 0.774505 0.801879 0.828628 0.854745 0.880268 0.905336 0.930667 0.940899 0.94066 0.939895 0.938847 0.937532 0.936049 0.934552 0.933164 0.931937 0.930908 0.930098 0.929496 0.929004 0.928765 0.928512 0.928262 0.928045 0.927784 0.927655 0.927732 0.927079 0.913523 0.931776 0.926032 0.929099 0.926913 0.928778 0.929239 0.929317 0.929445 0.929566 0.929589 0.929587 0.929566 0.929518 0.929429 0.929319 0.929201 0.92911 0.928926 0.92784 0.922073 0.904863 0.865693 0.796219 0.69485 0.566723 0.424067 0.284949 0.16808 0.0859469 0.0384958 0.0157276 0.0061155 0.00232152 0.000871215 0.000324844 0.000120547 4.45366e-05 1.63783e-05 5.99285e-06 2.18069e-06 7.88716e-07 2.83389e-07 1.011e-07 3.57939e-08 1.25701e-08 4.37692e-09 1.51011e-09 5.16116e-10 1.74501e-10 5.82382e-11 1.92423e-11 5.6681e-12 1.96413e-12 3.6464e-13 -5.33378e-13 2.09615e-13 -1.68697e-13 2.76091e-13 -4.15942e-13 -2.37091e-13 -2.00371e-13 3.16968e-13 -8.21196e-13 -1.59498e-13 4.04192e-13 -2.52996e-13 -9.75116e-14 4.46424e-14 7.49851e-13 5.76857e-13 4.22595e-13 4.05016e-13 5.06852e-14 3.52282e-13 1.23156e-13 -1.03755e-13 7.49045e-13 0 0 1.4775e-14 1.90834e-14 1.09902e-14 2.71708e-14 4.29942e-14 4.44758e-15 -1.52046e-14 1.86558e-14 -7.7124e-14 -2.32989e-14 -4.03044e-14 7.90106e-14 -1.8003e-13 -3.64189e-14 -3.99641e-14 9.1576e-15 -1.51241e-13 1.91795e-14 -4.52403e-14 -1.20235e-13 -9.11388e-14 -1.12503e-14 -3.3393e-13 6.77549e-14 -1.52734e-13 5.38715e-14 -2.16509e-13 -9.94501e-14 -1.74977e-13 1.60134e-13 -1.7292e-13 -6.98196e-14 -2.41883e-13 3.50944e-15 -2.77101e-13 -1.82367e-13 -5.68121e-14 -2.68911e-13 9.72426e-14 -2.99506e-13 2.49953e-15 -4.55868e-14 -8.67978e-14 -5.90338e-14 8.58455e-14 4.20508e-14 -1.00396e-13 -2.08393e-13 5.69657e-14 -1.58327e-13 -1.03666e-14 1.28632e-12 1.1971e-11 8.33103e-11 5.41714e-10 3.32287e-09 1.91062e-08 1.0271e-07 5.14396e-07 2.39059e-06 1.02617e-05 4.04662e-05 0.000145664 0.000475086 0.00139235 0.00363638 0.00840927 0.0171853 0.0311343 0.0504994 0.0744764 0.101714 0.130951 0.161325 0.19232 0.223692 0.255295 0.28701 0.318745 0.350447 0.382085 0.413635 0.445069 0.476364 0.507493 0.53843 0.569144 0.599601 0.629763 0.659586 0.689025 0.718027 0.746538 0.774505 0.801879 0.828628 0.854745 0.880268 0.905336 0.930667 0.940899 0.94066 0.939895 0.938847 0.937532 0.936049 0.934552 0.933164 0.931937 0.930908 0.930098 0.929496 0.929004 0.928765 0.928512 0.928262 0.928045 0.927784 0.927655 0.927732 0.927079 0.913523 0.931776 0.926032 0.929099 0.926913 0.928778 0.929239 0.929317 0.929445 0.929566 0.929589 0.929587 0.929566 0.929518 0.929429 0.929319 0.929201 0.92911 0.928926 0.92784 0.922073 0.904863 0.865693 0.796219 0.69485 0.566723 0.424067 0.284949 0.16808 0.0859469 0.0384958 0.0157276 0.0061155 0.00232152 0.000871215 0.000324844 0.000120547 4.45366e-05 1.63783e-05 5.99285e-06 2.18069e-06 7.88715e-07 2.83388e-07 1.011e-07 3.57938e-08 1.25704e-08 4.37672e-09 1.51008e-09 5.16024e-10 1.74534e-10 5.83838e-11 1.91125e-11 6.19053e-12 1.41064e-12 3.444e-13 3.52487e-13 -3.11031e-13 -1.10309e-13 -5.06131e-13 -2.36253e-13 1.6445e-13 -3.69383e-14 -7.47013e-13 3.67879e-13 -1.98737e-14 -2.40264e-13 1.82463e-13 -3.17424e-13 7.59487e-13 -3.39819e-13 2.78187e-13 4.10835e-13 2.2028e-13 4.0654e-13 2.14657e-13 1.29443e-13 1.86541e-13 -3.07732e-13 0 0 8.30661e-15 3.68023e-14 5.76754e-14 3.83769e-14 3.45705e-14 3.02256e-14 -1.53037e-14 -3.11817e-14 6.72509e-14 -4.5783e-14 -7.55241e-14 -7.14954e-14 6.18392e-14 -5.5126e-14 -9.57377e-14 -9.2711e-14 -9.57259e-14 5.68288e-14 -6.87683e-14 -8.55599e-14 7.92844e-15 -1.54916e-13 8.25185e-14 -2.01595e-13 -3.10553e-15 -1.91195e-13 -1.86332e-13 -1.94358e-13 -1.2611e-14 -5.51565e-14 1.03333e-15 -1.61248e-13 -7.04974e-14 -3.09128e-13 -1.80354e-13 -7.69641e-14 9.04427e-15 -2.64753e-13 -1.63041e-13 1.78329e-13 -2.85995e-13 -3.00222e-14 6.33609e-14 -9.1103e-15 -1.73639e-13 5.29358e-14 -2.24552e-13 8.4143e-14 -1.82673e-13 -1.79744e-13 9.67425e-14 1.49777e-12 1.18713e-11 8.3537e-11 5.41782e-10 3.32275e-09 1.91066e-08 1.02709e-07 5.14396e-07 2.39059e-06 1.02617e-05 4.04662e-05 0.000145664 0.000475086 0.00139235 0.00363638 0.00840927 0.0171853 0.0311343 0.0504994 0.0744764 0.101714 0.130951 0.161325 0.19232 0.223692 0.255295 0.28701 0.318745 0.350447 0.382085 0.413635 0.445069 0.476364 0.507493 0.53843 0.569144 0.599601 0.629763 0.659586 0.689025 0.718027 0.746538 0.774505 0.801879 0.828628 0.854745 0.880268 0.905336 0.930667 0.940899 0.940661 0.939895 0.938847 0.937532 0.936049 0.934552 0.933164 0.931937 0.930908 0.930098 0.929496 0.929004 0.928765 0.928512 0.928262 0.928045 0.927784 0.927655 0.927732 0.927079 0.913523 0.931776 0.926032 0.929099 0.926913 0.928778 0.929239 0.929317 0.929445 0.929566 0.929589 0.929587 0.929566 0.929518 0.929429 0.929319 0.929201 0.92911 0.928926 0.92784 0.922073 0.904863 0.865693 0.796219 0.69485 0.566723 0.424067 0.284949 0.16808 0.0859469 0.0384958 0.0157276 0.0061155 0.00232152 0.000871215 0.000324844 0.000120547 4.45366e-05 1.63783e-05 5.99285e-06 2.18069e-06 7.88716e-07 2.83388e-07 1.011e-07 3.57939e-08 1.25704e-08 4.37681e-09 1.51034e-09 5.16123e-10 1.74451e-10 5.83013e-11 1.93839e-11 5.98947e-12 1.95115e-12 3.0043e-13 -4.29035e-13 2.82682e-13 -3.24485e-13 -2.18741e-13 -6.63963e-13 1.54394e-13 -6.68627e-13 3.83133e-13 -1.03689e-13 -7.43269e-14 -2.77065e-13 -4.0533e-14 3.42558e-13 -2.33169e-13 -1.72217e-13 2.52904e-13 -3.10676e-13 4.69209e-13 3.55694e-13 5.56415e-13 3.77619e-13 5.90595e-13 2.68145e-13 0 0 1.7696e-14 3.95621e-14 4.8278e-14 3.51698e-14 5.45716e-15 5.24754e-14 -3.43406e-14 4.00463e-15 -1.36176e-14 1.41892e-14 1.33894e-14 -5.21623e-14 2.91419e-14 -6.70236e-14 -1.16091e-14 -7.57573e-14 -1.37442e-13 -1.02398e-13 -2.84093e-14 -8.77487e-14 -4.78452e-14 2.76929e-14 5.49e-14 -5.10492e-14 -1.16254e-13 -1.66426e-13 -1.65668e-13 -6.04661e-14 -6.0547e-14 -1.98932e-13 -3.12911e-14 -2.70161e-13 -1.66688e-13 -1.82257e-13 3.40349e-15 -1.60291e-13 -1.81526e-13 1.07629e-13 -1.11917e-13 -1.66285e-13 -3.13663e-13 6.28989e-14 1.65106e-13 -6.65489e-14 -5.74779e-14 -1.44678e-13 -1.07695e-13 1.0708e-13 2.02068e-13 -1.11592e-13 -3.11413e-13 1.5376e-12 1.22898e-11 8.31862e-11 5.4204e-10 3.32314e-09 1.91067e-08 1.02709e-07 5.14396e-07 2.39059e-06 1.02617e-05 4.04662e-05 0.000145664 0.000475086 0.00139235 0.00363638 0.00840927 0.0171853 0.0311343 0.0504994 0.0744764 0.101714 0.130951 0.161325 0.19232 0.223692 0.255295 0.28701 0.318745 0.350447 0.382085 0.413635 0.445069 0.476364 0.507493 0.53843 0.569144 0.599601 0.629763 0.659586 0.689025 0.718027 0.746538 0.774505 0.801879 0.828628 0.854745 0.880268 0.905336 0.930667 0.940899 0.94066 0.939895 0.938847 0.937532 0.936049 0.934552 0.933164 0.931937 0.930908 0.930098 0.929496 0.929004 0.928764 0.928512 0.928262 0.928045 0.927784 0.927655 0.927732 0.927079 0.913523 0.931776 0.926032 0.929099 0.926913 0.928778 0.929239 0.929317 0.929445 0.929566 0.929589 0.929587 0.929566 0.929518 0.929429 0.929319 0.929201 0.92911 0.928926 0.92784 0.922073 0.904863 0.865693 0.796219 0.69485 0.566723 0.424067 0.284949 0.16808 0.0859469 0.0384958 0.0157276 0.0061155 0.00232152 0.000871215 0.000324844 0.000120547 4.45366e-05 1.63783e-05 5.99285e-06 2.18069e-06 7.88715e-07 2.83389e-07 1.011e-07 3.57939e-08 1.25706e-08 4.37702e-09 1.51016e-09 5.16245e-10 1.74572e-10 5.81857e-11 1.90614e-11 6.19229e-12 2.15696e-12 2.61444e-13 -6.71941e-13 -5.39286e-13 2.42614e-13 2.12987e-13 -3.00191e-13 -1.75915e-13 -3.0291e-13 -1.5488e-13 -5.88006e-14 -1.45607e-13 -2.22209e-13 -4.60196e-13 4.05708e-13 -1.61201e-13 -2.26596e-13 6.25733e-13 1.34398e-13 -1.5212e-13 2.39452e-13 7.1346e-13 6.3896e-13 -3.74544e-13 2.19965e-13 0 0 1.57367e-14 1.54984e-14 -1.39022e-14 2.2706e-14 2.15285e-14 3.35176e-15 -4.45641e-14 5.04579e-14 -6.13352e-14 -3.97898e-14 4.73307e-14 1.10903e-13 -1.51088e-13 -2.36544e-15 8.85249e-15 3.799e-14 -1.31075e-13 -3.90241e-14 -2.52531e-14 -1.19039e-13 -3.78893e-14 1.00196e-13 -2.68745e-13 1.68332e-13 -1.97385e-13 -5.3763e-14 -1.83028e-13 -1.15694e-13 -2.28899e-13 -9.18668e-14 -1.48645e-13 -8.49475e-14 -2.69835e-13 1.94739e-13 8.94908e-16 -1.07179e-13 -2.33489e-14 -1.45933e-14 2.58727e-14 -5.15856e-13 -2.80392e-14 -2.48947e-14 -1.93803e-13 -1.36654e-13 1.67107e-13 -1.25171e-13 5.06249e-14 -2.9349e-13 2.37393e-13 -1.24157e-13 -1.89884e-13 1.57152e-12 1.21967e-11 8.319e-11 5.41963e-10 3.32322e-09 1.91066e-08 1.0271e-07 5.14396e-07 2.39059e-06 1.02617e-05 4.04662e-05 0.000145664 0.000475086 0.00139235 0.00363638 0.00840927 0.0171853 0.0311343 0.0504994 0.0744764 0.101714 0.130951 0.161325 0.19232 0.223692 0.255295 0.28701 0.318745 0.350447 0.382085 0.413635 0.445069 0.476364 0.507493 0.53843 0.569144 0.599601 0.629763 0.659586 0.689025 0.718027 0.746538 0.774505 0.801879 0.828628 0.854745 0.880268 0.905336 0.930667 0.940899 0.94066 0.939895 0.938847 0.937532 0.936049 0.934552 0.933164 0.931937 0.930908 0.930098 0.929496 0.929004 0.928764 0.928512 0.928262 0.928045 0.927784 0.927655 0.927732 0.927079 0.913523 0.931776 0.926032 0.929099 0.926913 0.928778 0.929239 0.929317 0.929445 0.929566 0.929589 0.929587 0.929566 0.929518 0.929429 0.929319 0.929201 0.92911 0.928926 0.92784 0.922073 0.904863 0.865693 0.796219 0.69485 0.566723 0.424067 0.284949 0.16808 0.0859469 0.0384958 0.0157276 0.0061155 0.00232152 0.000871215 0.000324844 0.000120547 4.45366e-05 1.63783e-05 5.99285e-06 2.18069e-06 7.88715e-07 2.83388e-07 1.011e-07 3.5794e-08 1.25703e-08 4.37725e-09 1.50979e-09 5.16543e-10 1.74508e-10 5.84193e-11 1.90473e-11 6.54611e-12 1.57652e-12 2.52453e-13 -1.06893e-13 -6.65054e-13 -7.65732e-14 -3.00326e-13 -9.20256e-15 1.08113e-13 3.9886e-14 -9.74531e-13 7.0563e-13 4.93076e-14 -2.31489e-13 -2.1749e-13 -3.85768e-13 5.4002e-13 -2.48699e-13 3.4226e-13 7.50682e-13 -3.14377e-13 2.63558e-13 -2.61291e-13 1.81173e-13 -3.00129e-13 -8.59146e-13 0 0 -6.29326e-15 4.49247e-16 2.9348e-14 -8.53351e-15 -3.73416e-14 -2.5582e-14 -1.24002e-14 -2.55001e-14 2.3602e-13 -1.86454e-13 -2.16063e-14 -1.35032e-13 1.56501e-13 1.58997e-14 -5.83521e-14 -2.71596e-14 9.06587e-14 1.08823e-13 -1.33965e-13 -7.8443e-14 1.16228e-13 -3.77003e-13 2.16977e-13 -2.61796e-13 7.34954e-14 -5.02302e-13 5.83498e-14 -4.31008e-13 5.02217e-14 -4.15457e-13 1.65164e-13 7.62887e-14 1.62592e-13 -3.05733e-13 -1.14161e-14 2.98818e-13 1.65401e-13 -1.7401e-13 -6.51496e-13 2.94542e-13 -4.3709e-13 -4.83373e-14 -2.49949e-13 1.2869e-13 -2.23977e-13 1.92617e-15 -1.25855e-13 1.5721e-13 -4.62338e-13 -9.48979e-14 1.08934e-13 1.71551e-12 1.18767e-11 8.32009e-11 5.41953e-10 3.32308e-09 1.91068e-08 1.0271e-07 5.14396e-07 2.39059e-06 1.02617e-05 4.04662e-05 0.000145664 0.000475086 0.00139235 0.00363638 0.00840927 0.0171853 0.0311343 0.0504994 0.0744764 0.101714 0.130951 0.161325 0.19232 0.223692 0.255295 0.28701 0.318745 0.350447 0.382085 0.413635 0.445069 0.476364 0.507493 0.53843 0.569144 0.599601 0.629763 0.659586 0.689025 0.718027 0.746538 0.774505 0.801879 0.828628 0.854745 0.880268 0.905336 0.930667 0.940899 0.940661 0.939895 0.938847 0.937532 0.936049 0.934552 0.933164 0.931937 0.930908 0.930098 0.929496 0.929004 0.928765 0.928512 0.928262 0.928045 0.927784 0.927655 0.927732 0.927079 0.913523 0.931776 0.926032 0.929099 0.926913 0.928778 0.929239 0.929317 0.929445 0.929566 0.929589 0.929587 0.929566 0.929518 0.929429 0.929319 0.929201 0.92911 0.928926 0.92784 0.922073 0.904863 0.865693 0.796219 0.69485 0.566723 0.424067 0.284949 0.16808 0.0859469 0.0384958 0.0157276 0.0061155 0.00232152 0.000871215 0.000324844 0.000120547 4.45366e-05 1.63783e-05 5.99285e-06 2.18069e-06 7.88716e-07 2.83388e-07 1.011e-07 3.57942e-08 1.25695e-08 4.37757e-09 1.50988e-09 5.16911e-10 1.74209e-10 5.85404e-11 1.9757e-11 5.97361e-12 1.88426e-12 2.58718e-13 -9.66328e-13 1.1455e-12 -1.23542e-12 -1.75755e-13 -6.89386e-13 3.10852e-13 -7.78155e-13 9.37958e-13 -2.3547e-13 1.21425e-13 3.1203e-13 -2.13576e-13 -3.60499e-13 -5.38227e-13 1.04085e-12 -4.0653e-14 2.1214e-13 5.78358e-13 -2.79556e-15 -9.13705e-13 -2.96067e-13 8.53185e-13 -2.57424e-13 0
				</DataArray>
				<DataArray Name="VitesseY" type="Float32" format="ascii">