<?xml version="1.0"?>
<VTKFile type="PolyData">
	<PolyData>
		<Piece NumberOfPoints="1206" NumberOfPolys="1000">
			<Points>
				<DataArray type="Float32" NumberOfComponents="3" format="ascii">
 0 0 0 0.005 0 0 0.01 0 0 0.015 0 0 0.02 0 0 0.025 0 0 0.03 0 0 0.035 0 0 0.04 0 0 0.045 0 0 0.05 0 0 0.055 0 0 0.06 0 0 0.065 0 0 0.07 0 0 0.075 0 0 0.08 0 0 0.085 0 0 0.09 0 0 0.095 0 0 0.1 0 0 0.105 0 0 0.11 0 0 0.115 0 0 0.12 0 0 0.125 0 0 0.13 0 0 0.135 0 0 0.14 0 0 0.145 0 0 0.15 0 0 0.155 0 0 0.16 0 0 0.165 0 0 0.17 0 0 0.175 0 0 0.18 0 0 0.185 0 0 0.19 0 0 0.195 0 0 0.2 0 0 0.205 0 0 0.21 0 0 0.215 0 0 0.22 0 0 0.225 0 0 0.23 0 0 0.235 0 0 0.24 0 0 0.245 0 0 0.25 0 0 0.255 0 0 0.26 0 0 0.265 0 0 0.27 0 0 0.275 0 0 0.28 0 0 0.285 0 0 0.29 0 0 0.295 0 0 0.3 0 0 0.305 0 0 0.31 0 0 0.315 0 0 0.32 0 0 0.325 0 0 0.33 0 0 0.335 0 0 0.34 0 0 0.345 0 0 0.35 0 0 0.355 0 0 0.36 0 0 0.365 0 0 0.37 0 0 0.375 0 0 0.38 0 0 0.385 0 0 0.39 0 0 0.395 0 0 0.4 0 0 0.405 0 0 0.41 0 0 0.415 0 0 0.42 0 0 0.425 0 0 0.43 0 0 0.435 0 0 0.44 0 0 0.445 0 0 0.45 0 0 0.455 0 0 0.46 0 0 0.465 0 0 0.47 0 0 0.475 0 0 0.48 0 0 0.485 0 0 0.49 0 0 0.495 0 0 0.5 0 0 0.505 0 0 0.51 0 0 0.515 0 0 0.52 0 0 0.525 0 0 0.53 0 0 0.535 0 0 0.54 0 0 0.545 0 0 0.55 0 0 0.555 0 0 0.56 0 0 0.565 0 0 0.57 0 0 0.575 0 0 0.58 0 0 0.585 0 0 0.59 0 0 0.595 0 0 0.6 0 0 0.605 0 0 0.61 0 0 0.615 0 0 0.62 0 0 0.625 0 0 0.63 0 0 0.635 0 0 0.64 0 0 0.645 0 0 0.65 0 0 0.655 0 0 0.66 0 0 0.665 0 0 0.67 0 0 0.675 0 0 0.68 0 0 0.685 0 0 0.69 0 0 0.695 0 0 0.7 0 0 0.705 0 0 0.71 0 0 0.715 0 0 0.72 0 0 0.725 0 0 0.73 0 0 0.735 0 0 0.74 0 0 0.745 0 0 0.75 0 0 0.755 0 0 0.76 0 0 0.765 0 0 0.77 0 0 0.775 0 0 0.78 0 0 0.785 0 0 0.79 0 0 0.795 0 0 0.8 0 0 0.805 0 0 0.81 0 0 0.815 0 0 0.82 0 0 0.825 0 0 0.83 0 0 0.835 0 0 0.84 0 0 0.845 0 0 0.85 0 0 0.855 0 0 0.86 0 0 0.865 0 0 0.87 0 0 0.875 0 0 0.88 0 0 0.885 0 0 0.89 0 0 0.895 0 0 0.9 0 0 0.905 0 0 0.91 0 0 0.915 0 0 0.92 0 0 0.925 0 0 0.93 0 0 0.935 0 0 0.94 0 0 0.945 0 0 0.95 0 0 0.955 0 0 0.96 0 0 0.965 0 0 0.97 0 0 0.975 0 0 0.98 0 0 0.985 0 0 0.99 0 0 0.995 0 0 1 0 0 0 0.02 0 0.005 0.02 0 0.01 0.02 0 0.015 0.02 0 0.02 0.02 0 0.025 0.02 0 0.03 0.02 0 0.035 0.02 0 0.04 0.02 0 0.045 0.02 0 0.05 0.02 0 0.055 0.02 0 0.06 0.02 0 0.065 0.02 0 0.07 0.02 0 0.075 0.02 0 0.08 0.02 0 0.085 0.02 0 0.09 0.02 0 0.095 0.02 0 0.1 0.02 0 0.105 0.02 0 0.11 0.02 0 0.115 0.02 0 0.12 0.02 0 0.125 0.02 0 0.13 0.02 0 0.135 0.02 0 0.14 0.02 0 0.145 0.02 0 0.15 0.02 0 0.155 0.02 0 0.16 0.02 0 0.165 0.02 0 0.17 0.02 0 0.175 0.02 0 0.18 0.02 0 0.185 0.02 0 0.19 0.02 0 0.195 0.02 0 0.2 0.02 0 0.205 0.02 0 0.21 0.02 0 0.215 0.02 0 0.22 0.02 0 0.225 0.02 0 0.23 0.02 0 0.235 0.02 0 0.24 0.02 0 0.245 0.02 0 0.25 0.02 0 0.255 0.02 0 0.26 0.02 0 0.265 0.02 0 0.27 0.02 0 0.275 0.02 0 0.28 0.02 0 0.285 0.02 0 0.29 0.02 0 0.295 0.02 0 0.3 0.02 0 0.305 0.02 0 0.31 0.02 0 0.315 0.02 0 0.32 0.02 0 0.325 0.02 0 0.33 0.02 0 0.335 0.02 0 0.34 0.02 0 0.345 0.02 0 0.35 0.02 0 0.355 0.02 0 0.36 0.02 0 0.365 0.02 0 0.37 0.02 0 0.375 0.02 0 0.38 0.02 0 0.385 0.02 0 0.39 0.02 0 0.395 0.02 0 0.4 0.02 0 0.405 0.02 0 0.41 0.02 0 0.415 0.02 0 0.42 0.02 0 0.425 0.02 0 0.43 0.02 0 0.435 0.02 0 0.44 0.02 0 0.445 0.02 0 0.45 0.02 0 0.455 0.02 0 0.46 0.02 0 0.465 0.02 0 0.47 0.02 0 0.475 0.02 0 0.48 0.02 0 0.485 0.02 0 0.49 0.02 0 0.495 0.02 0 0.5 0.02 0 0.505 0.02 0 0.51 0.02 0 0.515 0.02 0 0.52 0.02 0 0.525 0.02 0 0.53 0.02 0 0.535 0.02 0 0.54 0.02 0 0.545 0.02 0 0.55 0.02 0 0.555 0.02 0 0.56 0.02 0 0.565 0.02 0 0.57 0.02 0 0.575 0.02 0 0.58 0.02 0 0.585 0.02 0 0.59 0.02 0 0.595 0.02 0 0.6 0.02 0 0.605 0.02 0 0.61 0.02 0 0.615 0.02 0 0.62 0.02 0 0.625 0.02 0 0.63 0.02 0 0.635 0.02 0 0.64 0.02 0 0.645 0.02 0 0.65 0.02 0 0.655 0.02 0 0.66 0.02 0 0.665 0.02 0 0.67 0.02 0 0.675 0.02 0 0.68 0.02 0 0.685 0.02 0 0.69 0.02 0 0.695 0.02 0 0.7 0.02 0 0.705 0.02 0 0.71 0.02 0 0.715 0.02 0 0.72 0.02 0 0.725 0.02 0 0.73 0.02 0 0.735 0.02 0 0.74 0.02 0 0.745 0.02 0 0.75 0.02 0 0.755 0.02 0 0.76 0.02 0 0.765 0.02 0 0.77 0.02 0 0.775 0.02 0 0.78 0.02 0 0.785 0.02 0 0.79 0.02 0 0.795 0.02 0 0.8 0.02 0 0.805 0.02 0 0.81 0.02 0 0.815 0.02 0 0.82 0.02 0 0.825 0.02 0 0.83 0.02 0 0.835 0.02 0 0.84 0.02 0 0.845 0.02 0 0.85 0.02 0 0.855 0.02 0 0.86 0.02 0 0.865 0.02 0 0.87 0.02 0 0.875 0.02 0 0.88 0.02 0 0.885 0.02 0 0.89 0.02 0 0.895 0.02 0 0.9 0.02 0 0.905 0.02 0 0.91 0.02 0 0.915 0.02 0 0.92 0.02 0 0.925 0.02 0 0.93 0.02 0 0.935 0.02 0 0.94 0.02 0 0.945 0.02 0 0.95 0.02 0 0.955 0.02 0 0.96 0.02 0 0.965 0.02 0 0.97 0.02 0 0.975 0.02 0 0.98 0.02 0 0.985 0.02 0 0.99 0.02 0 0.995 0.02 0 1 0.02 0 0 0.04 0 0.005 0.04 0 0.01 0.04 0 0.015 0.04 0 0.02 0.04 0 0.025 0.04 0 0.03 0.04 0 0.035 0.04 0 0.04 0.04 0 0.045 0.04 0 0.05 0.04 0 0.055 0.04 0 0.06 0.04 0 0.065 0.04 0 0.07 0.04 0 0.075 0.04 0 0.08 0.04 0 0.085 0.04 0 0.09 0.04 0 0.095 0.04 0 0.1 0.04 0 0.105 0.04 0 0.11 0.04 0 0.115 0.04 0 0.12 0.04 0 0.125 0.04 0 0.13 0.04 0 0.135 0.04 0 0.14 0.04 0 0.145 0.04 0 0.15 0.04 0 0.155 0.04 0 0.16 0.04 0 0.165 0.04 0 0.17 0.04 0 0.175 0.04 0 0.18 0.04 0 0.185 0.04 0 0.19 0.04 0 0.195 0.04 0 0.2 0.04 0 0.205 0.04 0 0.21 0.04 0 0.215 0.04 0 0.22 0.04 0 0.225 0.04 0 0.23 0.04 0 0.235 0.04 0 0.24 0.04 0 0.245 0.04 0 0.25 0.04 0 0.255 0.04 0 0.26 0.04 0 0.265 0.04 0 0.27 0.04 0 0.275 0.04 0 0.28 0.04 0 0.285 0.04 0 0.29 0.04 0 0.295 0.04 0 0.3 0.04 0 0.305 0.04 0 0.31 0.04 0 0.315 0.04 0 0.32 0.04 0 0.325 0.04 0 0.33 0.04 0 0.335 0.04 0 0.34 0.04 0 0.345 0.04 0 0.35 0.04 0 0.355 0.04 0 0.36 0.04 0 0.365 0.04 0 0.37 0.04 0 0.375 0.04 0 0.38 0.04 0 0.385 0.04 0 0.39 0.04 0 0.395 0.04 0 0.4 0.04 0 0.405 0.04 0 0.41 0.04 0 0.415 0.04 0 0.42 0.04 0 0.425 0.04 0 0.43 0.04 0 0.435 0.04 0 0.44 0.04 0 0.445 0.04 0 0.45 0.04 0 0.455 0.04 0 0.46 0.04 0 0.465 0.04 0 0.47 0.04 0 0.475 0.04 0 0.48 0.04 0 0.485 0.04 0 0.49 0.04 0 0.495 0.04 0 0.5 0.04 0 0.505 0.04 0 0.51 0.04 0 0.515 0.04 0 0.52 0.04 0 0.525 0.04 0 0.53 0.04 0 0.535 0.04 0 0.54 0.04 0 0.545 0.04 0 0.55 0.04 0 0.555 0.04 0 0.56 0.04 0 0.565 0.04 0 0.57 0.04 0 0.575 0.04 0 0.58 0.04 0 0.585 0.04 0 0.59 0.04 0 0.595 0.04 0 0.6 0.04 0 0.605 0.04 0 0.61 0.04 0 0.615 0.04 0 0.62 0.04 0 0.625 0.04 0 0.63 0.04 0 0.635 0.04 0 0.64 0.04 0 0.645 0.04 0 0.65 0.04 0 0.655 0.04 0 0.66 0.04 0 0.665 0.04 0 0.67 0.04 0 0.675 0.04 0 0.68 0.04 0 0.685 0.04 0 0.69 0.04 0 0.695 0.04 0 0.7 0.04 0 0.705 0.04 0 0.71 0.04 0 0.715 0.04 0 0.72 0.04 0 0.725 0.04 0 0.73 0.04 0 0.735 0.04 0 0.74 0.04 0 0.745 0.04 0 0.75 0.04 0 0.755 0.04 0 0.76 0.04 0 0.765 0.04 0 0.77 0.04 0 0.775 0.04 0 0.78 0.04 0 0.785 0.04 0 0.79 0.04 0 0.795 0.04 0 0.8 0.04 0 0.805 0.04 0 0.81 0.04 0 0.815 0.04 0 0.82 0.04 0 0.825 0.04 0 0.83 0.04 0 0.835 0.04 0 0.84 0.04 0 0.845 0.04 0 0.85 0.04 0 0.855 0.04 0 0.86 0.04 0 0.865 0.04 0 0.87 0.04 0 0.875 0.04 0 0.88 0.04 0 0.885 0.04 0 0.89 0.04 0 0.895 0.04 0 0.9 0.04 0 0.905 0.04 0 0.91 0.04 0 0.915 0.04 0 0.92 0.04 0 0.925 0.04 0 0.93 0.04 0 0.935 0.04 0 0.94 0.04 0 0.945 0.04 0 0.95 0.04 0 0.955 0.04 0 0.96 0.04 0 0.965 0.04 0 0.97 0.04 0 0.975 0.04 0 0.98 0.04 0 0.985 0.04 0 0.99 0.04 0 0.995 0.04 0 1 0.04 0 0 0.06 0 0.005 0.06 0 0.01 0.06 0 0.015 0.06 0 0.02 0.06 0 0.025 0.06 0 0.03 0.06 0 0.035 0.06 0 0.04 0.06 0 0.045 0.06 0 0.05 0.06 0 0.055 0.06 0 0.06 0.06 0 0.065 0.06 0 0.07 0.06 0 0.075 0.06 0 0.08 0.06 0 0.085 0.06 0 0.09 0.06 0 0.095 0.06 0 0.1 0.06 0 0.105 0.06 0 0.11 0.06 0 0.115 0.06 0 0.12 0.06 0 0.125 0.06 0 0.13 0.06 0 0.135 0.06 0 0.14 0.06 0 0.145 0.06 0 0.15 0.06 0 0.155 0.06 0 0.16 0.06 0 0.165 0.06 0 0.17 0.06 0 0.175 0.06 0 0.18 0.06 0 0.185 0.06 0 0.19 0.06 0 0.195 0.06 0 0.2 0.06 0 0.205 0.06 0 0.21 0.06 0 0.215 0.06 0 0.22 0.06 0 0.225 0.06 0 0.23 0.06 0 0.235 0.06 0 0.24 0.06 0 0.245 0.06 0 0.25 0.06 0 0.255 0.06 0 0.26 0.06 0 0.265 0.06 0 0.27 0.06 0 0.275 0.06 0 0.28 0.06 0 0.285 0.06 0 0.29 0.06 0 0.295 0.06 0 0.3 0.06 0 0.305 0.06 0 0.31 0.06 0 0.315 0.06 0 0.32 0.06 0 0.325 0.06 0 0.33 0.06 0 0.335 0.06 0 0.34 0.06 0 0.345 0.06 0 0.35 0.06 0 0.355 0.06 0 0.36 0.06 0 0.365 0.06 0 0.37 0.06 0 0.375 0.06 0 0.38 0.06 0 0.385 0.06 0 0.39 0.06 0 0.395 0.06 0 0.4 0.06 0 0.405 0.06 0 0.41 0.06 0 0.415 0.06 0 0.42 0.06 0 0.425 0.06 0 0.43 0.06 0 0.435 0.06 0 0.44 0.06 0 0.445 0.06 0 0.45 0.06 0 0.455 0.06 0 0.46 0.06 0 0.465 0.06 0 0.47 0.06 0 0.475 0.06 0 0.48 0.06 0 0.485 0.06 0 0.49 0.06 0 0.495 0.06 0 0.5 0.06 0 0.505 0.06 0 0.51 0.06 0 0.515 0.06 0 0.52 0.06 0 0.525 0.06 0 0.53 0.06 0 0.535 0.06 0 0.54 0.06 0 0.545 0.06 0 0.55 0.06 0 0.555 0.06 0 0.56 0.06 0 0.565 0.06 0 0.57 0.06 0 0.575 0.06 0 0.58 0.06 0 0.585 0.06 0 0.59 0.06 0 0.595 0.06 0 0.6 0.06 0 0.605 0.06 0 0.61 0.06 0 0.615 0.06 0 0.62 0.06 0 0.625 0.06 0 0.63 0.06 0 0.635 0.06 0 0.64 0.06 0 0.645 0.06 0 0.65 0.06 0 0.655 0.06 0 0.66 0.06 0 0.665 0.06 0 0.67 0.06 0 0.675 0.06 0 0.68 0.06 0 0.685 0.06 0 0.69 0.06 0 0.695 0.06 0 0.7 0.06 0 0.705 0.06 0 0.71 0.06 0 0.715 0.06 0 0.72 0.06 0 0.725 0.06 0 0.73 0.06 0 0.735 0.06 0 0.74 0.06 0 0.745 0.06 0 0.75 0.06 0 0.755 0.06 0 0.76 0.06 0 0.765 0.06 0 0.77 0.06 0 0.775 0.06 0 0.78 0.06 0 0.785 0.06 0 0.79 0.06 0 0.795 0.06 0 0.8 0.06 0 0.805 0.06 0 0.81 0.06 0 0.815 0.06 0 0.82 0.06 0 0.825 0.06 0 0.83 0.06 0 0.835 0.06 0 0.84 0.06 0 0.845 0.06 0 0.85 0.06 0 0.855 0.06 0 0.86 0.06 0 0.865 0.06 0 0.87 0.06 0 0.875 0.06 0 0.88 0.06 0 0.885 0.06 0 0.89 0.06 0 0.895 0.06 0 0.9 0.06 0 0.905 0.06 0 0.91 0.06 0 0.915 0.06 0 0.92 0.06 0 0.925 0.06 0 0.93 0.06 0 0.935 0.06 0 0.94 0.06 0 0.945 0.06 0 0.95 0.06 0 0.955 0.06 0 0.96 0.06 0 0.965 0.06 0 0.97 0.06 0 0.975 0.06 0 0.98 0.06 0 0.985 0.06 0 0.99 0.06 0 0.995 0.06 0 1 0.06 0 0 0.08 0 0.005 0.08 0 0.01 0.08 0 0.015 0.08 0 0.02 0.08 0 0.025 0.08 0 0.03 0.08 0 0.035 0.08 0 0.04 0.08 0 0.045 0.08 0 0.05 0.08 0 0.055 0.08 0 0.06 0.08 0 0.065 0.08 0 0.07 0.08 0 0.075 0.08 0 0.08 0.08 0 0.085 0.08 0 0.09 0.08 0 0.095 0.08 0 0.1 0.08 0 0.105 0.08 0 0.11 0.08 0 0.115 0.08 0 0.12 0.08 0 0.125 0.08 0 0.13 0.08 0 0.135 0.08 0 0.14 0.08 0 0.145 0.08 0 0.15 0.08 0 0.155 0.08 0 0.16 0.08 0 0.165 0.08 0
[...]
			<PointData Scalars="VitesseX">
				<DataArray Name="VitesseX" type="Float32" format="ascii">
 0 -5.7384e-15 -3.87476e-15 -2.80092e-14 -6.63421e-16 -8.20503e-15 1.81547e-14 -3.98101e-14 4.26907e-14 4.82483e-14 3.02007e-15 -4.06906e-14 3.3768e-14 2.68349e-14 -1.57491e-13 3.08988e-14 -1.55924e-13 -1.76956e-14 -2.31654e-14 -1.97835e-14 -1.14521e-13 9.1163e-14 -1.96625e-13 8.89056e-14 -1.74696e-13 -2.45552e-14 -2.86167e-13 -6.33797e-14 -1.50069e-13 -1.46419e-13 6.8264e-14 -3.16552e-13 -8.04896e-14 -2.3687e-13 -1.58121e-13 9.61106e-13 4.99049e-12 2.86783e-11 1.54806e-10 7.98374e-10 3.91498e-09 1.82302e-08 8.04738e-08 3.35935e-07 1.32262e-06 4.89624e-06 1.69832e-05 5.4973e-05 0.00016528 0.000459124 0.00117158 0.00273084 0.00578869 0.0111337 0.0194525 0.0310428 0.045679 0.06274 0.0814907 0.101313 0.121787 0.142658 0.163777 0.185075 0.206502 0.228022 0.249604 0.271226 0.292865 0.314502 0.33613 0.357742 0.379331 0.400892 0.422419 0.443909 0.465357 0.486757 0.508105 0.529395 0.550621 0.571777 0.592856 0.61385 0.634751 0.655549 0.676233 0.696794 0.717217 0.737492 0.757606 0.777545 0.797301 0.816867 0.836241 0.855434 0.874464 0.893346 0.912086 0.930999 0.937992 0.937728 0.937113 0.936426 0.935639 0.934757 0.933841 0.932924 0.932037 0.931214 0.930478 0.929841 0.929308 0.928881 0.928555 0.928275 0.92806 0.927856 0.927661 0.927496 0.927335 0.927196 0.9271 0.927048 0.92709 0.927116 0.92711 0.927112 0.927277 0.927349 0.927226 0.926884 0.927161 0.927686 0.928427 0.914652 0.898324 0.927357 0.928428 0.928711 0.928603 0.928632 0.928808 0.928954 0.929007 0.928962 0.928859 0.928747 0.928619 0.928485 0.928354 0.928233 0.928129 0.928047 0.927985 0.927939 0.927897 0.927863 0.927829 0.9278 0.927849 0.927814 0.927446 0.924423 0.914071 0.888146 0.835889 0.752674 0.639219 0.503822 0.361471 0.230727 0.128589 0.0623051 0.0268813 0.0108117 0.00419784 0.00160441 0.000609051 0.000230465 8.70455e-05 3.28293e-05 1.23646e-05 4.65013e-06 1.74602e-06 6.54419e-07 2.44788e-07 9.1359e-08 3.4012e-08 1.26278e-08 4.67363e-09 1.72497e-09 6.33405e-10 2.31927e-10 8.48587e-11 3.04283e-11 1.12375e-11 3.50753e-12 1.65846e-12 2.51177e-13 0 0 1.97867e-15 -4.82235e-15 7.10071e-15 -3.41779e-14 -2.74363e-14 1.80321e-14 -9.49565e-15 -2.95494e-15 1.15678e-14 3.6662e-14 3.55464e-14 1.63952e-14 -9.05112e-14 5.30039e-14 -7.16033e-14 -2.02999e-14 -8.68631e-14 -1.72237e-14 -4.81334e-14 1.09688e-14 -1.30077e-13 2.73428e-14 -2.71678e-13 3.79141e-14 -1.86276e-13 5.67822e-14 -2.15044e-13 -2.40818e-13 5.87901e-14 -2.40512e-13 -4.52925e-14 -2.51388e-13 -7.28645e-14 1.0044e-13 4.76303e-13 5.11781e-12 2.8642e-11 1.54887e-10 7.98528e-10 3.91472e-09 1.82306e-08 8.04735e-08 3.35935e-07 1.32262e-06 4.89624e-06 1.69832e-05 5.4973e-05 0.00016528 0.000459124 0.00117158 0.00273084 0.00578869 0.0111337 0.0194525 0.0310428 0.045679 0.06274 0.0814907 0.101313 0.121787 0.142658 0.163777 0.185075 0.206502 0.228022 0.249604 0.271226 0.292865 0.314502 0.33613 0.357742 0.379331 0.400892 0.422419 0.443909 0.465357 0.486757 0.508105 0.529395 0.550621 0.571777 0.592856 0.61385 0.634751 0.655549 0.676233 0.696794 0.717217 0.737492 0.757606 0.777545 0.797301 0.816867 0.836241 0.855434 0.874464 0.893346 0.912086 0.930999 0.937993 0.937728 0.937113 0.936426 0.935639 0.934757 0.933841 0.932924 0.932037 0.931214 0.930478 0.92984 0.929308 0.928881 0.928555 0.928275 0.92806 0.927856 0.927661 0.927496 0.927335 0.927196 0.9271 0.927048 0.92709 0.927116 0.92711 0.927112 0.927277 0.927349 0.927226 0.926884 0.927161 0.927686 0.928427 0.914652 0.898324 0.927357 0.928428 0.928711 0.928603 0.928632 0.928808 0.928954 0.929007 0.928962 0.928859 0.928747 0.928619 0.928485 0.928354 0.928233 0.928129 0.928047 0.927985 0.927939 0.927897 0.927863 0.927829 0.9278 0.927849 0.927814 0.927446 0.924423 0.914071 0.888146 0.835889 0.752674 0.639219 0.503822 0.361471 0.230727 0.128589 0.0623051 0.0268813 0.0108117 0.00419784 0.00160441 0.000609051 0.000230465 8.70455e-05 3.28293e-05 1.23646e-05 4.65013e-06 1.74602e-06 6.54419e-07 2.44788e-07 9.13591e-08 3.40124e-08 1.26276e-08 4.67427e-09 1.72358e-09 6.34125e-10 2.31946e-10 8.41757e-11 3.08642e-11 1.09231e-11 4.2844e-12 8.95708e-13 9.69561e-13 0 0 2.83252e-15 -7.17515e-15 -1.46179e-14 -2.29589e-14 -4.56205e-14 -5.40373e-14 1.71004e-15 1.94717e-14 4.80806e-14 -4.32695e-14 6.09652e-14 3.68091e-14 9.05058e-14 -1.51315e-13 3.84049e-14 1.75595e-14 -4.49722e-14 3.64398e-14 -7.36554e-14 -1.24292e-13 9.67603e-14 -2.17996e-13 2.39061e-14 -2.0514e-13 -3.08663e-14 -1.69504e-13 3.91713e-14 -2.8155e-13 -1.86848e-13 -7.07262e-14 -6.61758e-14 -7.38338e-14 -1.41869e-14 -2.70411e-13 6.18183e-13 5.14204e-12 2.86496e-11 1.54932e-10 7.98601e-10 3.91504e-09 1.82303e-08 8.04736e-08 3.35935e-07 1.32262e-06 4.89624e-06 1.69832e-05 5.4973e-05 0.00016528 0.000459124 0.00117158 0.00273084 0.00578869 0.0111337 0.0194525 0.0310428 0.045679 0.06274 0.0814907 0.101313 0.121787 0.142658 0.163777 0.185075 0.206502 0.228022 0.249604 0.271226 0.292865 0.314502 0.33613 0.357742 0.379331 0.400892 0.422419 0.443909 0.465357 0.486757 0.508105 0.529395 0.550621 0.571777 0.592856 0.61385 0.634751 0.655549 0.676233 0.696794 0.717217 0.737492 0.757606 0.777545 0.797301 0.816867 0.836241 0.855434 0.874464 0.893346 0.912086 0.930999 0.937993 0.937728 0.937113 0.936426 0.935639 0.934757 0.933841 0.932924 0.932037 0.931214 0.930478 0.92984 0.929308 0.928881 0.928555 0.928275 0.92806 0.927856 0.927661 0.927496 0.927335 0.927196 0.9271 0.927048 0.92709 0.927116 0.92711 0.927112 0.927277 0.927349 0.927226 0.926884 0.927161 0.927686 0.928427 0.914652 0.898324 0.927357 0.928428 0.928711 0.928603 0.928632 0.928808 0.928954 0.929007 0.928962 0.928859 0.928747 0.928619 0.928485 0.928354 0.928233 0.928129 0.928047 0.927985 0.927939 0.927897 0.927863 0.927829 0.9278 0.927849 0.927814 0.927446 0.924423 0.914071 0.888146 0.835889 0.752674 0.639219 0.503822 0.361471 0.230727 0.128589 0.0623051 0.0268813 0.0108117 0.00419784 0.00160441 0.000609051 0.000230465 8.70455e-05 3.28293e-05 1.23646e-05 4.65013e-06 1.74602e-06 6.54419e-07 2.44788e-07 9.13591e-08 3.40124e-08 1.26275e-08 4.67388e-09 1.72443e-09 6.33662e-10 2.31988e-10 8.46074e-11 3.02097e-11 1.10496e-11 4.02021e-12 1.37716e-12 6.91348e-13 0 0 -5.70799e-15 -1.08767e-14 -1.31645e-14 -2.56322e-14 -5.73258e-14 -2.87718e-14 -4.54299e-14 1.92822e-14 3.39771e-14 -5.60619e-15 4.39626e-14 -3.60534e-15 3.18596e-14 6.00747e-14 2.94495e-14 -8.0844e-14 9.71219e-16 -9.98978e-14 6.53171e-14 -8.18296e-14 1.21138e-14 -1.64725e-14 -1.54335e-13 -8.50177e-14 -1.03931e-13 -1.98167e-13 -2.39953e-13 -1.02526e-13 -6.66874e-14 1.21463e-13 -2.56825e-13 -1.0707e-13 -1.02253e-13 -1.30386e-13 6.99568e-13 4.85822e-12 2.88144e-11 1.5516e-10 7.98749e-10 3.91519e-09 1.82305e-08 8.04736e-08 3.35935e-07 1.32262e-06 4.89624e-06 1.69832e-05 5.4973e-05 0.00016528 0.000459124 0.00117158 0.00273084 0.00578869 0.0111337 0.0194525 0.0310428 0.045679 0.06274 0.0814907 0.101313 0.121787 0.142658 0.163777 0.185075 0.206502 0.228022 0.249604 0.271226 0.292865 0.314502 0.33613 0.357742 0.379331 0.400892 0.422419 0.443909 0.465357 0.486757 0.508105 0.529395 0.550621 0.571777 0.592856 0.61385 0.634751 0.655549 0.676233 0.696794 0.717217 0.737492 0.757606 0.777545 0.797301 0.816867 0.836241 0.855434 0.874464 0.893346 0.912086 0.930999 0.937992 0.937728 0.937113 0.936426 0.935639 0.934757 0.933841 0.932924 0.932037 0.931214 0.930478 0.929841 0.929308 0.928881 0.928555 0.928275 0.92806 0.927856 0.927661 0.927496 0.927335 0.927196 0.9271 0.927048 0.92709 0.927116 0.92711 0.927112 0.927277 0.927349 0.927226 0.926884 0.927161 0.927686 0.928427 0.914652 0.898324 0.927357 0.928428 0.928711 0.928603 0.928632 0.928808 0.928954 0.929007 0.928962 0.928859 0.928747 0.928619 0.928485 0.928354 0.928233 0.928129 0.928047 0.927985 0.927939 0.927897 0.927863 0.927829 0.9278 0.927849 0.927814 0.927446 0.924423 0.914071 0.888146 0.835889 0.752674 0.639219 0.503822 0.361471 0.230727 0.128589 0.0623051 0.0268813 0.0108117 0.00419784 0.00160441 0.000609051 0.000230465 8.70455e-05 3.28293e-05 1.23646e-05 4.65013e-06 1.74602e-06 6.54419e-07 2.44788e-07 9.13595e-08 3.40122e-08 1.26278e-08 4.67393e-09 1.72458e-09 6.3386e-10 2.31888e-10 8.49521e-11 3.04364e-11 1.08819e-11 3.98673e-12 9.37432e-13 -5.71189e-14 0 0 -1.20873e-14 -3.39674e-15 1.09744e-14 -2.28417e-14 -3.89197e-14 1.6963e-14 -4.28337e-14 -7.18628e-15 -2.77357e-16 1.36536e-14 5.00346e-15 1.84777e-14 -8.59624e-14 2.09148e-13 -5.21336e-14 -1.94503e-14 -3.13911e-14 -2.99797e-14 2.25422e-14 2.53039e-14 -2.74425e-13 1.1641e-13 -3.42209e-13 1.20482e-13 -2.21068e-13 -5.49033e-14 -4.32424e-13 -2.11299e-13 1.75366e-13 -1.37183e-13 -3.95504e-14 -1.49692e-13 -1.98698e-14 2.77943e-13 6.07208e-13 4.79322e-12 2.87517e-11 1.55266e-10 7.98729e-10 3.91498e-09 1.82307e-08 8.04733e-08 3.35935e-07 1.32262e-06 4.89624e-06 1.69832e-05 5.4973e-05 0.00016528 0.000459124 0.00117158 0.00273084 0.00578869 0.0111337 0.0194525 0.0310428 0.045679 0.06274 0.0814907 0.101313 0.121787 0.142658 0.163777 0.185075 0.206502 0.228022 0.249604 0.271226 0.292865 0.314502 0.33613 0.357742 0.379331 0.400892 0.422419 0.443909 0.465357 0.486757 0.508105 0.529395 0.550621 0.571777 0.592856 0.61385 0.634751 0.655549 0.676233 0.696794 0.717217 0.737492 0.757606 0.777545 0.797301 0.816867 0.836241 0.855434 0.874464 0.893346 0.912086 0.930999 0.937993 0.937728 0.937113 0.936426 0.935639 0.934757 0.933841 0.932924 0.932037 0.931214 0.930478 0.929841 0.929308 0.928881 0.928555 0.928275 0.92806 0.927856 0.927661 0.927496 0.927335 0.927196 0.9271 0.927048 0.92709 0.927116 0.92711 0.927112 0.927277 0.927349 0.927226 0.926884 0.927161 0.927686 0.928427 0.914652 0.898324 0.927357 0.928428 0.928711 0.928603 0.928632 0.928808 0.928954 0.929007 0.928962 0.928859 0.928747 0.928619 0.928485 0.928354 0.928233 0.928129 0.928047 0.927985 0.927939 0.927897 0.927863 0.927829 0.9278 0.927849 0.927814 0.927446 0.924423 0.914071 0.888146 0.835889 0.752674 0.639219 0.503822 0.361471 0.230727 0.128589 0.0623051 0.0268813 0.0108117 0.00419784 0.00160441 0.000609051 0.000230465 8.70455e-05 3.28293e-05 1.23646e-05 4.65013e-06 1.74602e-06 6.54419e-07 2.44788e-07 9.13595e-08 3.40122e-08 1.26277e-08 4.67447e-09 1.72359e-09 6.34165e-10 2.31636e-10 8.43899e-11 3.10117e-11 1.08638e-11 4.08672e-12 1.31611e-13 1.34161e-13 0 0 -1.67894e-14 6.37965e-15 -2.31687e-14 2.73557e-14 -7.76134e-15 -3.45145e-14 -1.22063e-14 3.4607e-14 5.27649e-14 -1.18323e-13 -6.77714e-14 1.18762e-13 1.53225e-13 -2.67981e-13 8.77489e-14 4.25825e-14 1.36162e-15 2.23998e-13 -1.56377e-13 -1.70775e-13 -2.82397e-14 -4.21536e-13 3.04327e-13 -2.49804e-13 5.19885e-14 -4.52211e-13 6.01092e-14 -4.49078e-13 -1.53588e-13 -1.09457e-13 7.62316e-14 1.89376e-13 4.52509e-14 -8.31631e-14 1.06015e-12 4.90895e-12 2.85679e-11 1.5511e-10 7.9848e-10 3.91518e-09 1.82302e-08 8.04736e-08 3.35935e-07 1.32262e-06 4.89624e-06 1.69832e-05 5.4973e-05 0.00016528 0.000459124 0.00117158 0.00273084 0.00578869 0.0111337 0.0194525 0.0310428 0.045679 0.06274 0.0814907 0.101313 0.121787 0.142658 0.163777 0.185075 0.206502 0.228022 0.249604 0.271226 0.292865 0.314502 0.33613 0.357742 0.379331 0.400892 0.422419 0.443909 0.465357 0.486757 0.508105 0.529395 0.550621 0.571777 0.592856 0.61385 0.634751 0.655549 0.676233 0.696794 0.717217 0.737492 0.757606 0.777545 0.797301 0.816867 0.836241 0.855434 0.874464 0.893346 0.912086 0.930999 0.937993 0.937728 0.937113 0.936426 0.935639 0.934757 0.933841 0.932924 0.932037 0.931214 0.930478 0.92984 0.929308 0.928881 0.928555 0.928275 0.92806 0.927856 0.927661 0.927496 0.927335 0.927196 0.9271 0.927048 0.92709 0.927116 0.92711 0.927112 0.927277 0.927349 0.927226 0.926884 0.927161 0.927686 0.928427 0.914652 0.898324 0.927357 0.928428 0.928711 0.928603 0.928632 0.928808 0.928954 0.929007 0.928962 0.928859 0.928747 0.928619 0.928485 0.928354 0.928233 0.928129 0.928047 0.927985 0.927939 0.927897 0.927863 0.927829 0.9278 0.927849 0.927814 0.927446 0.924423 0.914071 0.888146 0.835889 0.752674 0.639219 0.503822 0.361471 0.230727 0.128589 0.0623051 0.0268813 0.0108117 0.00419784 0.00160441 0.000609051 0.000230465 8.70455e-05 3.28293e-05 1.23646e-05 4.65013e-06 1.74603e-06 6.54419e-07 2.44788e-07 9.13593e-08 3.40123e-08 1.26274e-08 4.67395e-09 1.72472e-09 6.3309e-10 2.31508e-10 8.45977e-11 3.027e-11 1.14545e-11 3.17913e-12 1.00971e-12 7.73102e-14 0
				</DataArray>
				<DataArray Name="VitesseY" type="Float32" format="ascii">