<?xml version="1.0"?>
<VTKFile type="PolyData">
	<PolyData>
		<Piece NumberOfPoints="1206" NumberOfPolys="1000">
			<Points>
				<DataArray type="Float32" NumberOfComponents="3" format="ascii">
 0 0 0 0.005 0 0 0.01 0 0 0.015 0 0 0.02 0 0 0.025 0 0 0.03 0 0 0.035 0 0 0.04 0 0 0.045 0 0 0.05 0 0 0.055 0 0 0.06 0 0 0.065 0 0 0.07 0 0 0.075 0 0 0.08 0 0 0.085 0 0 0.09 0 0 0.095 0 0 0.1 0 0 0.105 0 0 0.11 0 0 0.115 0 0 0.12 0 0 0.125 0 0 0.13 0 0 0.135 0 0 0.14 0 0 0.145 0 0 0.15 0 0 0.155 0 0 0.16 0 0 0.165 0 0 0.17 0 0 0.175 0 0 0.18 0 0 0.185 0 0 0.19 0 0 0.195 0 0 0.2 0 0 0.205 0 0 0.21 0 0 0.215 0 0 0.22 0 0 0.225 0 0 0.23 0 0 0.235 0 0 0.24 0 0 0.245 0 0 0.25 0 0 0.255 0 0 0.26 0 0 0.265 0 0 0.27 0 0 0.275 0 0 0.28 0 0 0.285 0 0 0.29 0 0 0.295 0 0 0.3 0 0 0.305 0 0 0.31 0 0 0.315 0 0 0.32 0 0 0.325 0 0 0.33 0 0 0.335 0 0 0.34 0 0 0.345 0 0 0.35 0 0 0.355 0 0 0.36 0 0 0.365 0 0 0.37 0 0 0.375 0 0 0.38 0 0 0.385 0 0 0.39 0 0 0.395 0 0 0.4 0 0 0.405 0 0 0.41 0 0 0.415 0 0 0.42 0 0 0.425 0 0 0.43 0 0 0.435 0 0 0.44 0 0 0.445 0 0 0.45 0 0 0.455 0 0 0.46 0 0 0.465 0 0 0.47 0 0 0.475 0 0 0.48 0 0 0.485 0 0 0.49 0 0 0.495 0 0 0.5 0 0 0.505 0 0 0.51 0 0 0.515 0 0 0.52 0 0 0.525 0 0 0.53 0 0 0.535 0 0 0.54 0 0 0.545 0 0 0.55 0 0 0.555 0 0 0.56 0 0 0.565 0 0 0.57 0 0 0.575 0 0 0.58 0 0 0.585 0 0 0.59 0 0 0.595 0 0 0.6 0 0 0.605 0 0 0.61 0 0 0.615 0 0 0.62 0 0 0.625 0 0 0.63 0 0 0.635 0 0 0.64 0 0 0.645 0 0 0.65 0 0 0.655 0 0 0.66 0 0 0.665 0 0 0.67 0 0 0.675 0 0 0.68 0 0 0.685 0 0 0.69 0 0 0.695 0 0 0.7 0 0 0.705 0 0 0.71 0 0 0.715 0 0 0.72 0 0 0.725 0 0 0.73 0 0 0.735 0 0 0.74 0 0 0.745 0 0 0.75 0 0 0.755 0 0 0.76 0 0 0.765 0 0 0.77 0 0 0.775 0 0 0.78 0 0 0.785 0 0 0.79 0 0 0.795 0 0 0.8 0 0 0.805 0 0 0.81 0 0 0.815 0 0 0.82 0 0 0.825 0 0 0.83 0 0 0.835 0 0 0.84 0 0 0.845 0 0 0.85 0 0 0.855 0 0 0.86 0 0 0.865 0 0 0.87 0 0 0.875 0 0 0.88 0 0 0.885 0 0 0.89 0 0 0.895 0 0 0.9 0 0 0.905 0 0 0.91 0 0 0.915 0 0 0.92 0 0 0.925 0 0 0.93 0 0 0.935 0 0 0.94 0 0 0.945 0 0 0.95 0 0 0.955 0 0 0.96 0 0 0.965 0 0 0.97 0 0 0.975 0 0 0.98 0 0 0.985 0 0 0.99 0 0 0.995 0 0 1 0 0 0 0.02 0 0.005 0.02 0 0.01 0.02 0 0.015 0.02 0 0.02 0.02 0 0.025 0.02 0 0.03 0.02 0 0.035 0.02 0 0.04 0.02 0 0.045 0.02 0 0.05 0.02 0 0.055 0.02 0 0.06 0.02 0 0.065 0.02 0 0.07 0.02 0 0.075 0.02 0 0.08 0.02 0 0.085 0.02 0 0.09 0.02 0 0.095 0.02 0 0.1 0.02 0 0.105 0.02 0 0.11 0.02 0 0.115 0.02 0 0.12 0.02 0 0.125 0.02 0 0.13 0.02 0 0.135 0.02 0 0.14 0.02 0 0.145 0.02 0 0.15 0.02 0 0.155 0.02 0 0.16 0.02 0 0.165 0.02 0 0.17 0.02 0 0.175 0.02 0 0.18 0.02 0 0.185 0.02 0 0.19 0.02 0 0.195 0.02 0 0.2 0.02 0 0.205 0.02 0 0.21 0.02 0 0.215 0.02 0 0.22 0.02 0 0.225 0.02 0 0.23 0.02 0 0.235 0.02 0 0.24 0.02 0 0.245 0.02 0 0.25 0.02 0 0.255 0.02 0 0.26 0.02 0 0.265 0.02 0 0.27 0.02 0 0.275 0.02 0 0.28 0.02 0 0.285 0.02 0 0.29 0.02 0 0.295 0.02 0 0.3 0.02 0 0.305 0.02 0 0.31 0.02 0 0.315 0.02 0 0.32 0.02 0 0.325 0.02 0 0.33 0.02 0 0.335 0.02 0 0.34 0.02 0 0.345 0.02 0 0.35 0.02 0 0.355 0.02 0 0.36 0.02 0 0.365 0.02 0 0.37 0.02 0 0.375 0.02 0 0.38 0.02 0 0.385 0.02 0 0.39 0.02 0 0.395 0.02 0 0.4 0.02 0 0.405 0.02 0 0.41 0.02 0 0.415 0.02 0 0.42 0.02 0 0.425 0.02 0 0.43 0.02 0 0.435 0.02 0 0.44 0.02 0 0.445 0.02 0 0.45 0.02 0 0.455 0.02 0 0.46 0.02 0 0.465 0.02 0 0.47 0.02 0 0.475 0.02 0 0.48 0.02 0 0.485 0.02 0 0.49 0.02 0 0.495 0.02 0 0.5 0.02 0 0.505 0.02 0 0.51 0.02 0 0.515 0.02 0 0.52 0.02 0 0.525 0.02 0 0.53 0.02 0 0.535 0.02 0 0.54 0.02 0 0.545 0.02 0 0.55 0.02 0 0.555 0.02 0 0.56 0.02 0 0.565 0.02 0 0.57 0.02 0 0.575 0.02 0 0.58 0.02 0 0.585 0.02 0 0.59 0.02 0 0.595 0.02 0 0.6 0.02 0 0.605 0.02 0 0.61 0.02 0 0.615 0.02 0 0.62 0.02 0 0.625 0.02 0 0.63 0.02 0 0.635 0.02 0 0.64 0.02 0 0.645 0.02 0 0.65 0.02 0 0.655 0.02 0 0.66 0.02 0 0.665 0.02 0 0.67 0.02 0 0.675 0.02 0 0.68 0.02 0 0.685 0.02 0 0.69 0.02 0 0.695 0.02 0 0.7 0.02 0 0.705 0.02 0 0.71 0.02 0 0.715 0.02 0 0.72 0.02 0 0.725 0.02 0 0.73 0.02 0 0.735 0.02 0 0.74 0.02 0 0.745 0.02 0 0.75 0.02 0 0.755 0.02 0 0.76 0.02 0 0.765 0.02 0 0.77 0.02 0 0.775 0.02 0 0.78 0.02 0 0.785 0.02 0 0.79 0.02 0 0.795 0.02 0 0.8 0.02 0 0.805 0.02 0 0.81 0.02 0 0.815 0.02 0 0.82 0.02 0 0.825 0.02 0 0.83 0.02 0 0.835 0.02 0 0.84 0.02 0 0.845 0.02 0 0.85 0.02 0 0.855 0.02 0 0.86 0.02 0 0.865 0.02 0 0.87 0.02 0 0.875 0.02 0 0.88 0.02 0 0.885 0.02 0 0.89 0.02 0 0.895 0.02 0 0.9 0.02 0 0.905 0.02 0 0.91 0.02 0 0.915 0.02 0 0.92 0.02 0 0.925 0.02 0 0.93 0.02 0 0.935 0.02 0 0.94 0.02 0 0.945 0.02 0 0.95 0.02 0 0.955 0.02 0 0.96 0.02 0 0.965 0.02 0 0.97 0.02 0 0.975 0.02 0 0.98 0.02 0 0.985 0.02 0 0.99 0.02 0 0.995 0.02 0 1 0.02 0 0 0.04 0 0.005 0.04 0 0.01 0.04 0 0.015 0.04 0 0.02 0.04 0 0.025 0.04 0 0.03 0.04 0 0.035 0.04 0 0.04 0.04 0 0.045 0.04 0 0.05 0.04 0 0.055 0.04 0 0.06 0.04 0 0.065 0.04 0 0.07 0.04 0 0.075 0.04 0 0.08 0.04 0 0.085 0.04 0 0.09 0.04 0 0.095 0.04 0 0.1 0.04 0 0.105 0.04 0 0.11 0.04 0 0.115 0.04 0 0.12 0.04 0 0.125 0.04 0 0.13 0.04 0 0.135 0.04 0 0.14 0.04 0 0.145 0.04 0 0.15 0.04 0 0.155 0.04 0 0.16 0.04 0 0.165 0.04 0 0.17 0.04 0 0.175 0.04 0 0.18 0.04 0 0.185 0.04 0 0.19 0.04 0 0.195 0.04 0 0.2 0.04 0 0.205 0.04 0 0.21 0.04 0 0.215 0.04 0 0.22 0.04 0 0.225 0.04 0 0.23 0.04 0 0.235 0.04 0 0.24 0.04 0 0.245 0.04 0 0.25 0.04 0 0.255 0.04 0 0.26 0.04 0 0.265 0.04 0 0.27 0.04 0 0.275 0.04 0 0.28 0.04 0 0.285 0.04 0 0.29 0.04 0 0.295 0.04 0 0.3 0.04 0 0.305 0.04 0 0.31 0.04 0 0.315 0.04 0 0.32 0.04 0 0.325 0.04 0 0.33 0.04 0 0.335 0.04 0 0.34 0.04 0 0.345 0.04 0 0.35 0.04 0 0.355 0.04 0 0.36 0.04 0 0.365 0.04 0 0.37 0.04 0 0.375 0.04 0 0.38 0.04 0 0.385 0.04 0 0.39 0.04 0 0.395 0.04 0 0.4 0.04 0 0.405 0.04 0 0.41 0.04 0 0.415 0.04 0 0.42 0.04 0 0.425 0.04 0 0.43 0.04 0 0.435 0.04 0 0.44 0.04 0 0.445 0.04 0 0.45 0.04 0 0.455 0.04 0 0.46 0.04 0 0.465 0.04 0 0.47 0.04 0 0.475 0.04 0 0.48 0.04 0 0.485 0.04 0 0.49 0.04 0 0.495 0.04 0 0.5 0.04 0 0.505 0.04 0 0.51 0.04 0 0.515 0.04 0 0.52 0.04 0 0.525 0.04 0 0.53 0.04 0 0.535 0.04 0 0.54 0.04 0 0.545 0.04 0 0.55 0.04 0 0.555 0.04 0 0.56 0.04 0 0.565 0.04 0 0.57 0.04 0 0.575 0.04 0 0.58 0.04 0 0.585 0.04 0 0.59 0.04 0 0.595 0.04 0 0.6 0.04 0 0.605 0.04 0 0.61 0.04 0 0.615 0.04 0 0.62 0.04 0 0.625 0.04 0 0.63 0.04 0 0.635 0.04 0 0.64 0.04 0 0.645 0.04 0 0.65 0.04 0 0.655 0.04 0 0.66 0.04 0 0.665 0.04 0 0.67 0.04 0 0.675 0.04 0 0.68 0.04 0 0.685 0.04 0 0.69 0.04 0 0.695 0.04 0 0.7 0.04 0 0.705 0.04 0 0.71 0.04 0 0.715 0.04 0 0.72 0.04 0 0.725 0.04 0 0.73 0.04 0 0.735 0.04 0 0.74 0.04 0 0.745 0.04 0 0.75 0.04 0 0.755 0.04 0 0.76 0.04 0 0.765 0.04 0 0.77 0.04 0 0.775 0.04 0 0.78 0.04 0 0.785 0.04 0 0.79 0.04 0 0.795 0.04 0 0.8 0.04 0 0.805 0.04 0 0.81 0.04 0 0.815 0.04 0 0.82 0.04 0 0.825 0.04 0 0.83 0.04 0 0.835 0.04 0 0.84 0.04 0 0.845 0.04 0 0.85 0.04 0 0.855 0.04 0 0.86 0.04 0 0.865 0.04 0 0.87 0.04 0 0.875 0.04 0 0.88 0.04 0 0.885 0.04 0 0.89 0.04 0 0.895 0.04 0 0.9 0.04 0 0.905 0.04 0 0.91 0.04 0 0.915 0.04 0 0.92 0.04 0 0.925 0.04 0 0.93 0.04 0 0.935 0.04 0 0.94 0.04 0 0.945 0.04 0 0.95 0.04 0 0.955 0.04 0 0.96 0.04 0 0.965 0.04 0 0.97 0.04 0 0.975 0.04 0 0.98 0.04 0 0.985 0.04 0 0.99 0.04 0 0.995 0.04 0 1 0.04 0 0 0.06 0 0.005 0.06 0 0.01 0.06 0 0.015 0.06 0 0.02 0.06 0 0.025 0.06 0 0.03 0.06 0 0.035 0.06 0 0.04 0.06 0 0.045 0.06 0 0.05 0.06 0 0.055 0.06 0 0.06 0.06 0 0.065 0.06 0 0.07 0.06 0 0.075 0.06 0 0.08 0.06 0 0.085 0.06 0 0.09 0.06 0 0.095 0.06 0 0.1 0.06 0 0.105 0.06 0 0.11 0.06 0 0.115 0.06 0 0.12 0.06 0 0.125 0.06 0 0.13 0.06 0 0.135 0.06 0 0.14 0.06 0 0.145 0.06 0 0.15 0.06 0 0.155 0.06 0 0.16 0.06 0 0.165 0.06 0 0.17 0.06 0 0.175 0.06 0 0.18 0.06 0 0.185 0.06 0 0.19 0.06 0 0.195 0.06 0 0.2 0.06 0 0.205 0.06 0 0.21 0.06 0 0.215 0.06 0 0.22 0.06 0 0.225 0.06 0 0.23 0.06 0 0.235 0.06 0 0.24 0.06 0 0.245 0.06 0 0.25 0.06 0 0.255 0.06 0 0.26 0.06 0 0.265 0.06 0 0.27 0.06 0 0.275 0.06 0 0.28 0.06 0 0.285 0.06 0 0.29 0.06 0 0.295 0.06 0 0.3 0.06 0 0.305 0.06 0 0.31 0.06 0 0.315 0.06 0 0.32 0.06 0 0.325 0.06 0 0.33 0.06 0 0.335 0.06 0 0.34 0.06 0 0.345 0.06 0 0.35 0.06 0 0.355 0.06 0 0.36 0.06 0 0.365 0.06 0 0.37 0.06 0 0.375 0.06 0 0.38 0.06 0 0.385 0.06 0 0.39 0.06 0 0.395 0.06 0 0.4 0.06 0 0.405 0.06 0 0.41 0.06 0 0.415 0.06 0 0.42 0.06 0 0.425 0.06 0 0.43 0.06 0 0.435 0.06 0 0.44 0.06 0 0.445 0.06 0 0.45 0.06 0 0.455 0.06 0 0.46 0.06 0 0.465 0.06 0 0.47 0.06 0 0.475 0.06 0 0.48 0.06 0 0.485 0.06 0 0.49 0.06 0 0.495 0.06 0 0.5 0.06 0 0.505 0.06 0 0.51 0.06 0 0.515 0.06 0 0.52 0.06 0 0.525 0.06 0 0.53 0.06 0 0.535 0.06 0 0.54 0.06 0 0.545 0.06 0 0.55 0.06 0 0.555 0.06 0 0.56 0.06 0 0.565 0.06 0 0.57 0.06 0 0.575 0.06 0 0.58 0.06 0 0.585 0.06 0 0.59 0.06 0 0.595 0.06 0 0.6 0.06 0 0.605 0.06 0 0.61 0.06 0 0.615 0.06 0 0.62 0.06 0 0.625 0.06 0 0.63 0.06 0 0.635 0.06 0 0.64 0.06 0 0.645 0.06 0 0.65 0.06 0 0.655 0.06 0 0.66 0.06 0 0.665 0.06 0 0.67 0.06 0 0.675 0.06 0 0.68 0.06 0 0.685 0.06 0 0.69 0.06 0 0.695 0.06 0 0.7 0.06 0 0.705 0.06 0 0.71 0.06 0 0.715 0.06 0 0.72 0.06 0 0.725 0.06 0 0.73 0.06 0 0.735 0.06 0 0.74 0.06 0 0.745 0.06 0 0.75 0.06 0 0.755 0.06 0 0.76 0.06 0 0.765 0.06 0 0.77 0.06 0 0.775 0.06 0 0.78 0.06 0 0.785 0.06 0 0.79 0.06 0 0.795 0.06 0 0.8 0.06 0 0.805 0.06 0 0.81 0.06 0 0.815 0.06 0 0.82 0.06 0 0.825 0.06 0 0.83 0.06 0 0.835 0.06 0 0.84 0.06 0 0.845 0.06 0 0.85 0.06 0 0.855 0.06 0 0.86 0.06 0 0.865 0.06 0 0.87 0.06 0 0.875 0.06 0 0.88 0.06 0 0.885 0.06 0 0.89 0.06 0 0.895 0.06 0 0.9 0.06 0 0.905 0.06 0 0.91 0.06 0 0.915 0.06 0 0.92 0.06 0 0.925 0.06 0 0.93 0.06 0 0.935 0.06 0 0.94 0.06 0 0.945 0.06 0 0.95 0.06 0 0.955 0.06 0 0.96 0.06 0 0.965 0.06 0 0.97 0.06 0 0.975 0.06 0 0.98 0.06 0 0.985 0.06 0 0.99 0.06 0 0.995 0.06 0 1 0.06 0 0 0.08 0 0.005 0.08 0 0.01 0.08 0 0.015 0.08 0 0.02 0.08 0 0.025 0.08 0 0.03 0.08 0 0.035 0.08 0 0.04 0.08 0 0.045 0.08 0 0.05 0.08 0 0.055 0.08 0 0.06 0.08 0 0.065 0.08 0 0.07 0.08 0 0.075 0.08 0 0.08 0.08 0 0.085 0.08 0 0.09 0.08 0 0.095 0.08 0 0.1 0.08 0 0.105 0.08 0 0.11 0.08 0 0.115 0.08 0 0.12 0.08 0 0.125 0.08 0 0.13 0.08 0 0.135 0.08 0 0.14 0.08 0 0.145 0.08 0 0.15 0.08 0 0.155 0.08 0 0.16 0.08 0 0.165 0.08 0
[...]
			<PointData Scalars="VitesseX">
				<DataArray Name="VitesseX" type="Float32" format="ascii">
 0 -6.58256e-15 -7.65671e-15 -4.76675e-14 7.22776e-14 -2.65993e-14 -2.03149e-14 -4.49701e-14 -2.84182e-14 -1.13292e-14 -1.20515e-14 -2.28778e-15 -2.23336e-13 3.10163e-14 -2.21661e-13 6.53583e-14 -1.3441e-13 -9.1216e-15 7.25746e-15 -1.24226e-13 2.00817e-14 -6.38475e-14 -3.16775e-14 -3.1498e-14 -4.3766e-13 -6.214e-15 5.31811e-14 -7.61854e-14 -9.26898e-14 -1.37092e-14 -6.47899e-14 5.48288e-14 5.79275e-14 -1.65174e-13 -3.18191e-13 -1.90062e-13 -8.77394e-14 -1.65798e-13 -7.06492e-14 -2.32961e-13 -3.9297e-13 -1.15918e-13 -1.77295e-13 -3.10366e-13 6.73652e-14 -1.67975e-13 3.08958e-13 -2.17183e-13 2.50556e-13 -6.12681e-14 2.72654e-13 -1.33652e-13 -1.12122e-13 -3.2406e-13 -8.09183e-13 1.13057e-13 4.01492e-14 -4.94875e-13 3.82969e-12 2.56643e-11 1.9341e-10 1.35881e-09 8.91355e-09 5.4362e-08 3.07089e-07 1.59956e-06 7.64273e-06 3.32927e-05 0.000131265 0.000464445 0.00146045 0.00404129 0.00976566 0.0205704 0.037941 0.0620371 0.0916275 0.124895 0.160297 0.196832 0.233956 0.271405 0.30896 0.346479 0.383904 0.421181 0.45826 0.495094 0.531633 0.56782 0.603593 0.638881 0.673603 0.707674 0.740996 0.773473 0.805017 0.835573 0.865163 0.893912 0.922492 0.941701 0.941719 0.94094 0.939644 0.938203 0.936609 0.934951 0.933345 0.931855 0.930689 0.929722 0.928929 0.928469 0.928092 0.927913 0.928212 0.927323 0.921576 0.925157 0.925729 0.930174 0.928629 0.928872 0.92989 0.929931 0.929897 0.929889 0.929875 0.929614 0.929235 0.928959 0.929167 0.929181 0.928432 0.922245 0.902989 0.859531 0.784578 0.677647 0.545222 0.400878 0.263358 0.151223 0.0751177 0.0327903 0.0131473 0.00503791 0.00188749 0.00069875 0.000256605 9.35805e-05 3.38892e-05 1.21812e-05 4.3432e-06 1.53511e-06 5.37541e-07 1.86367e-07 6.39403e-08 2.16984e-08 7.27923e-09 2.41361e-09 7.90397e-10 2.55279e-10 8.12616e-11 2.51346e-11 7.42747e-12 2.67497e-12 -6.00659e-14 1.43101e-13 -2.31061e-13 -3.3718e-13 -1.42637e-13 2.19849e-13 -5.18534e-13 -1.06749e-13 -8.93198e-13 2.85881e-13 8.1777e-13 -3.19262e-13 -2.19205e-13 2.92382e-13 9.68117e-15 -5.02753e-13 -2.34106e-13 7.58493e-13 -3.62955e-14 -7.53921e-13 2.38514e-13 -7.40293e-13 2.64286e-13 -4.42035e-13 4.59263e-13 6.46507e-13 3.01308e-14 7.82312e-13 7.21098e-13 -9.71723e-14 -2.49079e-13 -7.58601e-13 0 0 -4.12332e-15 -1.25336e-14 2.9628e-14 -5.96757e-14 4.86488e-14 4.09643e-14 -1.56699e-14 -4.00484e-14 1.56412e-14 -5.22735e-14 -1.06123e-13 8.73229e-14 -1.80177e-13 -2.80343e-14 -1.2431e-13 -3.85401e-14 -1.24383e-13 -4.53976e-14 -7.48689e-15 -1.28846e-13 2.98462e-14 -1.22252e-13 -2.11238e-13 1.53648e-13 -1.36362e-13 -2.69853e-13 -6.62415e-14 -3.45813e-14 5.08015e-14 5.78078e-14 -5.76163e-14 -7.30453e-14 -1.49454e-13 -6.43899e-14 -2.75255e-13 -6.21928e-14 -1.72254e-13 -2.41403e-13 -1.13515e-13 -2.05404e-13 -3.92859e-13 8.1923e-14 -4.66704e-14 -3.42693e-13 2.1134e-13 -9.33653e-14 1.94034e-13 1.79143e-14 2.67547e-13 -2.4654e-13 -2.94032e-13 -3.22104e-13 -1.2481e-13 1.85405e-13 -5.13671e-13 -3.40454e-13 7.10184e-13 2.98363e-12 2.60065e-11 1.93065e-10 1.35927e-09 8.91331e-09 5.43622e-08 3.07088e-07 1.59956e-06 7.64273e-06 3.32927e-05 0.000131265 0.000464445 0.00146045 0.00404129 0.00976566 0.0205704 0.037941 0.0620371 0.0916275 0.124895 0.160297 0.196832 0.233956 0.271405 0.30896 0.346479 0.383904 0.421181 0.45826 0.495094 0.531633 0.56782 0.603593 0.638881 0.673603 0.707674 0.740996 0.773473 0.805017 0.835573 0.865163 0.893912 0.922492 0.941701 0.941719 0.94094 0.939643 0.938203 0.936609 0.934951 0.933345 0.931855 0.930689 0.929722 0.928929 0.928469 0.928092 0.927913 0.928212 0.927323 0.921576 0.925157 0.925729 0.930174 0.928629 0.928872 0.92989 0.929931 0.929897 0.929889 0.929875 0.929614 0.929235 0.928959 0.929167 0.929181 0.928432 0.922245 0.902989 0.859531 0.784578 0.677647 0.545222 0.400878 0.263358 0.151223 0.0751177 0.0327903 0.0131473 0.00503791 0.00188749 0.00069875 0.000256605 9.35805e-05 3.38892e-05 1.21812e-05 4.3432e-06 1.53511e-06 5.37542e-07 1.86367e-07 6.39409e-08 2.16976e-08 7.27978e-09 2.41338e-09 7.9035e-10 2.55764e-10 8.12118e-11 2.53378e-11 7.50712e-12 2.00947e-12 4.86701e-13 -5.53653e-13 2.00845e-13 -2.49254e-13 -2.08294e-13 -1.46395e-13 -2.50902e-13 -5.49888e-13 4.90012e-13 -4.08428e-13 -4.62888e-13 6.57073e-13 -2.48539e-13 -2.43033e-13 1.02118e-13 5.55376e-14 -2.31942e-14 -3.17697e-13 -4.39747e-14 -5.51909e-14 -3.66203e-13 -6.24565e-14 -2.7769e-13 -1.98519e-13 4.59038e-13 -1.51102e-13 6.77191e-13 1.88683e-13 -6.65534e-14 4.31286e-13 -2.58572e-13 1.18424e-13 0 0 1.03124e-14 1.88342e-14 2.76394e-14 5.59565e-14 2.92245e-14 2.02033e-14 9.57613e-15 4.60595e-14 -4.59901e-14 -4.14903e-14 6.98641e-15 -1.20374e-13 8.93913e-14 -1.46482e-13 -7.17238e-14 -1.46278e-13 -5.60013e-14 -3.03086e-14 -5.8675e-14 -3.11736e-14 -9.04837e-14 -2.41351e-13 4.55635e-14 -1.80504e-13 -2.98158e-14 -2.12696e-14 -1.615e-13 -1.83099e-13 9.0776e-14 3.78743e-14 2.40362e-14 -4.15692e-14 -1.23602e-13 -4.0769e-13 -1.98833e-13 -1.34222e-13 -9.70872e-14 -1.79456e-13 -8.70866e-14 -8.22111e-14 -1.61329e-13 6.65327e-14 -3.8526e-14 1.37778e-13 -1.47425e-13 6.30728e-14 -3.16654e-13 -7.75979e-14 -1.84414e-13 1.08629e-13 7.77275e-14 -1.20119e-13 -4.49714e-13 -2.50363e-13 -4.24067e-14 -8.01837e-14 5.93411e-13 3.29229e-12 2.58638e-11 1.93316e-10 1.35918e-09 8.91367e-09 5.43622e-08 3.07088e-07 1.59956e-06 7.64273e-06 3.32927e-05 0.000131265 0.000464445 0.00146045 0.00404129 0.00976567 0.0205704 0.037941 0.0620371 0.0916275 0.124895 0.160297 0.196832 0.233956 0.271405 0.30896 0.346479 0.383904 0.421181 0.45826 0.495094 0.531633 0.56782 0.603593 0.638881 0.673603 0.707674 0.740996 0.773473 0.805017 0.835573 0.865163 0.893912 0.922492 0.941701 0.94172 0.94094 0.939643 0.938203 0.936609 0.934951 0.933345 0.931855 0.930689 0.929722 0.928929 0.928469 0.928092 0.927913 0.928212 0.927323 0.921576 0.925157 0.925729 0.930174 0.928629 0.928872 0.92989 0.929931 0.929897 0.929889 0.929875 0.929614 0.929235 0.928959 0.929167 0.929181 0.928432 0.922245 0.902989 0.859531 0.784578 0.677647 0.545222 0.400878 0.263358 0.151223 0.0751177 0.0327903 0.0131473 0.00503791 0.00188749 0.00069875 0.000256605 9.35805e-05 3.38892e-05 1.21812e-05 4.3432e-06 1.53511e-06 5.37542e-07 1.86367e-07 6.39404e-08 2.16981e-08 7.27943e-09 2.41363e-09 7.90381e-10 2.55371e-10 8.18632e-11 2.54102e-11 7.34099e-12 1.95824e-12 5.58409e-13 -1.75767e-13 -3.52147e-13 -4.87028e-13 4.34885e-13 -3.69557e-13 -2.70919e-13 8.6902e-15 1.67523e-13 -5.18649e-13 -3.85519e-13 1.6761e-13 -8.49695e-14 -5.06116e-13 -1.83757e-13 3.05293e-13 -3.54296e-13 -2.4327e-13 -5.19324e-13 -9.19231e-14 -1.08858e-13 -1.4026e-13 -3.71079e-14 -2.47961e-13 2.8986e-13 9.64397e-14 1.61874e-13 3.52962e-13 -5.84247e-13 -2.1848e-13 7.3348e-13 3.25291e-15 0 0 3.08817e-14 3.51611e-14 4.24537e-14 1.02891e-13 4.05803e-14 -7.50193e-15 7.51747e-15 4.80715e-15 -1.42124e-14 -5.24101e-14 -1.53505e-14 -4.72987e-14 3.01022e-14 -1.84414e-13 1.80652e-14 -2.44632e-14 -8.64935e-14 -7.91239e-14 -8.24735e-14 -7.54313e-14 -1.68982e-13 5.74752e-14 -1.4568e-13 -1.51403e-13 3.11734e-14 6.23883e-14 -8.31366e-14 -9.07945e-14 -2.01015e-13 6.02512e-14 -9.28551e-14 -9.85492e-14 -1.98743e-13 -1.97785e-13 -2.39629e-13 -2.39555e-13 -1.5531e-13 4.15282e-14 -7.03453e-14 -6.70267e-14 8.43372e-14 -1.05489e-13 -4.32939e-14 8.87191e-15 -1.43476e-13 -3.52039e-14 -3.33765e-13 1.1224e-13 -6.08848e-14 1.85923e-14 -8.23408e-16 -2.45662e-13 -3.69893e-13 -3.48047e-13 -1.80632e-13 -9.62356e-14 4.47604e-13 3.61704e-12 2.58003e-11 1.93717e-10 1.3591e-09 8.91387e-09 5.43621e-08 3.07088e-07 1.59956e-06 7.64273e-06 3.32927e-05 0.000131265 0.000464445 0.00146045 0.00404129 0.00976567 0.0205704 0.037941 0.0620371 0.0916275 0.124895 0.160297 0.196832 0.233956 0.271405 0.30896 0.346479 0.383904 0.421181 0.45826 0.495094 0.531633 0.56782 0.603593 0.638881 0.673603 0.707674 0.740996 0.773473 0.805017 0.835573 0.865163 0.893912 0.922492 0.941701 0.941719 0.94094 0.939644 0.938203 0.936609 0.934951 0.933345 0.931855 0.930689 0.929722 0.928929 0.928469 0.928092 0.927913 0.928212 0.927323 0.921576 0.925157 0.925729 0.930174 0.928629 0.928872 0.92989 0.929931 0.929897 0.929889 0.929875 0.929614 0.929235 0.928959 0.929167 0.929181 0.928432 0.922245 0.902989 0.859531 0.784578 0.677647 0.545222 0.400878 0.263358 0.151223 0.0751177 0.0327903 0.0131473 0.00503791 0.00188749 0.00069875 0.000256605 9.35805e-05 3.38892e-05 1.21812e-05 4.3432e-06 1.53511e-06 5.37542e-07 1.86367e-07 6.39406e-08 2.16984e-08 7.27947e-09 2.4136e-09 7.90297e-10 2.55282e-10 8.14806e-11 2.51916e-11 7.56096e-12 2.08387e-12 2.34481e-13 3.94003e-13 -3.4602e-13 -5.02806e-13 7.68494e-14 3.48313e-14 5.5465e-14 2.27999e-13 -2.36141e-13 -2.04048e-13 2.51277e-13 -6.8679e-13 -2.21516e-13 -2.65144e-13 9.14967e-14 -4.0004e-13 -3.55983e-13 -6.92575e-13 2.06311e-13 -9.68098e-13 2.23888e-13 -4.16304e-13 2.39836e-13 -3.81232e-14 2.24943e-13 4.03724e-13 7.087e-14 7.72042e-13 2.85193e-13 2.48033e-13 2.37043e-13 -6.50596e-13 0 0 1.86943e-14 3.27116e-14 7.32211e-14 -5.83666e-15 7.08095e-14 4.54617e-14 1.15381e-14 -4.36132e-14 3.74875e-14 -7.15422e-14 -9.07809e-14 1.07445e-13 -2.0059e-13 2.49818e-14 -9.04891e-14 3.00939e-14 -8.76187e-14 -3.02715e-14 -7.52726e-14 -2.01724e-13 2.36728e-14 7.91197e-14 -2.72814e-13 2.35012e-13 -1.04038e-13 -2.73235e-13 -1.35141e-13 -6.73991e-14 -1.05196e-13 -4.65325e-14 -1.28133e-13 -1.12182e-13 -1.05444e-13 1.36054e-13 -2.24543e-13 5.49598e-14 -4.84901e-14 -2.08148e-13 -1.97218e-13 -1.18396e-13 -1.12028e-13 6.6245e-14 4.23771e-15 -3.17361e-13 1.90206e-13 -3.35512e-13 2.78808e-13 7.95862e-14 2.0085e-13 -4.06336e-13 -3.59365e-13 -3.36894e-13 6.69099e-14 -3.76312e-14 -4.68851e-13 -2.86562e-13 8.56438e-13 3.22638e-12 2.57667e-11 1.9332e-10 1.35941e-09 8.91379e-09 5.43622e-08 3.07088e-07 1.59956e-06 7.64273e-06 3.32927e-05 0.000131265 0.000464445 0.00146045 0.00404129 0.00976567 0.0205704 0.037941 0.0620371 0.0916275 0.124895 0.160297 0.196832 0.233956 0.271405 0.30896 0.346479 0.383904 0.421181 0.45826 0.495094 0.531633 0.56782 0.603593 0.638881 0.673603 0.707674 0.740996 0.773473 0.805017 0.835573 0.865163 0.893912 0.922492 0.941701 0.941719 0.94094 0.939644 0.938203 0.936609 0.934951 0.933345 0.931855 0.930689 0.929722 0.928929 0.928469 0.928092 0.927913 0.928212 0.927323 0.921576 0.925157 0.925729 0.930174 0.928629 0.928872 0.92989 0.929931 0.929897 0.929889 0.929875 0.929614 0.929235 0.928959 0.929167 0.929181 0.928432 0.922245 0.902989 0.859531 0.784578 0.677647 0.545222 0.400878 0.263358 0.151223 0.0751177 0.0327903 0.0131473 0.00503791 0.00188749 0.00069875 0.000256605 9.35805e-05 3.38892e-05 1.21812e-05 4.3432e-06 1.53511e-06 5.37542e-07 1.86367e-07 6.39408e-08 2.16978e-08 7.27993e-09 2.4131e-09 7.90497e-10 2.55812e-10 8.09055e-11 2.52891e-11 7.56254e-12 2.02814e-12 5.7157e-14 -1.52843e-13 2.38371e-13 -1.60108e-13 -3.70136e-13 -1.34295e-13 2.24407e-13 3.48735e-13 3.99404e-13 -1.30593e-13 -1.45137e-13 9.50338e-14 -3.15657e-13 -4.13359e-13 9.92576e-14 -6.40083e-13 -2.02285e-13 -1.22759e-12 2.89155e-13 -2.40283e-13 -2.57122e-13 -1.925e-13 -2.70708e-13 8.5431e-13 4.22256e-13 -2.8613e-13 5.06998e-13 1.55784e-13 3.76579e-13 6.69022e-13 -2.49536e-13 -1.68491e-13 0 0 -2.08581e-15 5.018e-14 9.89018e-15 8.60864e-14 -4.9894e-15 4.40902e-14 1.35633e-14 4.69569e-14 -3.1192e-14 -2.87493e-14 7.30702e-14 -3.29241e-13 1.08768e-13 -3.97653e-14 -4.65788e-14 -2.40772e-13 1.25392e-13 1.3514e-13 -2.12201e-13 -3.71592e-14 8.08016e-14 -2.26586e-13 2.27838e-13 -3.33134e-13 -6.35436e-14 -1.20899e-13 -3.70713e-13 -3.42934e-13 2.57876e-13 -3.18224e-13 1.47578e-13 9.36138e-14 7.31294e-14 -3.37114e-13 -7.04599e-15 3.57231e-13 1.98176e-13 -4.46108e-13 -4.33849e-13 -2.49324e-13 -4.5589e-14 1.35392e-13 -1.99014e-13 3.75841e-13 -2.18142e-13 2.12185e-14 -1.34135e-14 -5.77539e-15 -4.41722e-13 1.33137e-13 -1.07217e-13 1.09385e-13 -1.00262e-13 -1.05989e-12 4.79149e-13 1.80037e-13 8.9246e-14 3.66567e-12 2.53116e-11 1.9312e-10 1.35926e-09 8.91412e-09 5.43623e-08 3.07088e-07 1.59956e-06 7.64273e-06 3.32927e-05 0.000131265 0.000464445 0.00146045 0.00404129 0.00976567 0.0205704 0.037941 0.0620371 0.0916275 0.124895 0.160297 0.196832 0.233956 0.271405 0.30896 0.346479 0.383904 0.421181 0.45826 0.495094 0.531633 0.56782 0.603593 0.638881 0.673603 0.707674 0.740996 0.773473 0.805017 0.835573 0.865163 0.893912 0.922492 0.941701 0.94172 0.94094 0.939643 0.938203 0.936609 0.934951 0.933345 0.931855 0.930689 0.929722 0.928929 0.928469 0.928092 0.927913 0.928212 0.927323 0.921576 0.925157 0.925729 0.930174 0.928629 0.928872 0.92989 0.929931 0.929897 0.929889 0.929875 0.929614 0.929235 0.928959 0.929167 0.929181 0.928432 0.922245 0.902989 0.859531 0.784578 0.677647 0.545222 0.400878 0.263358 0.151223 0.0751177 0.0327903 0.0131473 0.00503791 0.00188749 0.00069875 0.000256605 9.35805e-05 3.38892e-05 1.21812e-05 4.3432e-06 1.53511e-06 5.37541e-07 1.86368e-07 6.39401e-08 2.16982e-08 7.27946e-09 2.41311e-09 7.90859e-10 2.55553e-10 8.14142e-11 2.54744e-11 7.09836e-12 2.46106e-12 -2.71297e-13 -1.94821e-13 -1.68263e-13 -1.27334e-13 2.4975e-13 -5.64726e-13 -2.20684e-13 1.25188e-12 -2.67086e-13 2.12347e-13 1.7968e-13 2.65458e-13 -8.03474e-14 -5.30215e-13 -5.46547e-13 -4.8333e-13 -5.88916e-13 -1.6269e-13 -8.21304e-13 6.28245e-13 -2.08818e-13 -4.48293e-13 -2.75638e-13 1.24395e-12 5.15533e-13 -2.38118e-13 -1.2825e-13 -1.21648e-13 -1.31518e-13 -5.54726e-13 7.61866e-13 -2.47341e-14 0
				</DataArray>
				<DataArray Name="VitesseY" type="Float32" format="ascii">