<?xml version="1.0"?>
<VTKFile type="PolyData">
	<PolyData>
		<Piece NumberOfPoints="1206" NumberOfPolys="1000">
			<Points>
				<DataArray type="Float32" NumberOfComponents="3" format="ascii">
 0 0 0 0.005 0 0 0.01 0 0 0.015 0 0 0.02 0 0 0.025 0 0 0.03 0 0 0.035 0 0 0.04 0 0 0.045 0 0 0.05 0 0 0.055 0 0 0.06 0 0 0.065 0 0 0.07 0 0 0.075 0 0 0.08 0 0 0.085 0 0 0.09 0 0 0.095 0 0 0.1 0 0 0.105 0 0 0.11 0 0 0.115 0 0 0.12 0 0 0.125 0 0 0.13 0 0 0.135 0 0 0.14 0 0 0.145 0 0 0.15 0 0 0.155 0 0 0.16 0 0 0.165 0 0 0.17 0 0 0.175 0 0 0.18 0 0 0.185 0 0 0.19 0 0 0.195 0 0 0.2 0 0 0.205 0 0 0.21 0 0 0.215 0 0 0.22 0 0 0.225 0 0 0.23 0 0 0.235 0 0 0.24 0 0 0.245 0 0 0.25 0 0 0.255 0 0 0.26 0 0 0.265 0 0 0.27 0 0 0.275 0 0 0.28 0 0 0.285 0 0 0.29 0 0 0.295 0 0 0.3 0 0 0.305 0 0 0.31 0 0 0.315 0 0 0.32 0 0 0.325 0 0 0.33 0 0 0.335 0 0 0.34 0 0 0.345 0 0 0.35 0 0 0.355 0 0 0.36 0 0 0.365 0 0 0.37 0 0 0.375 0 0 0.38 0 0 0.385 0 0 0.39 0 0 0.395 0 0 0.4 0 0 0.405 0 0 0.41 0 0 0.415 0 0 0.42 0 0 0.425 0 0 0.43 0 0 0.435 0 0 0.44 0 0 0.445 0 0 0.45 0 0 0.455 0 0 0.46 0 0 0.465 0 0 0.47 0 0 0.475 0 0 0.48 0 0 0.485 0 0 0.49 0 0 0.495 0 0 0.5 0 0 0.505 0 0 0.51 0 0 0.515 0 0 0.52 0 0 0.525 0 0 0.53 0 0 0.535 0 0 0.54 0 0 0.545 0 0 0.55 0 0 0.555 0 0 0.56 0 0 0.565 0 0 0.57 0 0 0.575 0 0 0.58 0 0 0.585 0 0 0.59 0 0 0.595 0 0 0.6 0 0 0.605 0 0 0.61 0 0 0.615 0 0 0.62 0 0 0.625 0 0 0.63 0 0 0.635 0 0 0.64 0 0 0.645 0 0 0.65 0 0 0.655 0 0 0.66 0 0 0.665 0 0 0.67 0 0 0.675 0 0 0.68 0 0 0.685 0 0 0.69 0 0 0.695 0 0 0.7 0 0 0.705 0 0 0.71 0 0 0.715 0 0 0.72 0 0 0.725 0 0 0.73 0 0 0.735 0 0 0.74 0 0 0.745 0 0 0.75 0 0 0.755 0 0 0.76 0 0 0.765 0 0 0.77 0 0 0.775 0 0 0.78 0 0 0.785 0 0 0.79 0 0 0.795 0 0 0.8 0 0 0.805 0 0 0.81 0 0 0.815 0 0 0.82 0 0 0.825 0 0 0.83 0 0 0.835 0 0 0.84 0 0 0.845 0 0 0.85 0 0 0.855 0 0 0.86 0 0 0.865 0 0 0.87 0 0 0.875 0 0 0.88 0 0 0.885 0 0 0.89 0 0 0.895 0 0 0.9 0 0 0.905 0 0 0.91 0 0 0.915 0 0 0.92 0 0 0.925 0 0 0.93 0 0 0.935 0 0 0.94 0 0 0.945 0 0 0.95 0 0 0.955 0 0 0.96 0 0 0.965 0 0 0.97 0 0 0.975 0 0 0.98 0 0 0.985 0 0 0.99 0 0 0.995 0 0 1 0 0 0 0.02 0 0.005 0.02 0 0.01 0.02 0 0.015 0.02 0 0.02 0.02 0 0.025 0.02 0 0.03 0.02 0 0.035 0.02 0 0.04 0.02 0 0.045 0.02 0 0.05 0.02 0 0.055 0.02 0 0.06 0.02 0 0.065 0.02 0 0.07 0.02 0 0.075 0.02 0 0.08 0.02 0 0.085 0.02 0 0.09 0.02 0 0.095 0.02 0 0.1 0.02 0 0.105 0.02 0 0.11 0.02 0 0.115 0.02 0 0.12 0.02 0 0.125 0.02 0 0.13 0.02 0 0.135 0.02 0 0.14 0.02 0 0.145 0.02 0 0.15 0.02 0 0.155 0.02 0 0.16 0.02 0 0.165 0.02 0 0.17 0.02 0 0.175 0.02 0 0.18 0.02 0 0.185 0.02 0 0.19 0.02 0 0.195 0.02 0 0.2 0.02 0 0.205 0.02 0 0.21 0.02 0 0.215 0.02 0 0.22 0.02 0 0.225 0.02 0 0.23 0.02 0 0.235 0.02 0 0.24 0.02 0 0.245 0.02 0 0.25 0.02 0 0.255 0.02 0 0.26 0.02 0 0.265 0.02 0 0.27 0.02 0 0.275 0.02 0 0.28 0.02 0 0.285 0.02 0 0.29 0.02 0 0.295 0.02 0 0.3 0.02 0 0.305 0.02 0 0.31 0.02 0 0.315 0.02 0 0.32 0.02 0 0.325 0.02 0 0.33 0.02 0 0.335 0.02 0 0.34 0.02 0 0.345 0.02 0 0.35 0.02 0 0.355 0.02 0 0.36 0.02 0 0.365 0.02 0 0.37 0.02 0 0.375 0.02 0 0.38 0.02 0 0.385 0.02 0 0.39 0.02 0 0.395 0.02 0 0.4 0.02 0 0.405 0.02 0 0.41 0.02 0 0.415 0.02 0 0.42 0.02 0 0.425 0.02 0 0.43 0.02 0 0.435 0.02 0 0.44 0.02 0 0.445 0.02 0 0.45 0.02 0 0.455 0.02 0 0.46 0.02 0 0.465 0.02 0 0.47 0.02 0 0.475 0.02 0 0.48 0.02 0 0.485 0.02 0 0.49 0.02 0 0.495 0.02 0 0.5 0.02 0 0.505 0.02 0 0.51 0.02 0 0.515 0.02 0 0.52 0.02 0 0.525 0.02 0 0.53 0.02 0 0.535 0.02 0 0.54 0.02 0 0.545 0.02 0 0.55 0.02 0 0.555 0.02 0 0.56 0.02 0 0.565 0.02 0 0.57 0.02 0 0.575 0.02 0 0.58 0.02 0 0.585 0.02 0 0.59 0.02 0 0.595 0.02 0 0.6 0.02 0 0.605 0.02 0 0.61 0.02 0 0.615 0.02 0 0.62 0.02 0 0.625 0.02 0 0.63 0.02 0 0.635 0.02 0 0.64 0.02 0 0.645 0.02 0 0.65 0.02 0 0.655 0.02 0 0.66 0.02 0 0.665 0.02 0 0.67 0.02 0 0.675 0.02 0 0.68 0.02 0 0.685 0.02 0 0.69 0.02 0 0.695 0.02 0 0.7 0.02 0 0.705 0.02 0 0.71 0.02 0 0.715 0.02 0 0.72 0.02 0 0.725 0.02 0 0.73 0.02 0 0.735 0.02 0 0.74 0.02 0 0.745 0.02 0 0.75 0.02 0 0.755 0.02 0 0.76 0.02 0 0.765 0.02 0 0.77 0.02 0 0.775 0.02 0 0.78 0.02 0 0.785 0.02 0 0.79 0.02 0 0.795 0.02 0 0.8 0.02 0 0.805 0.02 0 0.81 0.02 0 0.815 0.02 0 0.82 0.02 0 0.825 0.02 0 0.83 0.02 0 0.835 0.02 0 0.84 0.02 0 0.845 0.02 0 0.85 0.02 0 0.855 0.02 0 0.86 0.02 0 0.865 0.02 0 0.87 0.02 0 0.875 0.02 0 0.88 0.02 0 0.885 0.02 0 0.89 0.02 0 0.895 0.02 0 0.9 0.02 0 0.905 0.02 0 0.91 0.02 0 0.915 0.02 0 0.92 0.02 0 0.925 0.02 0 0.93 0.02 0 0.935 0.02 0 0.94 0.02 0 0.945 0.02 0 0.95 0.02 0 0.955 0.02 0 0.96 0.02 0 0.965 0.02 0 0.97 0.02 0 0.975 0.02 0 0.98 0.02 0 0.985 0.02 0 0.99 0.02 0 0.995 0.02 0 1 0.02 0 0 0.04 0 0.005 0.04 0 0.01 0.04 0 0.015 0.04 0 0.02 0.04 0 0.025 0.04 0 0.03 0.04 0 0.035 0.04 0 0.04 0.04 0 0.045 0.04 0 0.05 0.04 0 0.055 0.04 0 0.06 0.04 0 0.065 0.04 0 0.07 0.04 0 0.075 0.04 0 0.08 0.04 0 0.085 0.04 0 0.09 0.04 0 0.095 0.04 0 0.1 0.04 0 0.105 0.04 0 0.11 0.04 0 0.115 0.04 0 0.12 0.04 0 0.125 0.04 0 0.13 0.04 0 0.135 0.04 0 0.14 0.04 0 0.145 0.04 0 0.15 0.04 0 0.155 0.04 0 0.16 0.04 0 0.165 0.04 0 0.17 0.04 0 0.175 0.04 0 0.18 0.04 0 0.185 0.04 0 0.19 0.04 0 0.195 0.04 0 0.2 0.04 0 0.205 0.04 0 0.21 0.04 0 0.215 0.04 0 0.22 0.04 0 0.225 0.04 0 0.23 0.04 0 0.235 0.04 0 0.24 0.04 0 0.245 0.04 0 0.25 0.04 0 0.255 0.04 0 0.26 0.04 0 0.265 0.04 0 0.27 0.04 0 0.275 0.04 0 0.28 0.04 0 0.285 0.04 0 0.29 0.04 0 0.295 0.04 0 0.3 0.04 0 0.305 0.04 0 0.31 0.04 0 0.315 0.04 0 0.32 0.04 0 0.325 0.04 0 0.33 0.04 0 0.335 0.04 0 0.34 0.04 0 0.345 0.04 0 0.35 0.04 0 0.355 0.04 0 0.36 0.04 0 0.365 0.04 0 0.37 0.04 0 0.375 0.04 0 0.38 0.04 0 0.385 0.04 0 0.39 0.04 0 0.395 0.04 0 0.4 0.04 0 0.405 0.04 0 0.41 0.04 0 0.415 0.04 0 0.42 0.04 0 0.425 0.04 0 0.43 0.04 0 0.435 0.04 0 0.44 0.04 0 0.445 0.04 0 0.45 0.04 0 0.455 0.04 0 0.46 0.04 0 0.465 0.04 0 0.47 0.04 0 0.475 0.04 0 0.48 0.04 0 0.485 0.04 0 0.49 0.04 0 0.495 0.04 0 0.5 0.04 0 0.505 0.04 0 0.51 0.04 0 0.515 0.04 0 0.52 0.04 0 0.525 0.04 0 0.53 0.04 0 0.535 0.04 0 0.54 0.04 0 0.545 0.04 0 0.55 0.04 0 0.555 0.04 0 0.56 0.04 0 0.565 0.04 0 0.57 0.04 0 0.575 0.04 0 0.58 0.04 0 0.585 0.04 0 0.59 0.04 0 0.595 0.04 0 0.6 0.04 0 0.605 0.04 0 0.61 0.04 0 0.615 0.04 0 0.62 0.04 0 0.625 0.04 0 0.63 0.04 0 0.635 0.04 0 0.64 0.04 0 0.645 0.04 0 0.65 0.04 0 0.655 0.04 0 0.66 0.04 0 0.665 0.04 0 0.67 0.04 0 0.675 0.04 0 0.68 0.04 0 0.685 0.04 0 0.69 0.04 0 0.695 0.04 0 0.7 0.04 0 0.705 0.04 0 0.71 0.04 0 0.715 0.04 0 0.72 0.04 0 0.725 0.04 0 0.73 0.04 0 0.735 0.04 0 0.74 0.04 0 0.745 0.04 0 0.75 0.04 0 0.755 0.04 0 0.76 0.04 0 0.765 0.04 0 0.77 0.04 0 0.775 0.04 0 0.78 0.04 0 0.785 0.04 0 0.79 0.04 0 0.795 0.04 0 0.8 0.04 0 0.805 0.04 0 0.81 0.04 0 0.815 0.04 0 0.82 0.04 0 0.825 0.04 0 0.83 0.04 0 0.835 0.04 0 0.84 0.04 0 0.845 0.04 0 0.85 0.04 0 0.855 0.04 0 0.86 0.04 0 0.865 0.04 0 0.87 0.04 0 0.875 0.04 0 0.88 0.04 0 0.885 0.04 0 0.89 0.04 0 0.895 0.04 0 0.9 0.04 0 0.905 0.04 0 0.91 0.04 0 0.915 0.04 0 0.92 0.04 0 0.925 0.04 0 0.93 0.04 0 0.935 0.04 0 0.94 0.04 0 0.945 0.04 0 0.95 0.04 0 0.955 0.04 0 0.96 0.04 0 0.965 0.04 0 0.97 0.04 0 0.975 0.04 0 0.98 0.04 0 0.985 0.04 0 0.99 0.04 0 0.995 0.04 0 1 0.04 0 0 0.06 0 0.005 0.06 0 0.01 0.06 0 0.015 0.06 0 0.02 0.06 0 0.025 0.06 0 0.03 0.06 0 0.035 0.06 0 0.04 0.06 0 0.045 0.06 0 0.05 0.06 0 0.055 0.06 0 0.06 0.06 0 0.065 0.06 0 0.07 0.06 0 0.075 0.06 0 0.08 0.06 0 0.085 0.06 0 0.09 0.06 0 0.095 0.06 0 0.1 0.06 0 0.105 0.06 0 0.11 0.06 0 0.115 0.06 0 0.12 0.06 0 0.125 0.06 0 0.13 0.06 0 0.135 0.06 0 0.14 0.06 0 0.145 0.06 0 0.15 0.06 0 0.155 0.06 0 0.16 0.06 0 0.165 0.06 0 0.17 0.06 0 0.175 0.06 0 0.18 0.06 0 0.185 0.06 0 0.19 0.06 0 0.195 0.06 0 0.2 0.06 0 0.205 0.06 0 0.21 0.06 0 0.215 0.06 0 0.22 0.06 0 0.225 0.06 0 0.23 0.06 0 0.235 0.06 0 0.24 0.06 0 0.245 0.06 0 0.25 0.06 0 0.255 0.06 0 0.26 0.06 0 0.265 0.06 0 0.27 0.06 0 0.275 0.06 0 0.28 0.06 0 0.285 0.06 0 0.29 0.06 0 0.295 0.06 0 0.3 0.06 0 0.305 0.06 0 0.31 0.06 0 0.315 0.06 0 0.32 0.06 0 0.325 0.06 0 0.33 0.06 0 0.335 0.06 0 0.34 0.06 0 0.345 0.06 0 0.35 0.06 0 0.355 0.06 0 0.36 0.06 0 0.365 0.06 0 0.37 0.06 0 0.375 0.06 0 0.38 0.06 0 0.385 0.06 0 0.39 0.06 0 0.395 0.06 0 0.4 0.06 0 0.405 0.06 0 0.41 0.06 0 0.415 0.06 0 0.42 0.06 0 0.425 0.06 0 0.43 0.06 0 0.435 0.06 0 0.44 0.06 0 0.445 0.06 0 0.45 0.06 0 0.455 0.06 0 0.46 0.06 0 0.465 0.06 0 0.47 0.06 0 0.475 0.06 0 0.48 0.06 0 0.485 0.06 0 0.49 0.06 0 0.495 0.06 0 0.5 0.06 0 0.505 0.06 0 0.51 0.06 0 0.515 0.06 0 0.52 0.06 0 0.525 0.06 0 0.53 0.06 0 0.535 0.06 0 0.54 0.06 0 0.545 0.06 0 0.55 0.06 0 0.555 0.06 0 0.56 0.06 0 0.565 0.06 0 0.57 0.06 0 0.575 0.06 0 0.58 0.06 0 0.585 0.06 0 0.59 0.06 0 0.595 0.06 0 0.6 0.06 0 0.605 0.06 0 0.61 0.06 0 0.615 0.06 0 0.62 0.06 0 0.625 0.06 0 0.63 0.06 0 0.635 0.06 0 0.64 0.06 0 0.645 0.06 0 0.65 0.06 0 0.655 0.06 0 0.66 0.06 0 0.665 0.06 0 0.67 0.06 0 0.675 0.06 0 0.68 0.06 0 0.685 0.06 0 0.69 0.06 0 0.695 0.06 0 0.7 0.06 0 0.705 0.06 0 0.71 0.06 0 0.715 0.06 0 0.72 0.06 0 0.725 0.06 0 0.73 0.06 0 0.735 0.06 0 0.74 0.06 0 0.745 0.06 0 0.75 0.06 0 0.755 0.06 0 0.76 0.06 0 0.765 0.06 0 0.77 0.06 0 0.775 0.06 0 0.78 0.06 0 0.785 0.06 0 0.79 0.06 0 0.795 0.06 0 0.8 0.06 0 0.805 0.06 0 0.81 0.06 0 0.815 0.06 0 0.82 0.06 0 0.825 0.06 0 0.83 0.06 0 0.835 0.06 0 0.84 0.06 0 0.845 0.06 0 0.85 0.06 0 0.855 0.06 0 0.86 0.06 0 0.865 0.06 0 0.87 0.06 0 0.875 0.06 0 0.88 0.06 0 0.885 0.06 0 0.89 0.06 0 0.895 0.06 0 0.9 0.06 0 0.905 0.06 0 0.91 0.06 0 0.915 0.06 0 0.92 0.06 0 0.925 0.06 0 0.93 0.06 0 0.935 0.06 0 0.94 0.06 0 0.945 0.06 0 0.95 0.06 0 0.955 0.06 0 0.96 0.06 0 0.965 0.06 0 0.97 0.06 0 0.975 0.06 0 0.98 0.06 0 0.985 0.06 0 0.99 0.06 0 0.995 0.06 0 1 0.06 0 0 0.08 0 0.005 0.08 0 0.01 0.08 0 0.015 0.08 0 0.02 0.08 0 0.025 0.08 0 0.03 0.08 0 0.035 0.08 0 0.04 0.08 0 0.045 0.08 0 0.05 0.08 0 0.055 0.08 0 0.06 0.08 0 0.065 0.08 0 0.07 0.08 0 0.075 0.08 0 0.08 0.08 0 0.085 0.08 0 0.09 0.08 0 0.095 0.08 0 0.1 0.08 0 0.105 0.08 0 0.11 0.08 0 0.115 0.08 0 0.12 0.08 0 0.125 0.08 0 0.13 0.08 0 0.135 0.08 0 0.14 0.08 0 0.145 0.08 0 0.15 0.08 0 0.155 0.08 0 0.16 0.08 0 0.165 0.08 0
[...]
			<PointData Scalars="VitesseX">
				<DataArray Name="VitesseX" type="Float32" format="ascii">
 0 -1.31411e-14 -5.10368e-15 4.87724e-14 -7.96304e-14 -8.0601e-14 -1.02927e-14 -2.83921e-14 -8.94196e-14 3.81884e-14 1.21677e-14 -2.31974e-13 1.47503e-13 -2.39939e-13 -1.68552e-15 1.32068e-15 -2.27337e-13 1.89426e-13 -2.68475e-13 2.4624e-14 -1.07309e-13 -4.70955e-14 -2.91531e-14 -1.37516e-13 2.23114e-13 6.4939e-14 -5.09977e-14 3.42087e-14 -2.50885e-13 1.07017e-13 -3.77957e-13 1.72597e-13 -6.81197e-14 -4.3347e-13 3.41945e-13 -2.58914e-13 1.74185e-13 -6.10412e-13 3.60919e-13 -1.75068e-13 -7.21645e-14 -5.0804e-14 -3.6893e-14 1.44673e-13 5.84615e-14 -3.05256e-13 -3.15929e-13 -6.03139e-13 3.12869e-14 1.84193e-13 -1.97776e-13 -3.3817e-13 -4.9281e-13 5.88824e-13 6.07603e-13 3.92933e-13 -3.75909e-13 -8.39717e-14 7.83604e-14 4.64002e-14 -3.70359e-13 -5.82608e-13 1.39432e-14 -2.65451e-13 -3.26736e-13 3.31816e-15 4.63919e-13 6.84769e-13 -3.01269e-13 -1.54635e-13 -7.50085e-14 -3.27109e-13 1.19204e-13 -6.30327e-13 1.33752e-13 -3.99705e-13 5.20478e-12 6.78601e-11 8.63631e-10 9.8847e-09 1.00933e-07 9.11387e-07 7.20227e-06 4.91899e-05 0.000285851 0.00138657 0.005494 0.0174462 0.0441675 0.0908036 0.156279 0.234455 0.317353 0.399675 0.480556 0.559028 0.634156 0.705045 0.77061 0.829544 0.880966 0.927939 0.940983 0.940492 0.940097 0.938582 0.935502 0.933309 0.932518 0.890147 0.934706 0.936825 0.938348 0.935979 0.928225 0.904032 0.847752 0.754271 0.627214 0.477904 0.325855 0.193015 0.0970101 0.0412622 0.0154417 0.00533834 0.00175793 0.000559388 0.000172887 5.19723e-05 1.51999e-05 4.32449e-06 1.19676e-06 3.22141e-07 8.43446e-08 2.14836e-08 5.32366e-09 1.28359e-09 3.01494e-10 6.85531e-11 1.48577e-11 3.708e-12 3.31995e-13 3.55844e-13 -3.17944e-13 -7.81999e-13 1.34742e-12 -1.31034e-12 9.09606e-13 -3.50547e-13 1.1583e-13 1.23652e-12 -5.27775e-13 3.20027e-13 -7.71373e-13 7.23203e-13 -2.48977e-13 -4.58391e-13 -7.39665e-13 -7.66503e-13 1.03018e-12 8.34005e-14 -5.77178e-13 -4.31001e-13 -9.75506e-13 4.15905e-13 7.11841e-13 3.44828e-13 3.82333e-13 -8.20581e-13 4.5941e-13 -1.31671e-13 2.08589e-13 1.01627e-12 -5.21004e-13 3.26148e-13 -9.1637e-13 1.57672e-13 1.24762e-12 -8.56275e-13 -5.78162e-13 -3.87824e-13 -1.28955e-12 9.18286e-13 -7.74186e-13 1.93878e-13 -2.96774e-14 -1.24062e-13 1.23642e-12 -1.77315e-12 -4.44317e-14 4.21275e-13 -1.61573e-12 7.25651e-13 -8.60563e-13 -3.65163e-13 5.39081e-13 -2.1466e-12 1.13226e-12 -1.95578e-12 0 0 4.08346e-15 -3.98924e-15 -6.8393e-14 1.37091e-14 -2.04963e-14 -8.12792e-14 -7.70455e-14 -1.57852e-14 -1.04078e-13 -1.01816e-13 1.15441e-13 -2.17103e-13 8.08595e-14 -1.53409e-13 -4.2807e-14 9.16508e-14 -2.90695e-13 1.16594e-13 -1.20768e-13 -1.20291e-13 -1.27324e-14 -1.96766e-13 -3.40376e-15 8.33895e-14 6.81358e-14 1.24336e-13 -1.84767e-13 5.50697e-14 -2.04663e-13 2.09076e-13 -2.28486e-13 -1.87436e-13 4.05689e-14 -4.33318e-13 -5.20163e-14 -1.615e-13 3.52927e-13 -3.64781e-13 3.56315e-14 -8.43821e-14 -2.0266e-13 1.49782e-13 -1.69604e-13 -1.59614e-13 -5.59044e-14 -6.42872e-14 -2.23869e-13 -5.48193e-13 -3.99208e-13 1.25844e-13 4.81704e-14 2.94624e-13 2.56482e-14 -9.47765e-15 7.33987e-14 5.40093e-13 -1.43924e-13 -4.99049e-14 -3.05063e-13 -6.9002e-14 -1.92872e-13 -2.30741e-13 -3.66202e-13 1.25713e-13 6.25168e-14 1.208e-13 -1.86228e-13 3.84973e-13 1.17988e-13 -1.78033e-13 -1.00838e-13 -3.99603e-13 2.28579e-14 -4.55675e-13 6.43251e-13 4.92955e-12 6.78352e-11 8.63356e-10 9.8838e-09 1.00936e-07 9.11386e-07 7.20227e-06 4.91899e-05 0.000285851 0.00138657 0.005494 0.0174462 0.0441675 0.0908036 0.156279 0.234455 0.317353 0.399675 0.480556 0.559028 0.634156 0.705045 0.77061 0.829544 0.880966 0.927939 0.940983 0.940492 0.940097 0.938582 0.935502 0.933309 0.932518 0.890147 0.934706 0.936825 0.938348 0.935979 0.928226 0.904032 0.847752 0.754271 0.627214 0.477904 0.325855 0.193015 0.0970101 0.0412622 0.0154417 0.00533834 0.00175793 0.000559388 0.000172887 5.19723e-05 1.51999e-05 4.32449e-06 1.19677e-06 3.22141e-07 8.43459e-08 2.14825e-08 5.32366e-09 1.28362e-09 3.0096e-10 6.88782e-11 1.4995e-11 3.05517e-12 1.38062e-12 -2.48213e-13 2.56083e-13 2.99478e-14 -8.58107e-13 7.6836e-13 -6.25295e-13 8.78256e-13 3.054e-13 -7.78718e-13 9.35004e-13 -3.11775e-13 4.27783e-13 -4.12681e-13 -3.09568e-13 -3.38936e-13 -8.65258e-14 6.30104e-14 -6.93501e-13 -2.15262e-13 -2.07351e-13 -1.01813e-13 6.83193e-14 6.03241e-14 -5.98951e-13 2.18821e-13 9.8131e-14 5.45542e-13 5.43592e-14 1.59127e-13 2.4759e-13 -5.76658e-13 9.78567e-13 -7.08234e-13 6.68185e-13 6.2805e-14 -1.08885e-12 -2.06686e-14 7.93614e-14 -6.07807e-13 -8.46381e-14 -6.41635e-13 2.89146e-13 -5.84781e-13 2.14043e-13 1.9884e-13 -1.07161e-12 1.02933e-12 -4.99874e-13 -1.34517e-12 1.41785e-12 -1.04166e-12 -5.31288e-14 2.10524e-13 -1.17425e-12 4.61703e-13 -2.09592e-12 5.6064e-13 0 0 -2.04773e-14 -3.30231e-14 -5.58323e-15 -5.07809e-14 -5.83442e-14 -5.0563e-14 -7.04681e-14 -1.28547e-13 -4.34296e-14 -5.76429e-14 -1.38176e-13 1.02375e-13 -3.05908e-14 -3.93775e-14 -5.35972e-15 -1.17418e-13 -4.81113e-14 -4.60276e-14 -3.86285e-14 -1.73339e-13 -9.52895e-14 -6.59755e-15 -1.05492e-13 3.09252e-14 4.26803e-14 -4.46452e-14 -6.47343e-14 -2.42549e-13 1.93734e-13 -2.05815e-13 6.53193e-14 4.04029e-14 -4.21359e-13 -1.82082e-13 -1.69512e-13 9.03044e-14 -1.70614e-13 5.41109e-14 -1.10561e-13 -1.18509e-15 8.43944e-14 -1.03979e-13 -1.9617e-13 -2.33051e-13 -9.83956e-14 -1.71382e-13 -4.25589e-13 2.3089e-13 -2.20241e-13 1.6172e-13 2.66399e-13 -1.09213e-13 1.02604e-14 2.34733e-13 -2.86213e-13 1.67876e-13 -7.30367e-14 1.09212e-13 -2.11293e-13 -3.60808e-13 6.44672e-14 -2.16069e-13 -9.97998e-14 -2.98593e-13 3.50915e-13 -7.67616e-14 6.07584e-14 3.64059e-13 -1.50141e-13 7.20801e-14 4.44864e-14 -3.27137e-13 -2.85815e-13 -1.18803e-13 5.2936e-13 5.47507e-12 6.8192e-11 8.62833e-10 9.88473e-09 1.00934e-07 9.11386e-07 7.20227e-06 4.91899e-05 0.000285851 0.00138657 0.005494 0.0174462 0.0441675 0.0908036 0.156279 0.234455 0.317353 0.399675 0.480556 0.559028 0.634156 0.705045 0.77061 0.829544 0.880966 0.927939 0.940983 0.940492 0.940097 0.938582 0.935502 0.933309 0.932518 0.890147 0.934706 0.936825 0.938348 0.935979 0.928225 0.904032 0.847752 0.754271 0.627214 0.477904 0.325855 0.193015 0.0970101 0.0412622 0.0154417 0.00533834 0.00175793 0.000559388 0.000172887 5.19723e-05 1.51999e-05 4.32449e-06 1.19676e-06 3.22141e-07 8.43451e-08 2.14831e-08 5.32346e-09 1.28353e-09 3.0108e-10 6.83354e-11 1.5146e-11 3.62965e-12 7.4768e-13 2.56364e-13 1.70627e-13 6.9786e-14 5.61337e-14 2.02544e-13 -2.31759e-14 -2.34618e-13 1.14164e-13 4.17931e-13 2.18492e-13 4.24416e-13 -2.50309e-13 -9.33442e-13 -4.75507e-13 4.65161e-15 -4.75651e-13 -1.37458e-13 -4.50553e-13 -2.07366e-14 -2.13228e-13 -1.07496e-13 -4.16877e-13 -2.53934e-13 -7.60048e-14 1.5518e-13 7.243e-13 -2.15848e-13 -9.93883e-14 5.49022e-14 -4.65076e-14 3.99996e-13 -3.49998e-14 2.42043e-14 2.60627e-13 -2.16129e-15 -3.04786e-13 -5.37979e-13 -2.82696e-13 -1.92341e-13 1.04679e-14 -1.47837e-13 -4.56366e-13 1.45583e-13 7.36986e-14 -7.286e-13 5.11436e-13 -3.68473e-13 5.54465e-14 4.53475e-13 -5.45718e-13 -1.49543e-13 -7.29888e-13 -2.86495e-14 -1.81413e-13 -1.01992e-12 6.65691e-14 1.63757e-13 0 0 -1.77183e-14 -2.06395e-14 -2.72532e-14 -7.10618e-14 -8.56981e-14 -9.5938e-14 -1.35886e-13 -9.42414e-15 4.69577e-14 1.66226e-14 -1.72234e-13 4.63664e-14 -1.45123e-13 6.88538e-14 -7.06435e-14 -1.90368e-13 -4.91021e-15 -1.95066e-13 -1.13087e-13 -1.93037e-13 6.76888e-14 5.33042e-14 -1.33819e-13 1.00756e-13 -4.25564e-14 7.00373e-14 -4.68683e-14 -3.46844e-13 -7.74089e-14 5.76094e-14 4.97287e-14 -2.17901e-14 -9.05981e-14 1.33017e-13 -3.39445e-14 -7.17469e-14 -2.95975e-13 1.95359e-13 -8.90635e-14 -1.72618e-13 -9.96967e-14 -1.74802e-13 6.06007e-14 7.05105e-14 -6.10169e-14 -5.02512e-13 -1.23639e-13 -5.15998e-14 3.08193e-13 4.10341e-14 -4.9001e-13 3.24028e-13 3.59417e-13 -7.13976e-14 -1.4323e-14 -5.39611e-13 2.13324e-13 1.41439e-13 -3.16224e-13 -5.26695e-13 -3.68557e-13 -3.70727e-13 -1.49914e-13 1.00521e-13 1.34345e-13 4.15298e-13 5.01764e-13 1.10891e-13 1.4634e-13 -1.28296e-13 1.96791e-13 -1.02167e-13 -2.83005e-13 -5.39687e-15 -2.71009e-13 5.26973e-12 6.83012e-11 8.63543e-10 9.88426e-09 1.00934e-07 9.11387e-07 7.20227e-06 4.91899e-05 0.000285851 0.00138657 0.00549401 0.0174462 0.0441675 0.0908036 0.156279 0.234455 0.317353 0.399675 0.480556 0.559028 0.634156 0.705045 0.77061 0.829544 0.880966 0.927939 0.940983 0.940492 0.940097 0.938582 0.935502 0.933309 0.932518 0.890147 0.934706 0.936825 0.938348 0.935979 0.928225 0.904032 0.847752 0.754271 0.627214 0.477904 0.325855 0.193015 0.0970101 0.0412622 0.0154417 0.00533834 0.00175793 0.000559388 0.000172887 5.19723e-05 1.51999e-05 4.32449e-06 1.19677e-06 3.22141e-07 8.43448e-08 2.14832e-08 5.32362e-09 1.28383e-09 3.01136e-10 6.86532e-11 1.52948e-11 3.72494e-12 6.79771e-13 5.98504e-14 2.06286e-13 3.57263e-13 1.01816e-12 4.23738e-14 6.63857e-14 -4.64673e-13 -4.03518e-13 2.74693e-13 2.71512e-13 2.28422e-16 -6.65245e-13 -2.32112e-13 -3.66559e-13 -4.48378e-13 -8.12033e-13 -4.54958e-13 2.56795e-13 -2.43678e-13 -5.85966e-13 -8.22632e-13 -4.36192e-13 -4.72575e-13 8.48091e-13 7.40629e-13 -4.16538e-13 -1.5904e-13 2.83034e-13 -5.01317e-13 7.01631e-13 7.21083e-13 -9.2471e-13 2.5214e-13 -6.27028e-13 -3.05971e-13 8.92287e-13 -5.2167e-13 -2.46787e-13 -6.00841e-13 -5.73942e-13 7.68434e-13 1.45447e-13 8.28528e-13 -3.55016e-13 -6.46244e-13 -7.12689e-14 -5.25934e-13 4.60034e-13 3.63762e-13 -1.01704e-12 2.04909e-13 -5.2242e-13 3.39677e-13 7.51044e-13 -7.9097e-13 -9.19672e-14 -1.32071e-12 0 0 -1.19825e-15 -9.12721e-15 -9.49894e-14 -1.85286e-15 -6.81116e-14 -1.15415e-13 -1.3483e-13 5.54622e-14 -2.40447e-14 -4.90581e-14 1.12975e-13 -2.29613e-13 8.77718e-14 -1.4726e-13 -1.14005e-13 3.35176e-14 -3.25434e-13 -2.16457e-14 -2.49789e-13 -1.3938e-13 2.45262e-14 -1.44307e-13 1.89311e-14 5.90381e-15 -2.22594e-13 6.07486e-14 -2.10597e-13 1.08118e-13 -3.1052e-13 5.77977e-13 -2.09281e-13 4.28601e-14 5.49428e-13 -1.93038e-13 -7.60696e-14 -1.95022e-13 4.30386e-13 -4.12864e-13 -4.55867e-14 -2.54326e-13 -3.29394e-13 6.59359e-14 -1.26727e-13 -1.67851e-13 -1.34561e-13 -2.73163e-13 6.55392e-14 -7.80599e-13 -1.82909e-13 1.63371e-13 8.19011e-14 5.14998e-13 -7.64897e-15 -4.63794e-13 2.25401e-13 1.97295e-15 1.1135e-13 -3.71338e-13 -3.6628e-13 -1.34172e-13 -4.90915e-13 -4.42539e-13 3.14914e-14 7.61983e-13 4.40332e-15 3.39514e-13 8.42457e-14 3.43623e-13 3.67152e-13 -5.54123e-13 -1.04576e-13 -3.90043e-13 5.796e-13 -7.56669e-14 5.31809e-13 4.74778e-12 6.80301e-11 8.63585e-10 9.88386e-09 1.00936e-07 9.11387e-07 7.20227e-06 4.91899e-05 0.000285851 0.00138657 0.00549401 0.0174462 0.0441675 0.0908036 0.156279 0.234455 0.317353 0.399675 0.480556 0.559028 0.634156 0.705045 0.77061 0.829544 0.880966 0.927939 0.940983 0.940492 0.940097 0.938582 0.935502 0.933309 0.932518 0.890147 0.934706 0.936825 0.938348 0.935979 0.928225 0.904032 0.847752 0.754271 0.627214 0.477904 0.325855 0.193015 0.0970101 0.0412622 0.0154417 0.00533834 0.00175793 0.000559388 0.000172887 5.19723e-05 1.51999e-05 4.32449e-06 1.19677e-06 3.2214e-07 8.43459e-08 2.14827e-08 5.3236e-09 1.28386e-09 3.00987e-10 6.93624e-11 1.54431e-11 3.25655e-12 1.28815e-12 -1.88335e-14 6.89776e-13 7.33046e-13 -7.40193e-13 9.92136e-13 -3.53434e-13 7.52605e-13 -4.13729e-13 -1.36274e-12 4.85891e-13 -2.50787e-13 2.46374e-13 -3.42498e-13 -3.99924e-13 -8.95369e-13 -5.83651e-13 -2.42988e-13 -6.54159e-13 1.2289e-13 -7.92699e-13 2.36432e-13 8.52334e-13 -4.96365e-13 -3.23554e-13 3.84829e-13 -1.14135e-12 7.20689e-13 1.54962e-13 -2.6922e-13 4.95719e-13 -6.39329e-13 8.02588e-14 -6.23718e-13 2.45588e-13 -2.07744e-13 -4.60689e-13 -2.10479e-13 -1.85549e-13 -6.56013e-13 3.72708e-14 -2.45745e-13 8.9654e-13 1.10123e-13 -9.02984e-14 -1.44516e-13 -1.25824e-12 1.36704e-12 -3.95604e-13 -1.30875e-12 1.24445e-12 -6.7767e-13 6.22429e-13 3.80146e-13 -6.49591e-13 2.70142e-13 -2.27793e-12 -2.68465e-13 0 0 -2.92224e-14 -4.01469e-14 3.89195e-14 -7.01926e-14 -1.21124e-13 1.21855e-14 -1.31253e-14 -1.85171e-13 1.74798e-14 -3.08471e-14 -1.68789e-13 2.345e-13 2.94846e-15 -2.05849e-13 -1.0507e-14 -1.97703e-13 3.35444e-14 -2.46876e-13 -8.45006e-14 -1.06091e-13 -2.98535e-13 -4.40388e-14 -3.61925e-14 -7.15194e-14 -3.46048e-13 -4.07538e-13 -5.31838e-14 6.38031e-14 4.3759e-13 -1.67004e-13 2.42189e-13 5.16859e-13 -7.72717e-14 1.92307e-13 -5.78154e-13 4.31243e-13 -2.04773e-13 -1.77451e-14 -3.80499e-13 -6.91861e-14 6.39117e-14 -6.29408e-14 -2.83115e-13 -5.65135e-13 -5.37327e-13 -7.14201e-14 -6.28221e-13 1.31454e-13 -4.40079e-13 1.18649e-13 1.24211e-12 -9.18544e-13 -1.76084e-13 3.11232e-13 1.53157e-13 -3.71757e-14 -1.46144e-13 -6.28959e-13 1.3383e-13 -1.68926e-13 -3.12645e-13 -1.00338e-13 6.30164e-13 1.47575e-13 3.20231e-13 -8.27713e-14 3.43705e-13 1.22367e-13 -2.49269e-13 -4.26436e-13 -6.39194e-13 -3.11613e-13 4.77537e-13 6.66957e-13 9.7815e-13 5.25192e-12 6.80316e-11 8.6267e-10 9.88576e-09 1.00933e-07 9.11387e-07 7.20227e-06 4.91899e-05 0.000285851 0.00138657 0.00549401 0.0174463 0.0441676 0.0908036 0.156279 0.234455 0.317353 0.399675 0.480556 0.559028 0.634156 0.705045 0.77061 0.829544 0.880966 0.927939 0.940983 0.940492 0.940097 0.938582 0.935502 0.933309 0.932518 0.890147 0.934706 0.936825 0.938348 0.935979 0.928225 0.904032 0.847752 0.754271 0.627214 0.477904 0.325855 0.193015 0.0970101 0.0412622 0.0154417 0.00533834 0.00175793 0.000559388 0.000172887 5.19723e-05 1.51999e-05 4.32449e-06 1.19676e-06 3.22141e-07 8.43452e-08 2.14838e-08 5.32323e-09 1.28346e-09 3.01436e-10 6.88858e-11 1.54563e-11 3.92015e-12 2.82868e-13 1.20763e-12 4.78122e-13 4.92443e-14 -3.40816e-13 -5.42448e-13 1.2742e-12 -1.4174e-13 -2.87064e-13 3.54948e-13 -1.53204e-12 1.29038e-12 -3.04317e-13 -5.39093e-13 -6.47584e-13 -6.65198e-13 -1.06115e-12 -7.43499e-13 -3.05836e-13 1.20559e-12 -1.0024e-12 1.67576e-12 6.31152e-13 -2.60191e-13 -5.85556e-13 -4.94052e-13 1.8504e-13 -5.83903e-13 -1.04228e-13 1.24075e-13 -7.91431e-13 2.48756e-13 -5.38201e-13 3.93075e-14 1.37454e-14 2.24191e-13 1.09796e-13 -1.26851e-12 -1.1798e-12 3.32764e-13 1.23084e-13 -1.22476e-13 -7.63022e-13 2.17796e-13 2.19068e-13 -9.75485e-13 2.02856e-12 -7.82806e-13 -6.45067e-13 6.73541e-13 -1.01989e-12 7.44725e-13 7.56153e-14 -7.62572e-13 -2.76518e-13 -2.98763e-12 1.08532e-12 -6.45047e-13 0
				</DataArray>
				<DataArray Name="VitesseY" type="Float32" format="ascii">