<?xml version="1.0"?>
<VTKFile type="PolyData">
	<PolyData>
		<Piece NumberOfPoints="1206" NumberOfPolys="1000">
			<Points>
				<DataArray type="Float32" NumberOfComponents="3" format="ascii">
 0 0 0 0.005 0 0 0.01 0 0 0.015 0 0 0.02 0 0 0.025 0 0 0.03 0 0 0.035 0 0 0.04 0 0 0.045 0 0 0.05 0 0 0.055 0 0 0.06 0 0 0.065 0 0 0.07 0 0 0.075 0 0 0.08 0 0 0.085 0 0 0.09 0 0 0.095 0 0 0.1 0 0 0.105 0 0 0.11 0 0 0.115 0 0 0.12 0 0 0.125 0 0 0.13 0 0 0.135 0 0 0.14 0 0 0.145 0 0 0.15 0 0 0.155 0 0 0.16 0 0 0.165 0 0 0.17 0 0 0.175 0 0 0.18 0 0 0.185 0 0 0.19 0 0 0.195 0 0 0.2 0 0 0.205 0 0 0.21 0 0 0.215 0 0 0.22 0 0 0.225 0 0 0.23 0 0 0.235 0 0 0.24 0 0 0.245 0 0 0.25 0 0 0.255 0 0 0.26 0 0 0.265 0 0 0.27 0 0 0.275 0 0 0.28 0 0 0.285 0 0 0.29 0 0 0.295 0 0 0.3 0 0 0.305 0 0 0.31 0 0 0.315 0 0 0.32 0 0 0.325 0 0 0.33 0 0 0.335 0 0 0.34 0 0 0.345 0 0 0.35 0 0 0.355 0 0 0.36 0 0 0.365 0 0 0.37 0 0 0.375 0 0 0.38 0 0 0.385 0 0 0.39 0 0 0.395 0 0 0.4 0 0 0.405 0 0 0.41 0 0 0.415 0 0 0.42 0 0 0.425 0 0 0.43 0 0 0.435 0 0 0.44 0 0 0.445 0 0 0.45 0 0 0.455 0 0 0.46 0 0 0.465 0 0 0.47 0 0 0.475 0 0 0.48 0 0 0.485 0 0 0.49 0 0 0.495 0 0 0.5 0 0 0.505 0 0 0.51 0 0 0.515 0 0 0.52 0 0 0.525 0 0 0.53 0 0 0.535 0 0 0.54 0 0 0.545 0 0 0.55 0 0 0.555 0 0 0.56 0 0 0.565 0 0 0.57 0 0 0.575 0 0 0.58 0 0 0.585 0 0 0.59 0 0 0.595 0 0 0.6 0 0 0.605 0 0 0.61 0 0 0.615 0 0 0.62 0 0 0.625 0 0 0.63 0 0 0.635 0 0 0.64 0 0 0.645 0 0 0.65 0 0 0.655 0 0 0.66 0 0 0.665 0 0 0.67 0 0 0.675 0 0 0.68 0 0 0.685 0 0 0.69 0 0 0.695 0 0 0.7 0 0 0.705 0 0 0.71 0 0 0.715 0 0 0.72 0 0 0.725 0 0 0.73 0 0 0.735 0 0 0.74 0 0 0.745 0 0 0.75 0 0 0.755 0 0 0.76 0 0 0.765 0 0 0.77 0 0 0.775 0 0 0.78 0 0 0.785 0 0 0.79 0 0 0.795 0 0 0.8 0 0 0.805 0 0 0.81 0 0 0.815 0 0 0.82 0 0 0.825 0 0 0.83 0 0 0.835 0 0 0.84 0 0 0.845 0 0 0.85 0 0 0.855 0 0 0.86 0 0 0.865 0 0 0.87 0 0 0.875 0 0 0.88 0 0 0.885 0 0 0.89 0 0 0.895 0 0 0.9 0 0 0.905 0 0 0.91 0 0 0.915 0 0 0.92 0 0 0.925 0 0 0.93 0 0 0.935 0 0 0.94 0 0 0.945 0 0 0.95 0 0 0.955 0 0 0.96 0 0 0.965 0 0 0.97 0 0 0.975 0 0 0.98 0 0 0.985 0 0 0.99 0 0 0.995 0 0 1 0 0 0 0.02 0 0.005 0.02 0 0.01 0.02 0 0.015 0.02 0 0.02 0.02 0 0.025 0.02 0 0.03 0.02 0 0.035 0.02 0 0.04 0.02 0 0.045 0.02 0 0.05 0.02 0 0.055 0.02 0 0.06 0.02 0 0.065 0.02 0 0.07 0.02 0 0.075 0.02 0 0.08 0.02 0 0.085 0.02 0 0.09 0.02 0 0.095 0.02 0 0.1 0.02 0 0.105 0.02 0 0.11 0.02 0 0.115 0.02 0 0.12 0.02 0 0.125 0.02 0 0.13 0.02 0 0.135 0.02 0 0.14 0.02 0 0.145 0.02 0 0.15 0.02 0 0.155 0.02 0 0.16 0.02 0 0.165 0.02 0 0.17 0.02 0 0.175 0.02 0 0.18 0.02 0 0.185 0.02 0 0.19 0.02 0 0.195 0.02 0 0.2 0.02 0 0.205 0.02 0 0.21 0.02 0 0.215 0.02 0 0.22 0.02 0 0.225 0.02 0 0.23 0.02 0 0.235 0.02 0 0.24 0.02 0 0.245 0.02 0 0.25 0.02 0 0.255 0.02 0 0.26 0.02 0 0.265 0.02 0 0.27 0.02 0 0.275 0.02 0 0.28 0.02 0 0.285 0.02 0 0.29 0.02 0 0.295 0.02 0 0.3 0.02 0 0.305 0.02 0 0.31 0.02 0 0.315 0.02 0 0.32 0.02 0 0.325 0.02 0 0.33 0.02 0 0.335 0.02 0 0.34 0.02 0 0.345 0.02 0 0.35 0.02 0 0.355 0.02 0 0.36 0.02 0 0.365 0.02 0 0.37 0.02 0 0.375 0.02 0 0.38 0.02 0 0.385 0.02 0 0.39 0.02 0 0.395 0.02 0 0.4 0.02 0 0.405 0.02 0 0.41 0.02 0 0.415 0.02 0 0.42 0.02 0 0.425 0.02 0 0.43 0.02 0 0.435 0.02 0 0.44 0.02 0 0.445 0.02 0 0.45 0.02 0 0.455 0.02 0 0.46 0.02 0 0.465 0.02 0 0.47 0.02 0 0.475 0.02 0 0.48 0.02 0 0.485 0.02 0 0.49 0.02 0 0.495 0.02 0 0.5 0.02 0 0.505 0.02 0 0.51 0.02 0 0.515 0.02 0 0.52 0.02 0 0.525 0.02 0 0.53 0.02 0 0.535 0.02 0 0.54 0.02 0 0.545 0.02 0 0.55 0.02 0 0.555 0.02 0 0.56 0.02 0 0.565 0.02 0 0.57 0.02 0 0.575 0.02 0 0.58 0.02 0 0.585 0.02 0 0.59 0.02 0 0.595 0.02 0 0.6 0.02 0 0.605 0.02 0 0.61 0.02 0 0.615 0.02 0 0.62 0.02 0 0.625 0.02 0 0.63 0.02 0 0.635 0.02 0 0.64 0.02 0 0.645 0.02 0 0.65 0.02 0 0.655 0.02 0 0.66 0.02 0 0.665 0.02 0 0.67 0.02 0 0.675 0.02 0 0.68 0.02 0 0.685 0.02 0 0.69 0.02 0 0.695 0.02 0 0.7 0.02 0 0.705 0.02 0 0.71 0.02 0 0.715 0.02 0 0.72 0.02 0 0.725 0.02 0 0.73 0.02 0 0.735 0.02 0 0.74 0.02 0 0.745 0.02 0 0.75 0.02 0 0.755 0.02 0 0.76 0.02 0 0.765 0.02 0 0.77 0.02 0 0.775 0.02 0 0.78 0.02 0 0.785 0.02 0 0.79 0.02 0 0.795 0.02 0 0.8 0.02 0 0.805 0.02 0 0.81 0.02 0 0.815 0.02 0 0.82 0.02 0 0.825 0.02 0 0.83 0.02 0 0.835 0.02 0 0.84 0.02 0 0.845 0.02 0 0.85 0.02 0 0.855 0.02 0 0.86 0.02 0 0.865 0.02 0 0.87 0.02 0 0.875 0.02 0 0.88 0.02 0 0.885 0.02 0 0.89 0.02 0 0.895 0.02 0 0.9 0.02 0 0.905 0.02 0 0.91 0.02 0 0.915 0.02 0 0.92 0.02 0 0.925 0.02 0 0.93 0.02 0 0.935 0.02 0 0.94 0.02 0 0.945 0.02 0 0.95 0.02 0 0.955 0.02 0 0.96 0.02 0 0.965 0.02 0 0.97 0.02 0 0.975 0.02 0 0.98 0.02 0 0.985 0.02 0 0.99 0.02 0 0.995 0.02 0 1 0.02 0 0 0.04 0 0.005 0.04 0 0.01 0.04 0 0.015 0.04 0 0.02 0.04 0 0.025 0.04 0 0.03 0.04 0 0.035 0.04 0 0.04 0.04 0 0.045 0.04 0 0.05 0.04 0 0.055 0.04 0 0.06 0.04 0 0.065 0.04 0 0.07 0.04 0 0.075 0.04 0 0.08 0.04 0 0.085 0.04 0 0.09 0.04 0 0.095 0.04 0 0.1 0.04 0 0.105 0.04 0 0.11 0.04 0 0.115 0.04 0 0.12 0.04 0 0.125 0.04 0 0.13 0.04 0 0.135 0.04 0 0.14 0.04 0 0.145 0.04 0 0.15 0.04 0 0.155 0.04 0 0.16 0.04 0 0.165 0.04 0 0.17 0.04 0 0.175 0.04 0 0.18 0.04 0 0.185 0.04 0 0.19 0.04 0 0.195 0.04 0 0.2 0.04 0 0.205 0.04 0 0.21 0.04 0 0.215 0.04 0 0.22 0.04 0 0.225 0.04 0 0.23 0.04 0 0.235 0.04 0 0.24 0.04 0 0.245 0.04 0 0.25 0.04 0 0.255 0.04 0 0.26 0.04 0 0.265 0.04 0 0.27 0.04 0 0.275 0.04 0 0.28 0.04 0 0.285 0.04 0 0.29 0.04 0 0.295 0.04 0 0.3 0.04 0 0.305 0.04 0 0.31 0.04 0 0.315 0.04 0 0.32 0.04 0 0.325 0.04 0 0.33 0.04 0 0.335 0.04 0 0.34 0.04 0 0.345 0.04 0 0.35 0.04 0 0.355 0.04 0 0.36 0.04 0 0.365 0.04 0 0.37 0.04 0 0.375 0.04 0 0.38 0.04 0 0.385 0.04 0 0.39 0.04 0 0.395 0.04 0 0.4 0.04 0 0.405 0.04 0 0.41 0.04 0 0.415 0.04 0 0.42 0.04 0 0.425 0.04 0 0.43 0.04 0 0.435 0.04 0 0.44 0.04 0 0.445 0.04 0 0.45 0.04 0 0.455 0.04 0 0.46 0.04 0 0.465 0.04 0 0.47 0.04 0 0.475 0.04 0 0.48 0.04 0 0.485 0.04 0 0.49 0.04 0 0.495 0.04 0 0.5 0.04 0 0.505 0.04 0 0.51 0.04 0 0.515 0.04 0 0.52 0.04 0 0.525 0.04 0 0.53 0.04 0 0.535 0.04 0 0.54 0.04 0 0.545 0.04 0 0.55 0.04 0 0.555 0.04 0 0.56 0.04 0 0.565 0.04 0 0.57 0.04 0 0.575 0.04 0 0.58 0.04 0 0.585 0.04 0 0.59 0.04 0 0.595 0.04 0 0.6 0.04 0 0.605 0.04 0 0.61 0.04 0 0.615 0.04 0 0.62 0.04 0 0.625 0.04 0 0.63 0.04 0 0.635 0.04 0 0.64 0.04 0 0.645 0.04 0 0.65 0.04 0 0.655 0.04 0 0.66 0.04 0 0.665 0.04 0 0.67 0.04 0 0.675 0.04 0 0.68 0.04 0 0.685 0.04 0 0.69 0.04 0 0.695 0.04 0 0.7 0.04 0 0.705 0.04 0 0.71 0.04 0 0.715 0.04 0 0.72 0.04 0 0.725 0.04 0 0.73 0.04 0 0.735 0.04 0 0.74 0.04 0 0.745 0.04 0 0.75 0.04 0 0.755 0.04 0 0.76 0.04 0 0.765 0.04 0 0.77 0.04 0 0.775 0.04 0 0.78 0.04 0 0.785 0.04 0 0.79 0.04 0 0.795 0.04 0 0.8 0.04 0 0.805 0.04 0 0.81 0.04 0 0.815 0.04 0 0.82 0.04 0 0.825 0.04 0 0.83 0.04 0 0.835 0.04 0 0.84 0.04 0 0.845 0.04 0 0.85 0.04 0 0.855 0.04 0 0.86 0.04 0 0.865 0.04 0 0.87 0.04 0 0.875 0.04 0 0.88 0.04 0 0.885 0.04 0 0.89 0.04 0 0.895 0.04 0 0.9 0.04 0 0.905 0.04 0 0.91 0.04 0 0.915 0.04 0 0.92 0.04 0 0.925 0.04 0 0.93 0.04 0 0.935 0.04 0 0.94 0.04 0 0.945 0.04 0 0.95 0.04 0 0.955 0.04 0 0.96 0.04 0 0.965 0.04 0 0.97 0.04 0 0.975 0.04 0 0.98 0.04 0 0.985 0.04 0 0.99 0.04 0 0.995 0.04 0 1 0.04 0 0 0.06 0 0.005 0.06 0 0.01 0.06 0 0.015 0.06 0 0.02 0.06 0 0.025 0.06 0 0.03 0.06 0 0.035 0.06 0 0.04 0.06 0 0.045 0.06 0 0.05 0.06 0 0.055 0.06 0 0.06 0.06 0 0.065 0.06 0 0.07 0.06 0 0.075 0.06 0 0.08 0.06 0 0.085 0.06 0 0.09 0.06 0 0.095 0.06 0 0.1 0.06 0 0.105 0.06 0 0.11 0.06 0 0.115 0.06 0 0.12 0.06 0 0.125 0.06 0 0.13 0.06 0 0.135 0.06 0 0.14 0.06 0 0.145 0.06 0 0.15 0.06 0 0.155 0.06 0 0.16 0.06 0 0.165 0.06 0 0.17 0.06 0 0.175 0.06 0 0.18 0.06 0 0.185 0.06 0 0.19 0.06 0 0.195 0.06 0 0.2 0.06 0 0.205 0.06 0 0.21 0.06 0 0.215 0.06 0 0.22 0.06 0 0.225 0.06 0 0.23 0.06 0 0.235 0.06 0 0.24 0.06 0 0.245 0.06 0 0.25 0.06 0 0.255 0.06 0 0.26 0.06 0 0.265 0.06 0 0.27 0.06 0 0.275 0.06 0 0.28 0.06 0 0.285 0.06 0 0.29 0.06 0 0.295 0.06 0 0.3 0.06 0 0.305 0.06 0 0.31 0.06 0 0.315 0.06 0 0.32 0.06 0 0.325 0.06 0 0.33 0.06 0 0.335 0.06 0 0.34 0.06 0 0.345 0.06 0 0.35 0.06 0 0.355 0.06 0 0.36 0.06 0 0.365 0.06 0 0.37 0.06 0 0.375 0.06 0 0.38 0.06 0 0.385 0.06 0 0.39 0.06 0 0.395 0.06 0 0.4 0.06 0 0.405 0.06 0 0.41 0.06 0 0.415 0.06 0 0.42 0.06 0 0.425 0.06 0 0.43 0.06 0 0.435 0.06 0 0.44 0.06 0 0.445 0.06 0 0.45 0.06 0 0.455 0.06 0 0.46 0.06 0 0.465 0.06 0 0.47 0.06 0 0.475 0.06 0 0.48 0.06 0 0.485 0.06 0 0.49 0.06 0 0.495 0.06 0 0.5 0.06 0 0.505 0.06 0 0.51 0.06 0 0.515 0.06 0 0.52 0.06 0 0.525 0.06 0 0.53 0.06 0 0.535 0.06 0 0.54 0.06 0 0.545 0.06 0 0.55 0.06 0 0.555 0.06 0 0.56 0.06 0 0.565 0.06 0 0.57 0.06 0 0.575 0.06 0 0.58 0.06 0 0.585 0.06 0 0.59 0.06 0 0.595 0.06 0 0.6 0.06 0 0.605 0.06 0 0.61 0.06 0 0.615 0.06 0 0.62 0.06 0 0.625 0.06 0 0.63 0.06 0 0.635 0.06 0 0.64 0.06 0 0.645 0.06 0 0.65 0.06 0 0.655 0.06 0 0.66 0.06 0 0.665 0.06 0 0.67 0.06 0 0.675 0.06 0 0.68 0.06 0 0.685 0.06 0 0.69 0.06 0 0.695 0.06 0 0.7 0.06 0 0.705 0.06 0 0.71 0.06 0 0.715 0.06 0 0.72 0.06 0 0.725 0.06 0 0.73 0.06 0 0.735 0.06 0 0.74 0.06 0 0.745 0.06 0 0.75 0.06 0 0.755 0.06 0 0.76 0.06 0 0.765 0.06 0 0.77 0.06 0 0.775 0.06 0 0.78 0.06 0 0.785 0.06 0 0.79 0.06 0 0.795 0.06 0 0.8 0.06 0 0.805 0.06 0 0.81 0.06 0 0.815 0.06 0 0.82 0.06 0 0.825 0.06 0 0.83 0.06 0 0.835 0.06 0 0.84 0.06 0 0.845 0.06 0 0.85 0.06 0 0.855 0.06 0 0.86 0.06 0 0.865 0.06 0 0.87 0.06 0 0.875 0.06 0 0.88 0.06 0 0.885 0.06 0 0.89 0.06 0 0.895 0.06 0 0.9 0.06 0 0.905 0.06 0 0.91 0.06 0 0.915 0.06 0 0.92 0.06 0 0.925 0.06 0 0.93 0.06 0 0.935 0.06 0 0.94 0.06 0 0.945 0.06 0 0.95 0.06 0 0.955 0.06 0 0.96 0.06 0 0.965 0.06 0 0.97 0.06 0 0.975 0.06 0 0.98 0.06 0 0.985 0.06 0 0.99 0.06 0 0.995 0.06 0 1 0.06 0 0 0.08 0 0.005 0.08 0 0.01 0.08 0 0.015 0.08 0 0.02 0.08 0 0.025 0.08 0 0.03 0.08 0 0.035 0.08 0 0.04 0.08 0 0.045 0.08 0 0.05 0.08 0 0.055 0.08 0 0.06 0.08 0 0.065 0.08 0 0.07 0.08 0 0.075 0.08 0 0.08 0.08 0 0.085 0.08 0 0.09 0.08 0 0.095 0.08 0 0.1 0.08 0 0.105 0.08 0 0.11 0.08 0 0.115 0.08 0 0.12 0.08 0 0.125 0.08 0 0.13 0.08 0 0.135 0.08 0 0.14 0.08 0 0.145 0.08 0 0.15 0.08 0 0.155 0.08 0 0.16 0.08 0 0.165 0.08 0
[...]
			<PointData Scalars="VitesseX">
				<DataArray Name="VitesseX" type="Float32" format="ascii">
 0 -5.7385e-15 -2.09249e-14 -8.45862e-15 -7.77706e-15 1.77742e-14 2.96235e-14 -4.57838e-14 3.41451e-14 6.29249e-15 7.96204e-14 -1.03831e-13 4.40423e-14 4.20787e-14 -1.6452e-13 3.23928e-14 -1.47701e-13 -4.31431e-14 -4.94003e-15 -4.80453e-14 -1.62832e-13 1.00903e-13 -2.49819e-13 1.1992e-13 -1.02915e-13 -9.36546e-14 -3.05265e-13 -4.65357e-14 -1.76929e-13 -1.80936e-13 8.67963e-14 -2.80759e-13 -6.1547e-14 -2.1146e-13 -1.89655e-13 1.56144e-13 -1.71572e-13 1.69544e-13 1.27848e-12 8.14132e-12 4.76959e-11 2.61674e-10 1.36885e-09 6.78493e-09 3.18742e-08 1.41567e-07 5.92872e-07 2.33425e-06 8.61077e-06 2.96442e-05 9.48124e-05 0.000280247 0.000761058 0.00188727 0.00425018 0.00866192 0.0159653 0.0267116 0.0409036 0.0580113 0.0772433 0.0978538 0.119303 0.141255 0.163514 0.185982 0.208602 0.231328 0.254122 0.276957 0.299807 0.322651 0.345481 0.368288 0.391066 0.413807 0.436506 0.459157 0.481754 0.504291 0.526761 0.549158 0.571473 0.593698 0.615823 0.637837 0.65973 0.681488 0.703097 0.724542 0.745808 0.766879 0.787742 0.808385 0.828805 0.849005 0.86901 0.888859 0.908582 0.928016 0.938383 0.938077 0.937504 0.936787 0.935936 0.934997 0.934021 0.933054 0.932131 0.931278 0.930514 0.929851 0.929313 0.928845 0.928471 0.92814 0.927856 0.92764 0.927454 0.927287 0.927148 0.927034 0.926956 0.926962 0.927081 0.927182 0.927144 0.927148 0.927337 0.927685 0.927526 0.927207 0.926185 0.921934 0.895263 0.926587 0.927757 0.928558 0.929019 0.929051 0.929035 0.928982 0.928952 0.92884 0.928647 0.928477 0.928326 0.928198 0.928101 0.928031 0.927982 0.927947 0.927918 0.9279 0.927849 0.927787 0.92784 0.927865 0.927824 0.926465 0.92014 0.902144 0.862068 0.792144 0.69075 0.563078 0.421284 0.283221 0.167337 0.0858611 0.0386754 0.0159204 0.00624727 0.00239694 0.000910692 0.000344459 0.000129966 4.8949e-05 1.84051e-05 6.90852e-06 2.58827e-06 9.67651e-07 3.60917e-07 1.34264e-07 4.9803e-08 1.84146e-08 6.78493e-09 2.49012e-09 9.09975e-10 3.30875e-10 1.20113e-10 4.30632e-11 1.51808e-11 5.48092e-12 1.6567e-12 1.26895e-12 3.81357e-13 -6.80973e-13 3.82988e-13 -1.94673e-13 0 0 -7.37627e-15 1.40353e-15 6.62945e-15 -1.97373e-14 2.13546e-15 1.49384e-15 5.10137e-15 -3.92725e-14 4.90906e-14 -1.55383e-14 7.67151e-14 -1.55434e-14 -1.05389e-13 7.69016e-14 -6.91815e-14 -3.12657e-14 -1.11216e-13 -2.60628e-14 -8.71657e-14 3.93478e-14 -1.45586e-13 3.55366e-14 -1.89244e-13 -5.34536e-14 -1.88116e-13 6.47146e-14 -3.04713e-13 -1.20792e-13 2.74965e-14 -1.96073e-13 -9.0739e-14 -2.044e-13 -1.1861e-13 5.35909e-14 -3.15036e-13 8.21374e-14 3.10658e-14 1.32736e-12 8.21827e-12 4.74569e-11 2.62063e-10 1.36856e-09 6.78488e-09 3.18744e-08 1.41567e-07 5.92872e-07 2.33425e-06 8.61077e-06 2.96442e-05 9.48124e-05 0.000280247 0.000761058 0.00188727 0.00425018 0.00866192 0.0159653 0.0267116 0.0409036 0.0580113 0.0772433 0.0978538 0.119303 0.141255 0.163514 0.185982 0.208602 0.231328 0.254122 0.276957 0.299807 0.322651 0.345481 0.368288 0.391066 0.413807 0.436506 0.459157 0.481754 0.504291 0.526761 0.549158 0.571473 0.593698 0.615823 0.637837 0.65973 0.681488 0.703097 0.724542 0.745808 0.766879 0.787742 0.808385 0.828805 0.849005 0.86901 0.888859 0.908582 0.928016 0.938383 0.938078 0.937504 0.936787 0.935935 0.934997 0.934021 0.933054 0.932131 0.931278 0.930514 0.929851 0.929313 0.928845 0.928471 0.92814 0.927856 0.92764 0.927454 0.927287 0.927148 0.927034 0.926956 0.926962 0.927081 0.927182 0.927144 0.927148 0.927337 0.927685 0.927526 0.927207 0.926185 0.921934 0.895263 0.926587 0.927757 0.928558 0.929019 0.929051 0.929035 0.928982 0.928952 0.92884 0.928647 0.928477 0.928326 0.928198 0.928101 0.928031 0.927982 0.927947 0.927918 0.9279 0.927849 0.927787 0.92784 0.927865 0.927824 0.926465 0.92014 0.902144 0.862068 0.792144 0.69075 0.563078 0.421284 0.283221 0.167337 0.0858611 0.0386754 0.0159204 0.00624727 0.00239694 0.000910692 0.000344459 0.000129966 4.8949e-05 1.84051e-05 6.90852e-06 2.58827e-06 9.67651e-07 3.60917e-07 1.34265e-07 4.98031e-08 1.84146e-08 6.78473e-09 2.49025e-09 9.10265e-10 3.31002e-10 1.19447e-10 4.28913e-11 1.56429e-11 5.38305e-12 2.03645e-12 1.71164e-13 2.34277e-13 6.85923e-13 -1.86878e-13 2.40573e-13 0 0 -5.02462e-15 -1.2088e-14 -1.1772e-14 -2.75701e-14 -4.28844e-14 -1.60896e-14 -2.21857e-15 4.06316e-14 1.6025e-14 -4.59019e-14 4.35719e-14 4.39333e-14 7.70011e-14 -1.47619e-13 5.01727e-14 -1.53846e-15 -6.60064e-14 2.94333e-14 -2.96594e-14 -1.09506e-13 8.00409e-14 -1.7375e-13 -7.5239e-14 -1.20716e-13 -3.04221e-14 -2.18011e-13 5.72112e-14 -3.08669e-13 -1.54511e-13 -6.62714e-14 -8.26418e-14 -9.74273e-14 -8.7531e-14 -2.68998e-13 -7.97513e-14 6.50154e-15 9.59123e-14 1.18314e-12 8.17563e-12 4.77649e-11 2.6203e-10 1.36865e-09 6.78485e-09 3.18744e-08 1.41567e-07 5.92872e-07 2.33425e-06 8.61077e-06 2.96442e-05 9.48124e-05 0.000280247 0.000761058 0.00188727 0.00425018 0.00866192 0.0159653 0.0267116 0.0409036 0.0580113 0.0772433 0.0978538 0.119303 0.141255 0.163514 0.185982 0.208602 0.231328 0.254122 0.276957 0.299807 0.322651 0.345481 0.368288 0.391066 0.413807 0.436506 0.459157 0.481754 0.504291 0.526761 0.549158 0.571473 0.593698 0.615823 0.637837 0.65973 0.681488 0.703097 0.724542 0.745808 0.766879 0.787742 0.808385 0.828805 0.849005 0.86901 0.888859 0.908582 0.928016 0.938383 0.938078 0.937504 0.936787 0.935935 0.934997 0.934021 0.933054 0.932131 0.931278 0.930514 0.929851 0.929313 0.928845 0.928471 0.92814 0.927856 0.92764 0.927454 0.927287 0.927148 0.927034 0.926956 0.926962 0.927081 0.927182 0.927144 0.927148 0.927337 0.927685 0.927526 0.927207 0.926185 0.921934 0.895263 0.926587 0.927757 0.928558 0.929019 0.929051 0.929035 0.928982 0.928952 0.92884 0.928647 0.928477 0.928326 0.928198 0.928101 0.928031 0.927982 0.927947 0.927918 0.9279 0.927849 0.927787 0.92784 0.927865 0.927824 0.926465 0.92014 0.902144 0.862068 0.792144 0.69075 0.563078 0.421284 0.283221 0.167337 0.0858611 0.0386754 0.0159204 0.00624727 0.00239694 0.000910692 0.000344459 0.000129966 4.8949e-05 1.84051e-05 6.90852e-06 2.58827e-06 9.67651e-07 3.60918e-07 1.34265e-07 4.98033e-08 1.84144e-08 6.78482e-09 2.49046e-09 9.10203e-10 3.30979e-10 1.19563e-10 4.27133e-11 1.51816e-11 5.47795e-12 1.90511e-12 6.02536e-13 4.31651e-13 -1.76079e-13 2.18442e-13 5.56706e-14 0 0 -9.47698e-15 -2.17716e-14 -1.93687e-14 -3.30795e-14 -5.26136e-14 -1.97201e-14 -4.56886e-14 -3.42676e-14 4.85192e-14 6.00583e-14 4.21849e-14 -1.60516e-14 2.89989e-14 2.94222e-14 4.27773e-14 -6.4702e-14 -1.93561e-14 -1.8699e-14 5.41392e-14 -8.3732e-14 -3.92974e-14 3.09523e-14 -1.19309e-13 -7.05197e-15 -1.32749e-13 -2.9204e-13 -2.12019e-13 -1.76139e-13 -4.48446e-14 5.98295e-14 -2.25943e-13 -1.31772e-13 -1.55194e-13 -1.80969e-13 -5.98227e-14 -1.34774e-13 6.12373e-14 1.29917e-12 8.34959e-12 4.79128e-11 2.62079e-10 1.36885e-09 6.78517e-09 3.18739e-08 1.41567e-07 5.92872e-07 2.33425e-06 8.61077e-06 2.96442e-05 9.48124e-05 0.000280247 0.000761058 0.00188727 0.00425018 0.00866192 0.0159653 0.0267116 0.0409036 0.0580113 0.0772433 0.0978538 0.119303 0.141255 0.163514 0.185982 0.208602 0.231328 0.254122 0.276957 0.299807 0.322651 0.345481 0.368288 0.391066 0.413807 0.436506 0.459157 0.481754 0.504291 0.526761 0.549158 0.571473 0.593698 0.615823 0.637837 0.65973 0.681488 0.703097 0.724542 0.745808 0.766879 0.787742 0.808385 0.828805 0.849005 0.86901 0.888859 0.908582 0.928016 0.938383 0.938077 0.937504 0.936787 0.935936 0.934997 0.934021 0.933054 0.932131 0.931278 0.930514 0.929851 0.929313 0.928845 0.928471 0.92814 0.927856 0.92764 0.927454 0.927287 0.927148 0.927034 0.926956 0.926962 0.927081 0.927182 0.927144 0.927148 0.927337 0.927685 0.927526 0.927207 0.926185 0.921934 0.895263 0.926587 0.927757 0.928558 0.929019 0.929051 0.929035 0.928982 0.928952 0.92884 0.928647 0.928477 0.928326 0.928198 0.928101 0.928031 0.927982 0.927947 0.927918 0.9279 0.927849 0.927787 0.92784 0.927865 0.927824 0.926465 0.92014 0.902144 0.862068 0.792144 0.69075 0.563078 0.421284 0.283221 0.167337 0.0858611 0.0386754 0.0159204 0.00624727 0.00239694 0.000910692 0.000344459 0.000129966 4.8949e-05 1.84051e-05 6.90852e-06 2.58827e-06 9.67651e-07 3.60917e-07 1.34264e-07 4.98031e-08 1.84145e-08 6.78488e-09 2.49036e-09 9.10255e-10 3.30873e-10 1.20235e-10 4.26434e-11 1.52188e-11 5.29175e-12 1.39525e-12 4.81195e-13 9.55531e-13 -2.16038e-13 8.61383e-14 -6.1984e-13 0 0 -1.53655e-14 3.75679e-15 -1.51533e-14 -1.01445e-14 -2.41769e-14 -2.85999e-14 -2.08679e-14 -9.31213e-14 5.90455e-14 2.26976e-14 5.76719e-14 -5.9687e-14 -9.46933e-14 2.539e-13 -4.61627e-14 -1.41689e-14 -2.61522e-14 -2.88495e-14 -1.08245e-14 6.73791e-14 -2.59452e-13 1.65392e-13 -2.90371e-13 5.90822e-14 -2.09167e-13 -9.41649e-14 -5.16663e-13 -1.32721e-13 1.4497e-13 -1.87668e-13 -3.4324e-14 -1.19997e-13 -5.06171e-14 1.05741e-13 -2.67304e-13 1.80372e-13 4.16263e-14 1.17399e-12 8.32282e-12 4.76696e-11 2.62258e-10 1.36873e-09 6.78523e-09 3.18741e-08 1.41567e-07 5.92872e-07 2.33425e-06 8.61077e-06 2.96442e-05 9.48124e-05 0.000280247 0.000761058 0.00188727 0.00425018 0.00866192 0.0159653 0.0267116 0.0409036 0.0580113 0.0772433 0.0978538 0.119303 0.141255 0.163514 0.185982 0.208602 0.231328 0.254122 0.276957 0.299807 0.322651 0.345481 0.368288 0.391066 0.413807 0.436506 0.459157 0.481754 0.504291 0.526761 0.549158 0.571473 0.593698 0.615823 0.637837 0.65973 0.681488 0.703097 0.724542 0.745808 0.766879 0.787742 0.808385 0.828805 0.849005 0.86901 0.888859 0.908582 0.928016 0.938383 0.938077 0.937504 0.936787 0.935935 0.934997 0.934021 0.933054 0.932131 0.931278 0.930514 0.929851 0.929313 0.928845 0.928471 0.92814 0.927856 0.92764 0.927454 0.927287 0.927148 0.927034 0.926956 0.926962 0.927081 0.927182 0.927144 0.927148 0.927337 0.927685 0.927526 0.927207 0.926185 0.921934 0.895263 0.926587 0.927757 0.928558 0.929019 0.929051 0.929035 0.928982 0.928952 0.92884 0.928647 0.928477 0.928326 0.928198 0.928101 0.928031 0.927982 0.927947 0.927918 0.9279 0.927849 0.927787 0.92784 0.927865 0.927824 0.926465 0.92014 0.902144 0.862068 0.792144 0.69075 0.563078 0.421284 0.283221 0.167337 0.0858611 0.0386754 0.0159204 0.00624727 0.00239694 0.000910692 0.000344459 0.000129966 4.8949e-05 1.84051e-05 6.90852e-06 2.58827e-06 9.67651e-07 3.60917e-07 1.34264e-07 4.9803e-08 1.84146e-08 6.78508e-09 2.49007e-09 9.1045e-10 3.3095e-10 1.19647e-10 4.30151e-11 1.57042e-11 5.25599e-12 1.36007e-12 -1.85746e-13 1.92913e-13 6.744e-13 -2.55689e-13 -2.22382e-13 0 0 -1.28122e-14 3.14899e-15 -3.68308e-14 2.24273e-14 -1.53922e-14 -2.33029e-14 -1.07822e-14 7.62459e-14 -3.87862e-14 -5.58281e-14 -1.39144e-13 7.57251e-14 1.59475e-13 -1.64606e-13 9.32211e-14 1.28197e-14 3.36838e-14 8.57512e-14 -6.29601e-14 -1.58317e-13 1.11848e-13 -3.99514e-13 5.80579e-15 -1.05171e-13 6.8897e-14 -4.74966e-13 6.80236e-14 -4.6585e-13 -1.65322e-13 -1.48596e-13 1.18673e-13 1.75949e-13 5.98518e-14 -2.61414e-13 2.1175e-13 3.07449e-13 2.60014e-13 7.39668e-13 8.00251e-12 4.78255e-11 2.61965e-10 1.36879e-09 6.78499e-09 3.18743e-08 1.41567e-07 5.92872e-07 2.33425e-06 8.61077e-06 2.96442e-05 9.48124e-05 0.000280247 0.000761058 0.00188727 0.00425018 0.00866192 0.0159653 0.0267116 0.0409036 0.0580113 0.0772433 0.0978538 0.119303 0.141255 0.163514 0.185982 0.208602 0.231328 0.254122 0.276957 0.299807 0.322651 0.345481 0.368288 0.391066 0.413807 0.436506 0.459157 0.481754 0.504291 0.526761 0.549158 0.571473 0.593698 0.615823 0.637837 0.65973 0.681488 0.703097 0.724542 0.745808 0.766879 0.787742 0.808385 0.828805 0.849005 0.86901 0.888859 0.908582 0.928016 0.938383 0.938078 0.937504 0.936787 0.935935 0.934997 0.934021 0.933054 0.932131 0.931278 0.930514 0.929851 0.929313 0.928845 0.928471 0.92814 0.927856 0.92764 0.927454 0.927287 0.927148 0.927034 0.926956 0.926962 0.927081 0.927182 0.927144 0.927148 0.927337 0.927685 0.927525 0.927207 0.926185 0.921934 0.895263 0.926587 0.927757 0.928558 0.929019 0.929051 0.929035 0.928982 0.928952 0.92884 0.928647 0.928477 0.928326 0.928198 0.928101 0.928031 0.927982 0.927947 0.927918 0.9279 0.927849 0.927787 0.92784 0.927865 0.927824 0.926465 0.92014 0.902144 0.862068 0.792144 0.69075 0.563078 0.421284 0.283221 0.167337 0.0858611 0.0386754 0.0159204 0.00624727 0.00239694 0.000910692 0.000344459 0.000129966 4.8949e-05 1.84051e-05 6.90852e-06 2.58827e-06 9.67651e-07 3.60918e-07 1.34264e-07 4.98034e-08 1.84144e-08 6.78551e-09 2.48997e-09 9.1024e-10 3.30984e-10 1.1917e-10 4.34507e-11 1.52289e-11 5.59918e-12 1.32366e-12 7.97814e-13 -7.49132e-13 -6.24099e-13 5.09974e-13 2.30439e-13 0
				</DataArray>
				<DataArray Name="VitesseY" type="Float32" format="ascii">