<?xml version="1.0"?>
<VTKFile type="PolyData">
	<PolyData>
		<Piece NumberOfPoints="1206" NumberOfPolys="1000">
			<Points>
				<DataArray type="Float32" NumberOfComponents="3" format="ascii">
 0 0 0 0.005 0 0 0.01 0 0 0.015 0 0 0.02 0 0 0.025 0 0 0.03 0 0 0.035 0 0 0.04 0 0 0.045 0 0 0.05 0 0 0.055 0 0 0.06 0 0 0.065 0 0 0.07 0 0 0.075 0 0 0.08 0 0 0.085 0 0 0.09 0 0 0.095 0 0 0.1 0 0 0.105 0 0 0.11 0 0 0.115 0 0 0.12 0 0 0.125 0 0 0.13 0 0 0.135 0 0 0.14 0 0 0.145 0 0 0.15 0 0 0.155 0 0 0.16 0 0 0.165 0 0 0.17 0 0 0.175 0 0 0.18 0 0 0.185 0 0 0.19 0 0 0.195 0 0 0.2 0 0 0.205 0 0 0.21 0 0 0.215 0 0 0.22 0 0 0.225 0 0 0.23 0 0 0.235 0 0 0.24 0 0 0.245 0 0 0.25 0 0 0.255 0 0 0.26 0 0 0.265 0 0 0.27 0 0 0.275 0 0 0.28 0 0 0.285 0 0 0.29 0 0 0.295 0 0 0.3 0 0 0.305 0 0 0.31 0 0 0.315 0 0 0.32 0 0 0.325 0 0 0.33 0 0 0.335 0 0 0.34 0 0 0.345 0 0 0.35 0 0 0.355 0 0 0.36 0 0 0.365 0 0 0.37 0 0 0.375 0 0 0.38 0 0 0.385 0 0 0.39 0 0 0.395 0 0 0.4 0 0 0.405 0 0 0.41 0 0 0.415 0 0 0.42 0 0 0.425 0 0 0.43 0 0 0.435 0 0 0.44 0 0 0.445 0 0 0.45 0 0 0.455 0 0 0.46 0 0 0.465 0 0 0.47 0 0 0.475 0 0 0.48 0 0 0.485 0 0 0.49 0 0 0.495 0 0 0.5 0 0 0.505 0 0 0.51 0 0 0.515 0 0 0.52 0 0 0.525 0 0 0.53 0 0 0.535 0 0 0.54 0 0 0.545 0 0 0.55 0 0 0.555 0 0 0.56 0 0 0.565 0 0 0.57 0 0 0.575 0 0 0.58 0 0 0.585 0 0 0.59 0 0 0.595 0 0 0.6 0 0 0.605 0 0 0.61 0 0 0.615 0 0 0.62 0 0 0.625 0 0 0.63 0 0 0.635 0 0 0.64 0 0 0.645 0 0 0.65 0 0 0.655 0 0 0.66 0 0 0.665 0 0 0.67 0 0 0.675 0 0 0.68 0 0 0.685 0 0 0.69 0 0 0.695 0 0 0.7 0 0 0.705 0 0 0.71 0 0 0.715 0 0 0.72 0 0 0.725 0 0 0.73 0 0 0.735 0 0 0.74 0 0 0.745 0 0 0.75 0 0 0.755 0 0 0.76 0 0 0.765 0 0 0.77 0 0 0.775 0 0 0.78 0 0 0.785 0 0 0.79 0 0 0.795 0 0 0.8 0 0 0.805 0 0 0.81 0 0 0.815 0 0 0.82 0 0 0.825 0 0 0.83 0 0 0.835 0 0 0.84 0 0 0.845 0 0 0.85 0 0 0.855 0 0 0.86 0 0 0.865 0 0 0.87 0 0 0.875 0 0 0.88 0 0 0.885 0 0 0.89 0 0 0.895 0 0 0.9 0 0 0.905 0 0 0.91 0 0 0.915 0 0 0.92 0 0 0.925 0 0 0.93 0 0 0.935 0 0 0.94 0 0 0.945 0 0 0.95 0 0 0.955 0 0 0.96 0 0 0.965 0 0 0.97 0 0 0.975 0 0 0.98 0 0 0.985 0 0 0.99 0 0 0.995 0 0 1 0 0 0 0.02 0 0.005 0.02 0 0.01 0.02 0 0.015 0.02 0 0.02 0.02 0 0.025 0.02 0 0.03 0.02 0 0.035 0.02 0 0.04 0.02 0 0.045 0.02 0 0.05 0.02 0 0.055 0.02 0 0.06 0.02 0 0.065 0.02 0 0.07 0.02 0 0.075 0.02 0 0.08 0.02 0 0.085 0.02 0 0.09 0.02 0 0.095 0.02 0 0.1 0.02 0 0.105 0.02 0 0.11 0.02 0 0.115 0.02 0 0.12 0.02 0 0.125 0.02 0 0.13 0.02 0 0.135 0.02 0 0.14 0.02 0 0.145 0.02 0 0.15 0.02 0 0.155 0.02 0 0.16 0.02 0 0.165 0.02 0 0.17 0.02 0 0.175 0.02 0 0.18 0.02 0 0.185 0.02 0 0.19 0.02 0 0.195 0.02 0 0.2 0.02 0 0.205 0.02 0 0.21 0.02 0 0.215 0.02 0 0.22 0.02 0 0.225 0.02 0 0.23 0.02 0 0.235 0.02 0 0.24 0.02 0 0.245 0.02 0 0.25 0.02 0 0.255 0.02 0 0.26 0.02 0 0.265 0.02 0 0.27 0.02 0 0.275 0.02 0 0.28 0.02 0 0.285 0.02 0 0.29 0.02 0 0.295 0.02 0 0.3 0.02 0 0.305 0.02 0 0.31 0.02 0 0.315 0.02 0 0.32 0.02 0 0.325 0.02 0 0.33 0.02 0 0.335 0.02 0 0.34 0.02 0 0.345 0.02 0 0.35 0.02 0 0.355 0.02 0 0.36 0.02 0 0.365 0.02 0 0.37 0.02 0 0.375 0.02 0 0.38 0.02 0 0.385 0.02 0 0.39 0.02 0 0.395 0.02 0 0.4 0.02 0 0.405 0.02 0 0.41 0.02 0 0.415 0.02 0 0.42 0.02 0 0.425 0.02 0 0.43 0.02 0 0.435 0.02 0 0.44 0.02 0 0.445 0.02 0 0.45 0.02 0 0.455 0.02 0 0.46 0.02 0 0.465 0.02 0 0.47 0.02 0 0.475 0.02 0 0.48 0.02 0 0.485 0.02 0 0.49 0.02 0 0.495 0.02 0 0.5 0.02 0 0.505 0.02 0 0.51 0.02 0 0.515 0.02 0 0.52 0.02 0 0.525 0.02 0 0.53 0.02 0 0.535 0.02 0 0.54 0.02 0 0.545 0.02 0 0.55 0.02 0 0.555 0.02 0 0.56 0.02 0 0.565 0.02 0 0.57 0.02 0 0.575 0.02 0 0.58 0.02 0 0.585 0.02 0 0.59 0.02 0 0.595 0.02 0 0.6 0.02 0 0.605 0.02 0 0.61 0.02 0 0.615 0.02 0 0.62 0.02 0 0.625 0.02 0 0.63 0.02 0 0.635 0.02 0 0.64 0.02 0 0.645 0.02 0 0.65 0.02 0 0.655 0.02 0 0.66 0.02 0 0.665 0.02 0 0.67 0.02 0 0.675 0.02 0 0.68 0.02 0 0.685 0.02 0 0.69 0.02 0 0.695 0.02 0 0.7 0.02 0 0.705 0.02 0 0.71 0.02 0 0.715 0.02 0 0.72 0.02 0 0.725 0.02 0 0.73 0.02 0 0.735 0.02 0 0.74 0.02 0 0.745 0.02 0 0.75 0.02 0 0.755 0.02 0 0.76 0.02 0 0.765 0.02 0 0.77 0.02 0 0.775 0.02 0 0.78 0.02 0 0.785 0.02 0 0.79 0.02 0 0.795 0.02 0 0.8 0.02 0 0.805 0.02 0 0.81 0.02 0 0.815 0.02 0 0.82 0.02 0 0.825 0.02 0 0.83 0.02 0 0.835 0.02 0 0.84 0.02 0 0.845 0.02 0 0.85 0.02 0 0.855 0.02 0 0.86 0.02 0 0.865 0.02 0 0.87 0.02 0 0.875 0.02 0 0.88 0.02 0 0.885 0.02 0 0.89 0.02 0 0.895 0.02 0 0.9 0.02 0 0.905 0.02 0 0.91 0.02 0 0.915 0.02 0 0.92 0.02 0 0.925 0.02 0 0.93 0.02 0 0.935 0.02 0 0.94 0.02 0 0.945 0.02 0 0.95 0.02 0 0.955 0.02 0 0.96 0.02 0 0.965 0.02 0 0.97 0.02 0 0.975 0.02 0 0.98 0.02 0 0.985 0.02 0 0.99 0.02 0 0.995 0.02 0 1 0.02 0 0 0.04 0 0.005 0.04 0 0.01 0.04 0 0.015 0.04 0 0.02 0.04 0 0.025 0.04 0 0.03 0.04 0 0.035 0.04 0 0.04 0.04 0 0.045 0.04 0 0.05 0.04 0 0.055 0.04 0 0.06 0.04 0 0.065 0.04 0 0.07 0.04 0 0.075 0.04 0 0.08 0.04 0 0.085 0.04 0 0.09 0.04 0 0.095 0.04 0 0.1 0.04 0 0.105 0.04 0 0.11 0.04 0 0.115 0.04 0 0.12 0.04 0 0.125 0.04 0 0.13 0.04 0 0.135 0.04 0 0.14 0.04 0 0.145 0.04 0 0.15 0.04 0 0.155 0.04 0 0.16 0.04 0 0.165 0.04 0 0.17 0.04 0 0.175 0.04 0 0.18 0.04 0 0.185 0.04 0 0.19 0.04 0 0.195 0.04 0 0.2 0.04 0 0.205 0.04 0 0.21 0.04 0 0.215 0.04 0 0.22 0.04 0 0.225 0.04 0 0.23 0.04 0 0.235 0.04 0 0.24 0.04 0 0.245 0.04 0 0.25 0.04 0 0.255 0.04 0 0.26 0.04 0 0.265 0.04 0 0.27 0.04 0 0.275 0.04 0 0.28 0.04 0 0.285 0.04 0 0.29 0.04 0 0.295 0.04 0 0.3 0.04 0 0.305 0.04 0 0.31 0.04 0 0.315 0.04 0 0.32 0.04 0 0.325 0.04 0 0.33 0.04 0 0.335 0.04 0 0.34 0.04 0 0.345 0.04 0 0.35 0.04 0 0.355 0.04 0 0.36 0.04 0 0.365 0.04 0 0.37 0.04 0 0.375 0.04 0 0.38 0.04 0 0.385 0.04 0 0.39 0.04 0 0.395 0.04 0 0.4 0.04 0 0.405 0.04 0 0.41 0.04 0 0.415 0.04 0 0.42 0.04 0 0.425 0.04 0 0.43 0.04 0 0.435 0.04 0 0.44 0.04 0 0.445 0.04 0 0.45 0.04 0 0.455 0.04 0 0.46 0.04 0 0.465 0.04 0 0.47 0.04 0 0.475 0.04 0 0.48 0.04 0 0.485 0.04 0 0.49 0.04 0 0.495 0.04 0 0.5 0.04 0 0.505 0.04 0 0.51 0.04 0 0.515 0.04 0 0.52 0.04 0 0.525 0.04 0 0.53 0.04 0 0.535 0.04 0 0.54 0.04 0 0.545 0.04 0 0.55 0.04 0 0.555 0.04 0 0.56 0.04 0 0.565 0.04 0 0.57 0.04 0 0.575 0.04 0 0.58 0.04 0 0.585 0.04 0 0.59 0.04 0 0.595 0.04 0 0.6 0.04 0 0.605 0.04 0 0.61 0.04 0 0.615 0.04 0 0.62 0.04 0 0.625 0.04 0 0.63 0.04 0 0.635 0.04 0 0.64 0.04 0 0.645 0.04 0 0.65 0.04 0 0.655 0.04 0 0.66 0.04 0 0.665 0.04 0 0.67 0.04 0 0.675 0.04 0 0.68 0.04 0 0.685 0.04 0 0.69 0.04 0 0.695 0.04 0 0.7 0.04 0 0.705 0.04 0 0.71 0.04 0 0.715 0.04 0 0.72 0.04 0 0.725 0.04 0 0.73 0.04 0 0.735 0.04 0 0.74 0.04 0 0.745 0.04 0 0.75 0.04 0 0.755 0.04 0 0.76 0.04 0 0.765 0.04 0 0.77 0.04 0 0.775 0.04 0 0.78 0.04 0 0.785 0.04 0 0.79 0.04 0 0.795 0.04 0 0.8 0.04 0 0.805 0.04 0 0.81 0.04 0 0.815 0.04 0 0.82 0.04 0 0.825 0.04 0 0.83 0.04 0 0.835 0.04 0 0.84 0.04 0 0.845 0.04 0 0.85 0.04 0 0.855 0.04 0 0.86 0.04 0 0.865 0.04 0 0.87 0.04 0 0.875 0.04 0 0.88 0.04 0 0.885 0.04 0 0.89 0.04 0 0.895 0.04 0 0.9 0.04 0 0.905 0.04 0 0.91 0.04 0 0.915 0.04 0 0.92 0.04 0 0.925 0.04 0 0.93 0.04 0 0.935 0.04 0 0.94 0.04 0 0.945 0.04 0 0.95 0.04 0 0.955 0.04 0 0.96 0.04 0 0.965 0.04 0 0.97 0.04 0 0.975 0.04 0 0.98 0.04 0 0.985 0.04 0 0.99 0.04 0 0.995 0.04 0 1 0.04 0 0 0.06 0 0.005 0.06 0 0.01 0.06 0 0.015 0.06 0 0.02 0.06 0 0.025 0.06 0 0.03 0.06 0 0.035 0.06 0 0.04 0.06 0 0.045 0.06 0 0.05 0.06 0 0.055 0.06 0 0.06 0.06 0 0.065 0.06 0 0.07 0.06 0 0.075 0.06 0 0.08 0.06 0 0.085 0.06 0 0.09 0.06 0 0.095 0.06 0 0.1 0.06 0 0.105 0.06 0 0.11 0.06 0 0.115 0.06 0 0.12 0.06 0 0.125 0.06 0 0.13 0.06 0 0.135 0.06 0 0.14 0.06 0 0.145 0.06 0 0.15 0.06 0 0.155 0.06 0 0.16 0.06 0 0.165 0.06 0 0.17 0.06 0 0.175 0.06 0 0.18 0.06 0 0.185 0.06 0 0.19 0.06 0 0.195 0.06 0 0.2 0.06 0 0.205 0.06 0 0.21 0.06 0 0.215 0.06 0 0.22 0.06 0 0.225 0.06 0 0.23 0.06 0 0.235 0.06 0 0.24 0.06 0 0.245 0.06 0 0.25 0.06 0 0.255 0.06 0 0.26 0.06 0 0.265 0.06 0 0.27 0.06 0 0.275 0.06 0 0.28 0.06 0 0.285 0.06 0 0.29 0.06 0 0.295 0.06 0 0.3 0.06 0 0.305 0.06 0 0.31 0.06 0 0.315 0.06 0 0.32 0.06 0 0.325 0.06 0 0.33 0.06 0 0.335 0.06 0 0.34 0.06 0 0.345 0.06 0 0.35 0.06 0 0.355 0.06 0 0.36 0.06 0 0.365 0.06 0 0.37 0.06 0 0.375 0.06 0 0.38 0.06 0 0.385 0.06 0 0.39 0.06 0 0.395 0.06 0 0.4 0.06 0 0.405 0.06 0 0.41 0.06 0 0.415 0.06 0 0.42 0.06 0 0.425 0.06 0 0.43 0.06 0 0.435 0.06 0 0.44 0.06 0 0.445 0.06 0 0.45 0.06 0 0.455 0.06 0 0.46 0.06 0 0.465 0.06 0 0.47 0.06 0 0.475 0.06 0 0.48 0.06 0 0.485 0.06 0 0.49 0.06 0 0.495 0.06 0 0.5 0.06 0 0.505 0.06 0 0.51 0.06 0 0.515 0.06 0 0.52 0.06 0 0.525 0.06 0 0.53 0.06 0 0.535 0.06 0 0.54 0.06 0 0.545 0.06 0 0.55 0.06 0 0.555 0.06 0 0.56 0.06 0 0.565 0.06 0 0.57 0.06 0 0.575 0.06 0 0.58 0.06 0 0.585 0.06 0 0.59 0.06 0 0.595 0.06 0 0.6 0.06 0 0.605 0.06 0 0.61 0.06 0 0.615 0.06 0 0.62 0.06 0 0.625 0.06 0 0.63 0.06 0 0.635 0.06 0 0.64 0.06 0 0.645 0.06 0 0.65 0.06 0 0.655 0.06 0 0.66 0.06 0 0.665 0.06 0 0.67 0.06 0 0.675 0.06 0 0.68 0.06 0 0.685 0.06 0 0.69 0.06 0 0.695 0.06 0 0.7 0.06 0 0.705 0.06 0 0.71 0.06 0 0.715 0.06 0 0.72 0.06 0 0.725 0.06 0 0.73 0.06 0 0.735 0.06 0 0.74 0.06 0 0.745 0.06 0 0.75 0.06 0 0.755 0.06 0 0.76 0.06 0 0.765 0.06 0 0.77 0.06 0 0.775 0.06 0 0.78 0.06 0 0.785 0.06 0 0.79 0.06 0 0.795 0.06 0 0.8 0.06 0 0.805 0.06 0 0.81 0.06 0 0.815 0.06 0 0.82 0.06 0 0.825 0.06 0 0.83 0.06 0 0.835 0.06 0 0.84 0.06 0 0.845 0.06 0 0.85 0.06 0 0.855 0.06 0 0.86 0.06 0 0.865 0.06 0 0.87 0.06 0 0.875 0.06 0 0.88 0.06 0 0.885 0.06 0 0.89 0.06 0 0.895 0.06 0 0.9 0.06 0 0.905 0.06 0 0.91 0.06 0 0.915 0.06 0 0.92 0.06 0 0.925 0.06 0 0.93 0.06 0 0.935 0.06 0 0.94 0.06 0 0.945 0.06 0 0.95 0.06 0 0.955 0.06 0 0.96 0.06 0 0.965 0.06 0 0.97 0.06 0 0.975 0.06 0 0.98 0.06 0 0.985 0.06 0 0.99 0.06 0 0.995 0.06 0 1 0.06 0 0 0.08 0 0.005 0.08 0 0.01 0.08 0 0.015 0.08 0 0.02 0.08 0 0.025 0.08 0 0.03 0.08 0 0.035 0.08 0 0.04 0.08 0 0.045 0.08 0 0.05 0.08 0 0.055 0.08 0 0.06 0.08 0 0.065 0.08 0 0.07 0.08 0 0.075 0.08 0 0.08 0.08 0 0.085 0.08 0 0.09 0.08 0 0.095 0.08 0 0.1 0.08 0 0.105 0.08 0 0.11 0.08 0 0.115 0.08 0 0.12 0.08 0 0.125 0.08 0 0.13 0.08 0 0.135 0.08 0 0.14 0.08 0 0.145 0.08 0 0.15 0.08 0 0.155 0.08 0 0.16 0.08 0 0.165 0.08 0
[...]
			<PointData Scalars="VitesseX">
				<DataArray Name="VitesseX" type="Float32" format="ascii">
 0 2.14534e-14 2.38469e-14 3.36713e-14 -4.91702e-15 -4.58084e-14 3.83099e-14 -3.00669e-14 1.57871e-14 -2.34841e-14 -1.48046e-14 -4.57838e-14 2.11974e-14 6.23304e-14 -1.00128e-13 2.90787e-14 -1.44613e-13 -9.13221e-14 -1.11656e-14 -1.04615e-13 -8.14449e-14 -1.22641e-13 -1.59161e-13 -2.77926e-13 7.87636e-14 -3.98179e-14 -1.846e-13 -2.01421e-14 -2.55657e-13 -1.05132e-13 1.01955e-14 -9.08347e-14 8.54928e-14 -2.49438e-13 -1.8995e-13 -2.6459e-13 -5.323e-14 -9.96721e-14 -3.40379e-14 1.59974e-14 -2.69755e-13 5.64073e-14 1.29982e-13 5.96385e-14 -1.50115e-13 1.27816e-13 3.50123e-13 5.20532e-12 3.49043e-11 2.14003e-10 1.24574e-09 6.83654e-09 3.53406e-08 1.71564e-07 7.79639e-07 3.30451e-06 1.30092e-05 4.73375e-05 0.000158306 0.000483364 0.00133779 0.00333217 0.00742871 0.0147928 0.026373 0.0424378 0.0624448 0.0853628 0.110151 0.136047 0.162578 0.189483 0.21664 0.243961 0.271374 0.298824 0.326265 0.35368 0.381052 0.408367 0.435612 0.462775 0.489844 0.516806 0.543647 0.570352 0.596904 0.623285 0.649471 0.67544 0.701166 0.726617 0.751766 0.77658 0.801036 0.825115 0.848819 0.87217 0.89523 0.918218 0.938911 0.939147 0.938658 0.937657 0.936487 0.935245 0.934006 0.932831 0.931786 0.930848 0.930014 0.929306 0.928773 0.928396 0.928124 0.927911 0.927735 0.927674 0.927566 0.92754 0.927524 0.927425 0.927343 0.927042 0.927659 0.928031 0.928295 0.93033 0.889191 0.925093 0.927355 0.928777 0.928657 0.92834 0.928116 0.928043 0.928092 0.928187 0.928186 0.928157 0.928097 0.928032 0.927969 0.927914 0.927839 0.927894 0.928453 0.928731 0.928258 0.924026 0.910186 0.877202 0.815386 0.721816 0.599672 0.459408 0.318061 0.194344 0.103205 0.0477849 0.0199545 0.00786642 0.00301447 0.00114043 0.000428757 0.000160586 5.99628e-05 2.2324e-05 8.28487e-06 3.06398e-06 1.12878e-06 4.14076e-07 1.51187e-07 5.49192e-08 1.98396e-08 7.12418e-09 2.54185e-09 9.00693e-10 3.16262e-10 1.10208e-10 3.76385e-11 1.26535e-11 3.8938e-12 1.07377e-12 1.9179e-13 6.59017e-13 -3.84584e-13 4.20782e-13 -7.39922e-13 1.11756e-12 -4.88628e-13 -4.82741e-13 6.75634e-13 -1.96285e-13 8.14939e-13 -7.57409e-15 1.85458e-13 1.07785e-13 4.63935e-13 2.04435e-13 0 0 2.12323e-14 1.23869e-14 3.67799e-15 9.88649e-15 6.75836e-14 -2.13547e-14 -1.46551e-14 -4.64334e-14 2.26227e-14 -4.65855e-14 2.06368e-14 4.33973e-15 -1.52014e-13 3.43002e-14 -2.01574e-14 1.13672e-14 -1.07289e-13 -9.50443e-14 -7.97634e-14 -1.55915e-13 -8.35311e-14 -9.99521e-14 1.48594e-14 -2.14014e-13 -1.08435e-14 -5.44914e-14 -2.79513e-13 9.5843e-15 5.03213e-14 -6.64616e-14 -6.88965e-14 -1.86022e-13 -1.8327e-13 -1.80085e-13 -2.33433e-13 -6.19003e-14 -3.20217e-14 -4.5954e-14 -1.84774e-13 6.03895e-14 -1.83551e-13 -1.0675e-13 8.91587e-15 1.38606e-13 -5.07978e-14 6.06939e-13 5.00783e-12 3.44147e-11 2.14313e-10 1.24559e-09 6.83651e-09 3.53413e-08 1.71564e-07 7.79639e-07 3.30451e-06 1.30092e-05 4.73375e-05 0.000158306 0.000483364 0.00133779 0.00333217 0.00742871 0.0147928 0.026373 0.0424378 0.0624448 0.0853628 0.110151 0.136047 0.162578 0.189483 0.21664 0.243961 0.271374 0.298824 0.326265 0.35368 0.381052 0.408367 0.435612 0.462775 0.489844 0.516806 0.543647 0.570352 0.596904 0.623285 0.649471 0.67544 0.701166 0.726617 0.751766 0.77658 0.801036 0.825115 0.848819 0.87217 0.89523 0.918218 0.938911 0.939147 0.938658 0.937657 0.936487 0.935245 0.934006 0.932831 0.931786 0.930848 0.930014 0.929306 0.928773 0.928396 0.928124 0.927911 0.927735 0.927674 0.927566 0.92754 0.927524 0.927425 0.927343 0.927042 0.927659 0.928031 0.928295 0.93033 0.889191 0.925093 0.927355 0.928777 0.928657 0.92834 0.928116 0.928043 0.928092 0.928187 0.928186 0.928157 0.928097 0.928032 0.927969 0.927914 0.927839 0.927894 0.928453 0.928731 0.928258 0.924026 0.910186 0.877202 0.815386 0.721816 0.599672 0.459408 0.318061 0.194344 0.103205 0.0477849 0.0199545 0.00786642 0.00301447 0.00114043 0.000428757 0.000160586 5.99628e-05 2.2324e-05 8.28487e-06 3.06398e-06 1.12878e-06 4.14077e-07 1.51187e-07 5.49201e-08 1.98393e-08 7.12393e-09 2.54178e-09 9.00322e-10 3.16858e-10 1.1013e-10 3.78732e-11 1.27809e-11 4.11504e-12 1.26574e-12 -3.66287e-14 2.04497e-14 3.25499e-13 -3.37067e-13 2.03102e-13 -3.75495e-13 4.11743e-13 1.5169e-13 2.38349e-13 6.6018e-13 -1.80793e-13 4.35569e-14 2.29777e-14 3.06115e-13 -2.72391e-14 2.87964e-13 0 0 -2.89238e-15 -1.14607e-14 2.22533e-14 -7.07082e-15 8.13379e-15 5.45188e-14 -1.82482e-14 2.67629e-14 3.89406e-15 -2.35146e-14 -5.3888e-14 -2.36174e-14 5.43307e-14 -9.04573e-14 2.59229e-14 -3.4438e-14 -1.80087e-14 -6.99835e-15 -1.03311e-13 -1.49832e-13 8.56156e-14 -1.53765e-13 -2.09177e-13 7.72024e-14 -8.22184e-14 -1.81985e-13 4.9263e-14 -1.90438e-13 -1.26684e-13 5.17042e-14 -1.01097e-13 -1.5097e-13 -1.72297e-13 -3.24633e-13 -1.00358e-13 -1.05108e-13 -8.71497e-14 -6.4799e-14 6.43997e-14 -3.27274e-13 -3.46088e-14 -1.61592e-13 8.72528e-14 2.0888e-15 -1.33726e-13 5.00533e-13 5.07413e-12 3.48942e-11 2.14394e-10 1.24536e-09 6.83656e-09 3.53412e-08 1.71564e-07 7.79639e-07 3.30451e-06 1.30092e-05 4.73375e-05 0.000158306 0.000483364 0.00133779 0.00333217 0.00742871 0.0147928 0.026373 0.0424378 0.0624448 0.0853628 0.110151 0.136047 0.162578 0.189483 0.21664 0.243961 0.271374 0.298824 0.326265 0.35368 0.381052 0.408367 0.435612 0.462775 0.489844 0.516806 0.543647 0.570352 0.596904 0.623285 0.649471 0.67544 0.701166 0.726617 0.751766 0.77658 0.801036 0.825115 0.848819 0.87217 0.89523 0.918218 0.938911 0.939147 0.938658 0.937657 0.936487 0.935245 0.934006 0.932831 0.931786 0.930848 0.930014 0.929306 0.928773 0.928396 0.928124 0.927911 0.927735 0.927674 0.927566 0.92754 0.927524 0.927425 0.927343 0.927042 0.927659 0.928031 0.928295 0.93033 0.889191 0.925094 0.927355 0.928777 0.928657 0.92834 0.928116 0.928043 0.928092 0.928187 0.928186 0.928157 0.928097 0.928032 0.927969 0.927914 0.927839 0.927894 0.928453 0.928731 0.928258 0.924026 0.910186 0.877202 0.815386 0.721816 0.599672 0.459408 0.318061 0.194344 0.103205 0.0477849 0.0199545 0.00786642 0.00301447 0.00114043 0.000428757 0.000160586 5.99628e-05 2.2324e-05 8.28487e-06 3.06398e-06 1.12878e-06 4.14077e-07 1.51187e-07 5.49196e-08 1.98395e-08 7.1242e-09 2.5417e-09 9.00653e-10 3.16541e-10 1.10811e-10 3.81584e-11 1.26974e-11 4.06567e-12 1.40717e-12 3.29815e-13 -8.11076e-14 -2.15124e-13 9.6079e-14 -1.66233e-14 -2.54803e-13 1.09594e-13 2.5689e-13 3.11102e-13 -2.08274e-13 6.21251e-13 2.61406e-13 -5.74108e-13 9.55973e-14 7.4307e-13 2.53212e-13 0 0 -9.65775e-15 -1.85683e-14 2.07764e-14 -2.0331e-14 -3.79347e-14 2.4138e-14 -4.03978e-14 -1.8227e-14 -1.70146e-14 1.44313e-14 3.22799e-14 3.92702e-14 3.28866e-14 -1.32347e-14 1.60212e-14 -8.24775e-15 -6.86303e-14 -3.63937e-14 4.1164e-14 -1.62324e-14 -4.20005e-14 -3.2609e-14 -1.63785e-13 -4.90052e-14 -6.51112e-14 -1.59563e-13 -1.77104e-13 -1.92593e-13 -6.26107e-14 2.66471e-14 -1.94049e-13 -5.07601e-14 -3.06435e-13 -6.79438e-14 -2.65283e-13 -6.32891e-14 -1.08491e-13 2.14562e-14 -1.16261e-13 -1.88637e-13 -1.3839e-13 3.46502e-14 -9.907e-14 -2.46653e-13 1.63656e-13 7.758e-13 5.44983e-12 3.51254e-11 2.14341e-10 1.2453e-09 6.83649e-09 3.53411e-08 1.71565e-07 7.79639e-07 3.30451e-06 1.30092e-05 4.73375e-05 0.000158306 0.000483364 0.00133779 0.00333217 0.00742871 0.0147928 0.026373 0.0424378 0.0624448 0.0853628 0.110151 0.136047 0.162578 0.189483 0.21664 0.243961 0.271374 0.298824 0.326265 0.35368 0.381052 0.408367 0.435612 0.462775 0.489844 0.516806 0.543647 0.570352 0.596904 0.623284 0.649471 0.67544 0.701166 0.726617 0.751766 0.77658 0.801036 0.825115 0.848819 0.87217 0.89523 0.918218 0.938911 0.939147 0.938658 0.937657 0.936487 0.935245 0.934006 0.932831 0.931786 0.930848 0.930014 0.929306 0.928773 0.928396 0.928124 0.927911 0.927735 0.927674 0.927566 0.92754 0.927524 0.927425 0.927343 0.927042 0.927659 0.928031 0.928295 0.93033 0.889191 0.925093 0.927355 0.928777 0.928657 0.92834 0.928116 0.928043 0.928092 0.928187 0.928186 0.928157 0.928097 0.928032 0.927969 0.927914 0.927839 0.927894 0.928453 0.928731 0.928258 0.924026 0.910186 0.877202 0.815386 0.721816 0.599672 0.459408 0.318061 0.194344 0.103205 0.0477849 0.0199545 0.00786642 0.00301447 0.00114043 0.000428757 0.000160586 5.99628e-05 2.2324e-05 8.28487e-06 3.06398e-06 1.12878e-06 4.14077e-07 1.51188e-07 5.49195e-08 1.984e-08 7.12427e-09 2.54179e-09 9.0083e-10 3.16902e-10 1.10619e-10 3.80601e-11 1.27752e-11 4.13474e-12 9.56498e-13 2.44022e-13 3.00045e-13 2.48077e-13 4.15116e-14 -1.98787e-13 -2.67821e-13 -6.79639e-13 2.24057e-13 1.38552e-14 3.0347e-13 2.5556e-13 3.09708e-13 -2.42358e-13 8.27584e-14 3.30818e-14 -3.5281e-13 0 0 -4.56226e-15 -4.18724e-15 -2.90093e-14 -1.65915e-15 -3.5017e-15 -5.31117e-14 -2.93365e-14 -6.99795e-14 2.10927e-14 -3.30066e-14 5.64333e-14 3.26319e-14 -1.11742e-13 8.44811e-14 -5.87978e-16 1.45251e-13 -6.53031e-14 -4.15864e-14 3.07091e-14 -2.32584e-14 -1.68869e-13 -2.39288e-14 6.42117e-14 -2.73929e-13 -1.55972e-14 -6.78001e-14 -4.65054e-13 -1.31736e-13 1.10336e-13 -1.82931e-13 -1.01584e-13 -1.02019e-13 -1.6544e-13 -1.67741e-14 -2.74986e-13 9.05836e-14 7.60306e-14 -4.73211e-14 -3.41405e-13 1.18045e-13 -2.86491e-13 -6.94777e-14 -1.7682e-13 -8.08574e-14 2.1749e-13 8.5604e-13 5.34189e-12 3.48113e-11 2.14572e-10 1.24543e-09 6.83634e-09 3.53416e-08 1.71564e-07 7.79639e-07 3.30451e-06 1.30092e-05 4.73375e-05 0.000158306 0.000483364 0.00133779 0.00333217 0.00742871 0.0147928 0.026373 0.0424378 0.0624448 0.0853628 0.110151 0.136047 0.162578 0.189483 0.21664 0.243961 0.271374 0.298824 0.326265 0.35368 0.381052 0.408367 0.435612 0.462775 0.489844 0.516806 0.543647 0.570352 0.596904 0.623284 0.649471 0.67544 0.701166 0.726617 0.751766 0.77658 0.801036 0.825115 0.848819 0.87217 0.89523 0.918218 0.938911 0.939147 0.938658 0.937657 0.936487 0.935245 0.934006 0.932831 0.931786 0.930848 0.930014 0.929306 0.928773 0.928396 0.928124 0.927911 0.927735 0.927674 0.927566 0.92754 0.927524 0.927425 0.927343 0.927042 0.927659 0.928031 0.928295 0.93033 0.889191 0.925093 0.927355 0.928777 0.928657 0.92834 0.928116 0.928043 0.928092 0.928187 0.928186 0.928157 0.928097 0.928032 0.927969 0.927914 0.927839 0.927894 0.928453 0.928731 0.928258 0.924026 0.910186 0.877202 0.815386 0.721816 0.599672 0.459408 0.318061 0.194344 0.103205 0.0477849 0.0199545 0.00786642 0.00301447 0.00114043 0.000428757 0.000160586 5.99628e-05 2.2324e-05 8.28487e-06 3.06398e-06 1.12878e-06 4.14077e-07 1.51187e-07 5.49203e-08 1.98395e-08 7.1241e-09 2.54226e-09 9.00417e-10 3.17238e-10 1.10063e-10 3.81804e-11 1.29152e-11 3.96378e-12 1.2814e-12 -2.14845e-13 -2.98345e-14 7.49883e-13 -4.48904e-13 2.54536e-13 -1.00426e-12 -2.3894e-13 -3.52302e-14 -4.60527e-13 9.45976e-13 -1.25923e-13 1.76544e-13 5.07817e-13 2.30139e-13 -7.87328e-13 -2.92962e-13 0 0 -1.66049e-14 4.91386e-15 -2.87495e-14 -1.48803e-15 -9.5842e-14 3.55574e-14 -1.51305e-14 5.86749e-14 1.52732e-14 -6.35388e-14 -1.46527e-13 -4.79934e-14 1.85762e-13 -1.54211e-13 8.8021e-14 7.07751e-14 9.38925e-14 1.54541e-13 -1.7262e-13 -8.33297e-14 -3.80853e-14 -2.49425e-13 -2.70004e-13 2.11348e-13 -8.35396e-14 -2.56061e-13 6.151e-14 -5.33988e-13 -1.13248e-13 -1.72629e-13 2.96934e-14 5.30803e-14 5.4498e-14 -3.76706e-13 -1.78461e-14 1.68101e-13 1.59116e-13 -2.09282e-13 6.40572e-14 -4.31717e-13 5.80901e-14 -1.87957e-13 6.08126e-14 -9.15569e-14 6.96262e-14 2.97793e-13 5.12204e-12 3.52349e-11 2.14626e-10 1.24555e-09 6.83635e-09 3.53413e-08 1.71564e-07 7.7964e-07 3.30451e-06 1.30092e-05 4.73375e-05 0.000158306 0.000483364 0.00133779 0.00333217 0.00742871 0.0147928 0.026373 0.0424378 0.0624448 0.0853628 0.110151 0.136047 0.162578 0.189483 0.21664 0.243961 0.271374 0.298824 0.326265 0.35368 0.381052 0.408367 0.435612 0.462775 0.489844 0.516806 0.543647 0.570352 0.596904 0.623284 0.649471 0.67544 0.701166 0.726617 0.751766 0.77658 0.801036 0.825115 0.848819 0.87217 0.89523 0.918218 0.938911 0.939147 0.938658 0.937657 0.936487 0.935245 0.934006 0.932831 0.931786 0.930848 0.930014 0.929306 0.928773 0.928396 0.928124 0.927911 0.927735 0.927674 0.927566 0.92754 0.927524 0.927425 0.927343 0.927042 0.927659 0.928031 0.928295 0.93033 0.889191 0.925094 0.927355 0.928777 0.928657 0.92834 0.928116 0.928043 0.928092 0.928187 0.928186 0.928157 0.928097 0.928032 0.927969 0.927914 0.927839 0.927894 0.928453 0.928731 0.928258 0.924026 0.910186 0.877202 0.815386 0.721816 0.599672 0.459408 0.318061 0.194344 0.103205 0.0477849 0.0199545 0.00786642 0.00301447 0.00114043 0.000428757 0.000160586 5.99628e-05 2.2324e-05 8.28487e-06 3.06398e-06 1.12878e-06 4.14077e-07 1.51187e-07 5.49197e-08 1.98391e-08 7.12436e-09 2.54263e-09 9.00529e-10 3.16299e-10 1.10458e-10 3.84494e-11 1.27666e-11 3.45313e-12 2.00645e-12 6.94369e-15 -2.03856e-13 -4.62218e-13 3.06243e-13 -2.72725e-13 -1.13936e-13 -2.11529e-13 -7.90915e-13 -1.27622e-13 -6.48182e-13 1.65606e-12 1.61796e-13 4.91638e-13 -1.8488e-14 3.63734e-13 2.54625e-13 0
				</DataArray>
				<DataArray Name="VitesseY" type="Float32" format="ascii">