<?xml version="1.0"?>
<VTKFile type="PolyData">
	<PolyData>
		<Piece NumberOfPoints="1206" NumberOfPolys="1000">
			<Points>
				<DataArray type="Float32" NumberOfComponents="3" format="ascii">
 0 0 0 0.005 0 0 0.01 0 0 0.015 0 0 0.02 0 0 0.025 0 0 0.03 0 0 0.035 0 0 0.04 0 0 0.045 0 0 0.05 0 0 0.055 0 0 0.06 0 0 0.065 0 0 0.07 0 0 0.075 0 0 0.08 0 0 0.085 0 0 0.09 0 0 0.095 0 0 0.1 0 0 0.105 0 0 0.11 0 0 0.115 0 0 0.12 0 0 0.125 0 0 0.13 0 0 0.135 0 0 0.14 0 0 0.145 0 0 0.15 0 0 0.155 0 0 0.16 0 0 0.165 0 0 0.17 0 0 0.175 0 0 0.18 0 0 0.185 0 0 0.19 0 0 0.195 0 0 0.2 0 0 0.205 0 0 0.21 0 0 0.215 0 0 0.22 0 0 0.225 0 0 0.23 0 0 0.235 0 0 0.24 0 0 0.245 0 0 0.25 0 0 0.255 0 0 0.26 0 0 0.265 0 0 0.27 0 0 0.275 0 0 0.28 0 0 0.285 0 0 0.29 0 0 0.295 0 0 0.3 0 0 0.305 0 0 0.31 0 0 0.315 0 0 0.32 0 0 0.325 0 0 0.33 0 0 0.335 0 0 0.34 0 0 0.345 0 0 0.35 0 0 0.355 0 0 0.36 0 0 0.365 0 0 0.37 0 0 0.375 0 0 0.38 0 0 0.385 0 0 0.39 0 0 0.395 0 0 0.4 0 0 0.405 0 0 0.41 0 0 0.415 0 0 0.42 0 0 0.425 0 0 0.43 0 0 0.435 0 0 0.44 0 0 0.445 0 0 0.45 0 0 0.455 0 0 0.46 0 0 0.465 0 0 0.47 0 0 0.475 0 0 0.48 0 0 0.485 0 0 0.49 0 0 0.495 0 0 0.5 0 0 0.505 0 0 0.51 0 0 0.515 0 0 0.52 0 0 0.525 0 0 0.53 0 0 0.535 0 0 0.54 0 0 0.545 0 0 0.55 0 0 0.555 0 0 0.56 0 0 0.565 0 0 0.57 0 0 0.575 0 0 0.58 0 0 0.585 0 0 0.59 0 0 0.595 0 0 0.6 0 0 0.605 0 0 0.61 0 0 0.615 0 0 0.62 0 0 0.625 0 0 0.63 0 0 0.635 0 0 0.64 0 0 0.645 0 0 0.65 0 0 0.655 0 0 0.66 0 0 0.665 0 0 0.67 0 0 0.675 0 0 0.68 0 0 0.685 0 0 0.69 0 0 0.695 0 0 0.7 0 0 0.705 0 0 0.71 0 0 0.715 0 0 0.72 0 0 0.725 0 0 0.73 0 0 0.735 0 0 0.74 0 0 0.745 0 0 0.75 0 0 0.755 0 0 0.76 0 0 0.765 0 0 0.77 0 0 0.775 0 0 0.78 0 0 0.785 0 0 0.79 0 0 0.795 0 0 0.8 0 0 0.805 0 0 0.81 0 0 0.815 0 0 0.82 0 0 0.825 0 0 0.83 0 0 0.835 0 0 0.84 0 0 0.845 0 0 0.85 0 0 0.855 0 0 0.86 0 0 0.865 0 0 0.87 0 0 0.875 0 0 0.88 0 0 0.885 0 0 0.89 0 0 0.895 0 0 0.9 0 0 0.905 0 0 0.91 0 0 0.915 0 0 0.92 0 0 0.925 0 0 0.93 0 0 0.935 0 0 0.94 0 0 0.945 0 0 0.95 0 0 0.955 0 0 0.96 0 0 0.965 0 0 0.97 0 0 0.975 0 0 0.98 0 0 0.985 0 0 0.99 0 0 0.995 0 0 1 0 0 0 0.02 0 0.005 0.02 0 0.01 0.02 0 0.015 0.02 0 0.02 0.02 0 0.025 0.02 0 0.03 0.02 0 0.035 0.02 0 0.04 0.02 0 0.045 0.02 0 0.05 0.02 0 0.055 0.02 0 0.06 0.02 0 0.065 0.02 0 0.07 0.02 0 0.075 0.02 0 0.08 0.02 0 0.085 0.02 0 0.09 0.02 0 0.095 0.02 0 0.1 0.02 0 0.105 0.02 0 0.11 0.02 0 0.115 0.02 0 0.12 0.02 0 0.125 0.02 0 0.13 0.02 0 0.135 0.02 0 0.14 0.02 0 0.145 0.02 0 0.15 0.02 0 0.155 0.02 0 0.16 0.02 0 0.165 0.02 0 0.17 0.02 0 0.175 0.02 0 0.18 0.02 0 0.185 0.02 0 0.19 0.02 0 0.195 0.02 0 0.2 0.02 0 0.205 0.02 0 0.21 0.02 0 0.215 0.02 0 0.22 0.02 0 0.225 0.02 0 0.23 0.02 0 0.235 0.02 0 0.24 0.02 0 0.245 0.02 0 0.25 0.02 0 0.255 0.02 0 0.26 0.02 0 0.265 0.02 0 0.27 0.02 0 0.275 0.02 0 0.28 0.02 0 0.285 0.02 0 0.29 0.02 0 0.295 0.02 0 0.3 0.02 0 0.305 0.02 0 0.31 0.02 0 0.315 0.02 0 0.32 0.02 0 0.325 0.02 0 0.33 0.02 0 0.335 0.02 0 0.34 0.02 0 0.345 0.02 0 0.35 0.02 0 0.355 0.02 0 0.36 0.02 0 0.365 0.02 0 0.37 0.02 0 0.375 0.02 0 0.38 0.02 0 0.385 0.02 0 0.39 0.02 0 0.395 0.02 0 0.4 0.02 0 0.405 0.02 0 0.41 0.02 0 0.415 0.02 0 0.42 0.02 0 0.425 0.02 0 0.43 0.02 0 0.435 0.02 0 0.44 0.02 0 0.445 0.02 0 0.45 0.02 0 0.455 0.02 0 0.46 0.02 0 0.465 0.02 0 0.47 0.02 0 0.475 0.02 0 0.48 0.02 0 0.485 0.02 0 0.49 0.02 0 0.495 0.02 0 0.5 0.02 0 0.505 0.02 0 0.51 0.02 0 0.515 0.02 0 0.52 0.02 0 0.525 0.02 0 0.53 0.02 0 0.535 0.02 0 0.54 0.02 0 0.545 0.02 0 0.55 0.02 0 0.555 0.02 0 0.56 0.02 0 0.565 0.02 0 0.57 0.02 0 0.575 0.02 0 0.58 0.02 0 0.585 0.02 0 0.59 0.02 0 0.595 0.02 0 0.6 0.02 0 0.605 0.02 0 0.61 0.02 0 0.615 0.02 0 0.62 0.02 0 0.625 0.02 0 0.63 0.02 0 0.635 0.02 0 0.64 0.02 0 0.645 0.02 0 0.65 0.02 0 0.655 0.02 0 0.66 0.02 0 0.665 0.02 0 0.67 0.02 0 0.675 0.02 0 0.68 0.02 0 0.685 0.02 0 0.69 0.02 0 0.695 0.02 0 0.7 0.02 0 0.705 0.02 0 0.71 0.02 0 0.715 0.02 0 0.72 0.02 0 0.725 0.02 0 0.73 0.02 0 0.735 0.02 0 0.74 0.02 0 0.745 0.02 0 0.75 0.02 0 0.755 0.02 0 0.76 0.02 0 0.765 0.02 0 0.77 0.02 0 0.775 0.02 0 0.78 0.02 0 0.785 0.02 0 0.79 0.02 0 0.795 0.02 0 0.8 0.02 0 0.805 0.02 0 0.81 0.02 0 0.815 0.02 0 0.82 0.02 0 0.825 0.02 0 0.83 0.02 0 0.835 0.02 0 0.84 0.02 0 0.845 0.02 0 0.85 0.02 0 0.855 0.02 0 0.86 0.02 0 0.865 0.02 0 0.87 0.02 0 0.875 0.02 0 0.88 0.02 0 0.885 0.02 0 0.89 0.02 0 0.895 0.02 0 0.9 0.02 0 0.905 0.02 0 0.91 0.02 0 0.915 0.02 0 0.92 0.02 0 0.925 0.02 0 0.93 0.02 0 0.935 0.02 0 0.94 0.02 0 0.945 0.02 0 0.95 0.02 0 0.955 0.02 0 0.96 0.02 0 0.965 0.02 0 0.97 0.02 0 0.975 0.02 0 0.98 0.02 0 0.985 0.02 0 0.99 0.02 0 0.995 0.02 0 1 0.02 0 0 0.04 0 0.005 0.04 0 0.01 0.04 0 0.015 0.04 0 0.02 0.04 0 0.025 0.04 0 0.03 0.04 0 0.035 0.04 0 0.04 0.04 0 0.045 0.04 0 0.05 0.04 0 0.055 0.04 0 0.06 0.04 0 0.065 0.04 0 0.07 0.04 0 0.075 0.04 0 0.08 0.04 0 0.085 0.04 0 0.09 0.04 0 0.095 0.04 0 0.1 0.04 0 0.105 0.04 0 0.11 0.04 0 0.115 0.04 0 0.12 0.04 0 0.125 0.04 0 0.13 0.04 0 0.135 0.04 0 0.14 0.04 0 0.145 0.04 0 0.15 0.04 0 0.155 0.04 0 0.16 0.04 0 0.165 0.04 0 0.17 0.04 0 0.175 0.04 0 0.18 0.04 0 0.185 0.04 0 0.19 0.04 0 0.195 0.04 0 0.2 0.04 0 0.205 0.04 0 0.21 0.04 0 0.215 0.04 0 0.22 0.04 0 0.225 0.04 0 0.23 0.04 0 0.235 0.04 0 0.24 0.04 0 0.245 0.04 0 0.25 0.04 0 0.255 0.04 0 0.26 0.04 0 0.265 0.04 0 0.27 0.04 0 0.275 0.04 0 0.28 0.04 0 0.285 0.04 0 0.29 0.04 0 0.295 0.04 0 0.3 0.04 0 0.305 0.04 0 0.31 0.04 0 0.315 0.04 0 0.32 0.04 0 0.325 0.04 0 0.33 0.04 0 0.335 0.04 0 0.34 0.04 0 0.345 0.04 0 0.35 0.04 0 0.355 0.04 0 0.36 0.04 0 0.365 0.04 0 0.37 0.04 0 0.375 0.04 0 0.38 0.04 0 0.385 0.04 0 0.39 0.04 0 0.395 0.04 0 0.4 0.04 0 0.405 0.04 0 0.41 0.04 0 0.415 0.04 0 0.42 0.04 0 0.425 0.04 0 0.43 0.04 0 0.435 0.04 0 0.44 0.04 0 0.445 0.04 0 0.45 0.04 0 0.455 0.04 0 0.46 0.04 0 0.465 0.04 0 0.47 0.04 0 0.475 0.04 0 0.48 0.04 0 0.485 0.04 0 0.49 0.04 0 0.495 0.04 0 0.5 0.04 0 0.505 0.04 0 0.51 0.04 0 0.515 0.04 0 0.52 0.04 0 0.525 0.04 0 0.53 0.04 0 0.535 0.04 0 0.54 0.04 0 0.545 0.04 0 0.55 0.04 0 0.555 0.04 0 0.56 0.04 0 0.565 0.04 0 0.57 0.04 0 0.575 0.04 0 0.58 0.04 0 0.585 0.04 0 0.59 0.04 0 0.595 0.04 0 0.6 0.04 0 0.605 0.04 0 0.61 0.04 0 0.615 0.04 0 0.62 0.04 0 0.625 0.04 0 0.63 0.04 0 0.635 0.04 0 0.64 0.04 0 0.645 0.04 0 0.65 0.04 0 0.655 0.04 0 0.66 0.04 0 0.665 0.04 0 0.67 0.04 0 0.675 0.04 0 0.68 0.04 0 0.685 0.04 0 0.69 0.04 0 0.695 0.04 0 0.7 0.04 0 0.705 0.04 0 0.71 0.04 0 0.715 0.04 0 0.72 0.04 0 0.725 0.04 0 0.73 0.04 0 0.735 0.04 0 0.74 0.04 0 0.745 0.04 0 0.75 0.04 0 0.755 0.04 0 0.76 0.04 0 0.765 0.04 0 0.77 0.04 0 0.775 0.04 0 0.78 0.04 0 0.785 0.04 0 0.79 0.04 0 0.795 0.04 0 0.8 0.04 0 0.805 0.04 0 0.81 0.04 0 0.815 0.04 0 0.82 0.04 0 0.825 0.04 0 0.83 0.04 0 0.835 0.04 0 0.84 0.04 0 0.845 0.04 0 0.85 0.04 0 0.855 0.04 0 0.86 0.04 0 0.865 0.04 0 0.87 0.04 0 0.875 0.04 0 0.88 0.04 0 0.885 0.04 0 0.89 0.04 0 0.895 0.04 0 0.9 0.04 0 0.905 0.04 0 0.91 0.04 0 0.915 0.04 0 0.92 0.04 0 0.925 0.04 0 0.93 0.04 0 0.935 0.04 0 0.94 0.04 0 0.945 0.04 0 0.95 0.04 0 0.955 0.04 0 0.96 0.04 0 0.965 0.04 0 0.97 0.04 0 0.975 0.04 0 0.98 0.04 0 0.985 0.04 0 0.99 0.04 0 0.995 0.04 0 1 0.04 0 0 0.06 0 0.005 0.06 0 0.01 0.06 0 0.015 0.06 0 0.02 0.06 0 0.025 0.06 0 0.03 0.06 0 0.035 0.06 0 0.04 0.06 0 0.045 0.06 0 0.05 0.06 0 0.055 0.06 0 0.06 0.06 0 0.065 0.06 0 0.07 0.06 0 0.075 0.06 0 0.08 0.06 0 0.085 0.06 0 0.09 0.06 0 0.095 0.06 0 0.1 0.06 0 0.105 0.06 0 0.11 0.06 0 0.115 0.06 0 0.12 0.06 0 0.125 0.06 0 0.13 0.06 0 0.135 0.06 0 0.14 0.06 0 0.145 0.06 0 0.15 0.06 0 0.155 0.06 0 0.16 0.06 0 0.165 0.06 0 0.17 0.06 0 0.175 0.06 0 0.18 0.06 0 0.185 0.06 0 0.19 0.06 0 0.195 0.06 0 0.2 0.06 0 0.205 0.06 0 0.21 0.06 0 0.215 0.06 0 0.22 0.06 0 0.225 0.06 0 0.23 0.06 0 0.235 0.06 0 0.24 0.06 0 0.245 0.06 0 0.25 0.06 0 0.255 0.06 0 0.26 0.06 0 0.265 0.06 0 0.27 0.06 0 0.275 0.06 0 0.28 0.06 0 0.285 0.06 0 0.29 0.06 0 0.295 0.06 0 0.3 0.06 0 0.305 0.06 0 0.31 0.06 0 0.315 0.06 0 0.32 0.06 0 0.325 0.06 0 0.33 0.06 0 0.335 0.06 0 0.34 0.06 0 0.345 0.06 0 0.35 0.06 0 0.355 0.06 0 0.36 0.06 0 0.365 0.06 0 0.37 0.06 0 0.375 0.06 0 0.38 0.06 0 0.385 0.06 0 0.39 0.06 0 0.395 0.06 0 0.4 0.06 0 0.405 0.06 0 0.41 0.06 0 0.415 0.06 0 0.42 0.06 0 0.425 0.06 0 0.43 0.06 0 0.435 0.06 0 0.44 0.06 0 0.445 0.06 0 0.45 0.06 0 0.455 0.06 0 0.46 0.06 0 0.465 0.06 0 0.47 0.06 0 0.475 0.06 0 0.48 0.06 0 0.485 0.06 0 0.49 0.06 0 0.495 0.06 0 0.5 0.06 0 0.505 0.06 0 0.51 0.06 0 0.515 0.06 0 0.52 0.06 0 0.525 0.06 0 0.53 0.06 0 0.535 0.06 0 0.54 0.06 0 0.545 0.06 0 0.55 0.06 0 0.555 0.06 0 0.56 0.06 0 0.565 0.06 0 0.57 0.06 0 0.575 0.06 0 0.58 0.06 0 0.585 0.06 0 0.59 0.06 0 0.595 0.06 0 0.6 0.06 0 0.605 0.06 0 0.61 0.06 0 0.615 0.06 0 0.62 0.06 0 0.625 0.06 0 0.63 0.06 0 0.635 0.06 0 0.64 0.06 0 0.645 0.06 0 0.65 0.06 0 0.655 0.06 0 0.66 0.06 0 0.665 0.06 0 0.67 0.06 0 0.675 0.06 0 0.68 0.06 0 0.685 0.06 0 0.69 0.06 0 0.695 0.06 0 0.7 0.06 0 0.705 0.06 0 0.71 0.06 0 0.715 0.06 0 0.72 0.06 0 0.725 0.06 0 0.73 0.06 0 0.735 0.06 0 0.74 0.06 0 0.745 0.06 0 0.75 0.06 0 0.755 0.06 0 0.76 0.06 0 0.765 0.06 0 0.77 0.06 0 0.775 0.06 0 0.78 0.06 0 0.785 0.06 0 0.79 0.06 0 0.795 0.06 0 0.8 0.06 0 0.805 0.06 0 0.81 0.06 0 0.815 0.06 0 0.82 0.06 0 0.825 0.06 0 0.83 0.06 0 0.835 0.06 0 0.84 0.06 0 0.845 0.06 0 0.85 0.06 0 0.855 0.06 0 0.86 0.06 0 0.865 0.06 0 0.87 0.06 0 0.875 0.06 0 0.88 0.06 0 0.885 0.06 0 0.89 0.06 0 0.895 0.06 0 0.9 0.06 0 0.905 0.06 0 0.91 0.06 0 0.915 0.06 0 0.92 0.06 0 0.925 0.06 0 0.93 0.06 0 0.935 0.06 0 0.94 0.06 0 0.945 0.06 0 0.95 0.06 0 0.955 0.06 0 0.96 0.06 0 0.965 0.06 0 0.97 0.06 0 0.975 0.06 0 0.98 0.06 0 0.985 0.06 0 0.99 0.06 0 0.995 0.06 0 1 0.06 0 0 0.08 0 0.005 0.08 0 0.01 0.08 0 0.015 0.08 0 0.02 0.08 0 0.025 0.08 0 0.03 0.08 0 0.035 0.08 0 0.04 0.08 0 0.045 0.08 0 0.05 0.08 0 0.055 0.08 0 0.06 0.08 0 0.065 0.08 0 0.07 0.08 0 0.075 0.08 0 0.08 0.08 0 0.085 0.08 0 0.09 0.08 0 0.095 0.08 0 0.1 0.08 0 0.105 0.08 0 0.11 0.08 0 0.115 0.08 0 0.12 0.08 0 0.125 0.08 0 0.13 0.08 0 0.135 0.08 0 0.14 0.08 0 0.145 0.08 0 0.15 0.08 0 0.155 0.08 0 0.16 0.08 0 0.165 0.08 0
[...]
			<PointData Scalars="VitesseX">
				<DataArray Name="VitesseX" type="Float32" format="ascii">
 0 2.36501e-14 3.39282e-14 5.725e-14 -2.77497e-14 -4.69182e-14 4.39165e-14 2.05045e-14 -4.62308e-14 8.01165e-14 -4.4199e-14 -4.41161e-14 -1.027e-13 4.24811e-14 -8.79757e-15 -4.05825e-15 -2.51991e-14 -8.78287e-14 -7.11583e-14 -1.29048e-13 -1.16634e-13 -8.0205e-14 -2.34077e-13 2.21637e-14 -1.27986e-13 1.89862e-14 -3.11062e-13 -3.88331e-14 -1.02862e-13 -5.46316e-14 -1.29333e-13 3.31474e-14 -7.21561e-14 1.46564e-15 -4.32277e-13 -2.01377e-13 -1.1603e-13 -1.48944e-13 -2.36314e-13 -2.68699e-13 2.7488e-13 -3.14011e-13 1.55581e-13 1.84316e-13 1.96259e-13 -1.8233e-13 -1.3194e-13 -3.03526e-13 3.45658e-13 8.61755e-13 7.57079e-12 5.32013e-11 3.35648e-10 2.00289e-09 1.12472e-08 5.92608e-08 2.92159e-07 1.34282e-06 5.73057e-06 2.25995e-05 8.19058e-05 0.000271034 0.000812854 0.0021921 0.00527809 0.0113 0.0215128 0.0366287 0.0564349 0.0799455 0.10594 0.133424 0.161756 0.190565 0.219684 0.249 0.27842 0.307875 0.337312 0.366708 0.396043 0.425296 0.454449 0.483485 0.512382 0.541121 0.569678 0.598027 0.626139 0.653983 0.681521 0.708717 0.735528 0.761912 0.78783 0.813249 0.838152 0.86255 0.88651 0.910235 0.934203 0.940752 0.940309 0.939306 0.938082 0.93688 0.935624 0.934368 0.933102 0.931926 0.930918 0.93008 0.929458 0.928979 0.928594 0.928341 0.928293 0.928165 0.928027 0.92792 0.927713 0.927621 0.927564 0.927358 0.910602 0.934719 0.926853 0.926892 0.926745 0.929069 0.929332 0.929261 0.929185 0.929164 0.929151 0.92929 0.929446 0.929473 0.929457 0.929412 0.929348 0.929271 0.929178 0.929065 0.928712 0.92595 0.91608 0.890869 0.839235 0.756364 0.642873 0.50704 0.363914 0.232251 0.129283 0.0624652 0.0268242 0.0107218 0.0041316 0.0015652 0.0005881 0.000219905 8.19201e-05 3.04078e-05 1.12441e-05 4.14045e-06 1.51763e-06 5.53446e-07 2.0071e-07 7.23498e-08 2.59108e-08 9.21487e-09 3.25289e-09 1.13902e-09 3.95819e-10 1.35903e-10 4.65729e-11 1.50393e-11 4.64408e-12 1.64022e-12 2.89926e-13 -7.06435e-13 -7.37726e-14 2.35872e-13 -2.43835e-13 -9.47233e-14 2.23677e-13 -6.18488e-13 6.26461e-13 1.01733e-13 4.9954e-13 -1.61983e-13 7.29641e-13 5.11414e-13 5.3423e-13 -7.51439e-13 4.83326e-13 2.07021e-13 4.86053e-14 6.23674e-13 0 0 2.25074e-14 2.65094e-14 -5.94837e-15 3.81141e-14 5.22555e-14 -8.94698e-15 -2.94483e-14 4.61604e-14 -9.34968e-14 -3.07906e-14 2.19952e-15 4.11703e-14 -1.36267e-13 -3.13812e-14 2.58282e-14 -2.93866e-14 -1.07588e-13 -6.56571e-14 3.48191e-15 -9.50757e-14 -1.52526e-13 -3.11396e-14 -2.62187e-13 2.50641e-14 -1.22325e-13 6.05959e-14 -1.89899e-13 -1.68511e-13 -6.19609e-14 -5.92479e-14 -1.60206e-13 -3.02408e-14 -2.33644e-13 -2.85776e-14 -2.8544e-13 -1.89819e-13 -1.59565e-13 -1.79904e-14 3.87727e-14 -3.24621e-13 1.45952e-13 1.45498e-13 -1.02827e-13 -1.88814e-13 1.7667e-13 -8.22417e-14 -2.92174e-13 -2.96327e-13 9.38198e-13 7.86151e-12 5.32513e-11 3.3584e-10 2.00303e-09 1.12461e-08 5.92618e-08 2.92159e-07 1.34282e-06 5.73057e-06 2.25995e-05 8.19058e-05 0.000271034 0.000812854 0.0021921 0.00527809 0.0113 0.0215128 0.0366287 0.0564349 0.0799455 0.10594 0.133424 0.161756 0.190565 0.219684 0.249 0.27842 0.307875 0.337312 0.366708 0.396043 0.425296 0.454449 0.483485 0.512382 0.541121 0.569678 0.598027 0.626139 0.653983 0.681521 0.708717 0.735528 0.761912 0.78783 0.813249 0.838152 0.86255 0.88651 0.910236 0.934201 0.940752 0.940309 0.939306 0.938082 0.93688 0.935624 0.934369 0.933102 0.931926 0.930918 0.93008 0.929458 0.928979 0.928594 0.928341 0.928293 0.928165 0.928027 0.92792 0.927713 0.927621 0.927564 0.927358 0.910602 0.934719 0.926853 0.926892 0.926745 0.929069 0.929332 0.929261 0.929185 0.929164 0.929151 0.92929 0.929446 0.929473 0.929457 0.929412 0.929348 0.929271 0.929178 0.929065 0.928712 0.92595 0.91608 0.890869 0.839235 0.756364 0.642873 0.50704 0.363914 0.232251 0.129283 0.0624652 0.0268242 0.0107218 0.0041316 0.0015652 0.0005881 0.000219905 8.19201e-05 3.04078e-05 1.12441e-05 4.14045e-06 1.51763e-06 5.53446e-07 2.0071e-07 7.23501e-08 2.59106e-08 9.21498e-09 3.2528e-09 1.1394e-09 3.95515e-10 1.36294e-10 4.61038e-11 1.53958e-11 4.93803e-12 1.07798e-12 1.69377e-13 -2.86571e-14 -6.99475e-15 -7.22782e-13 2.61544e-13 6.64256e-14 -9.92871e-14 -1.36996e-13 -2.47596e-13 6.03015e-13 -2.10902e-13 5.13684e-13 1.48131e-13 3.11849e-13 1.02406e-13 7.41141e-13 8.86045e-14 -6.45272e-14 2.37222e-13 2.73858e-13 0 0 8.98855e-15 7.82886e-15 4.19087e-14 3.85521e-14 2.45793e-14 3.71098e-14 -1.57655e-14 -2.9574e-14 6.57907e-14 -4.76599e-14 -9.66464e-14 1.82667e-14 2.3487e-14 -8.69663e-14 -2.96953e-14 -1.49359e-13 -4.37446e-14 1.10569e-13 -1.5314e-13 -3.36562e-14 1.41133e-14 -2.09399e-13 1.08434e-13 -1.4831e-13 -3.79469e-14 -3.23997e-13 -6.58016e-14 -1.84714e-13 -5.56541e-14 -9.60198e-14 -6.04249e-14 -4.87433e-14 -1.66265e-13 -2.42748e-13 -2.12043e-13 1.35858e-13 -5.2121e-14 -1.79279e-13 -1.68047e-13 -5.59007e-14 -3.02046e-14 1.71073e-14 -8.18292e-14 8.8651e-14 -1.86089e-13 -2.30727e-13 -4.34928e-14 -1.6725e-14 6.56039e-13 7.86197e-12 5.33879e-11 3.35894e-10 2.003e-09 1.12465e-08 5.92615e-08 2.92159e-07 1.34282e-06 5.73057e-06 2.25995e-05 8.19058e-05 0.000271034 0.000812854 0.0021921 0.00527809 0.0113 0.0215128 0.0366287 0.0564349 0.0799455 0.10594 0.133424 0.161756 0.190565 0.219684 0.249 0.27842 0.307875 0.337312 0.366708 0.396043 0.425296 0.454449 0.483485 0.512382 0.541121 0.569678 0.598027 0.626139 0.653983 0.681521 0.708717 0.735528 0.761912 0.78783 0.813249 0.838152 0.86255 0.88651 0.910236 0.9342 0.940752 0.940309 0.939306 0.938083 0.93688 0.935624 0.934369 0.933102 0.931926 0.930918 0.93008 0.929458 0.928979 0.928594 0.928341 0.928293 0.928165 0.928027 0.92792 0.927713 0.927621 0.927564 0.927358 0.910602 0.934719 0.926853 0.926892 0.926745 0.929069 0.929332 0.929261 0.929185 0.929164 0.929151 0.92929 0.929446 0.929473 0.929457 0.929412 0.929348 0.929271 0.929178 0.929065 0.928712 0.92595 0.91608 0.890869 0.839235 0.756364 0.642873 0.50704 0.363914 0.232251 0.129283 0.0624652 0.0268242 0.0107218 0.0041316 0.0015652 0.0005881 0.000219905 8.19201e-05 3.04078e-05 1.12441e-05 4.14045e-06 1.51763e-06 5.53446e-07 2.0071e-07 7.23503e-08 2.59106e-08 9.2152e-09 3.25303e-09 1.13926e-09 3.95752e-10 1.35982e-10 4.63779e-11 1.54087e-11 4.85147e-12 1.39675e-12 -2.2564e-13 3.13282e-13 -3.21746e-13 2.41991e-14 -5.42677e-13 -9.75361e-14 -2.30828e-13 1.29293e-13 -1.50181e-13 3.20844e-14 -1.35658e-13 3.53167e-13 3.00661e-13 2.17982e-14 1.2884e-12 2.0008e-14 -5.00977e-13 1.31195e-13 8.1456e-13 2.60818e-13 0 0 8.12322e-15 3.38343e-15 3.88262e-14 1.67502e-14 -8.45135e-15 4.71388e-14 -1.59145e-14 -5.11435e-14 4.47e-14 1.42356e-14 1.82517e-14 -8.16549e-15 2.57487e-14 -9.02997e-14 -2.98092e-14 -1.08394e-13 -8.04408e-14 -3.43881e-14 -5.40771e-14 -1.70743e-13 6.43905e-14 3.2353e-14 2.00481e-14 -3.05267e-14 -1.50251e-13 -2.32206e-13 -2.58792e-13 -5.38928e-14 -1.41598e-13 -1.30271e-13 6.43438e-14 -2.93961e-13 -3.1081e-14 -2.55565e-13 6.42605e-14 7.59406e-14 -1.59783e-13 -7.2789e-14 -1.89912e-13 -1.70115e-13 -1.84625e-13 1.31076e-14 6.87759e-14 3.91593e-14 -1.79986e-13 -2.17612e-14 -1.85844e-13 2.57024e-13 1.06953e-12 7.70212e-12 5.33598e-11 3.35697e-10 2.00292e-09 1.12468e-08 5.92618e-08 2.92159e-07 1.34282e-06 5.73057e-06 2.25995e-05 8.19058e-05 0.000271034 0.000812854 0.0021921 0.00527809 0.0113 0.0215128 0.0366287 0.0564349 0.0799455 0.10594 0.133424 0.161756 0.190565 0.219684 0.249 0.27842 0.307875 0.337312 0.366708 0.396043 0.425296 0.454449 0.483485 0.512382 0.541121 0.569678 0.598027 0.626139 0.653983 0.681521 0.708717 0.735528 0.761912 0.78783 0.813249 0.838152 0.86255 0.88651 0.910235 0.934203 0.940752 0.940309 0.939306 0.938082 0.93688 0.935624 0.934368 0.933102 0.931926 0.930918 0.93008 0.929458 0.928979 0.928594 0.928341 0.928293 0.928165 0.928027 0.92792 0.927713 0.927621 0.927564 0.927358 0.910602 0.934719 0.926853 0.926892 0.926745 0.929069 0.929332 0.929261 0.929185 0.929164 0.929151 0.92929 0.929446 0.929473 0.929457 0.929412 0.929348 0.929271 0.929178 0.929065 0.928712 0.92595 0.91608 0.890869 0.839235 0.756364 0.642873 0.50704 0.363914 0.232251 0.129283 0.0624652 0.0268242 0.0107218 0.0041316 0.0015652 0.0005881 0.000219905 8.19201e-05 3.04078e-05 1.12441e-05 4.14045e-06 1.51763e-06 5.53446e-07 2.0071e-07 7.235e-08 2.5911e-08 9.21509e-09 3.25331e-09 1.13908e-09 3.95509e-10 1.35823e-10 4.64624e-11 1.52342e-11 4.9256e-12 1.36602e-12 6.12447e-13 -4.79219e-13 -2.16439e-13 1.88684e-13 -5.13157e-13 -6.74892e-14 -2.11467e-13 -2.01566e-13 4.9152e-13 -6.51426e-13 1.92348e-13 -7.3536e-13 1.02701e-12 2.58168e-13 5.08572e-13 -2.56335e-13 -2.17849e-13 4.27155e-13 -2.31664e-13 1.65683e-13 0 0 4.77231e-15 -2.62356e-15 -4.24186e-14 8.33983e-15 1.5692e-14 -3.30352e-14 -4.43741e-14 3.89564e-14 -6.82743e-14 1.73658e-14 8.70946e-14 3.20807e-14 -8.18965e-14 1.31676e-14 -1.996e-14 3.21209e-14 -7.41117e-14 -8.08391e-14 6.44225e-14 -1.53506e-13 -9.82605e-14 1.3963e-13 -2.55766e-13 1.05038e-13 -2.17299e-13 1.4066e-13 -3.33978e-13 -2.06858e-13 -8.53625e-14 -1.63369e-13 -1.78971e-13 -1.84099e-13 -5.41249e-14 1.42061e-13 5.07091e-14 -7.62663e-14 -6.2502e-14 5.33448e-14 -5.7037e-14 -4.36863e-13 -6.6417e-14 3.93444e-14 -1.86726e-13 -3.26344e-13 2.9521e-13 8.77807e-14 -2.35267e-13 -2.47146e-13 1.13426e-12 8.17405e-12 5.32912e-11 3.35784e-10 2.00313e-09 1.12464e-08 5.92623e-08 2.92159e-07 1.34282e-06 5.73057e-06 2.25995e-05 8.19058e-05 0.000271034 0.000812854 0.0021921 0.00527809 0.0113 0.0215128 0.0366287 0.0564349 0.0799455 0.10594 0.133424 0.161756 0.190565 0.219684 0.249 0.27842 0.307875 0.337312 0.366708 0.396043 0.425296 0.454449 0.483485 0.512382 0.541121 0.569678 0.598027 0.626139 0.653983 0.681521 0.708717 0.735528 0.761912 0.78783 0.813249 0.838152 0.86255 0.88651 0.910236 0.934202 0.940752 0.940309 0.939306 0.938082 0.93688 0.935624 0.934369 0.933102 0.931926 0.930918 0.93008 0.929458 0.928979 0.928594 0.928341 0.928293 0.928165 0.928027 0.92792 0.927713 0.927621 0.927564 0.927358 0.910602 0.934719 0.926853 0.926892 0.926745 0.929069 0.929332 0.929261 0.929185 0.929164 0.929151 0.92929 0.929446 0.929473 0.929457 0.929412 0.929348 0.929271 0.929178 0.929065 0.928712 0.92595 0.91608 0.890869 0.839235 0.756364 0.642873 0.50704 0.363914 0.232251 0.129283 0.0624652 0.0268242 0.0107218 0.0041316 0.0015652 0.0005881 0.000219905 8.19201e-05 3.04078e-05 1.12441e-05 4.14045e-06 1.51763e-06 5.53446e-07 2.0071e-07 7.23501e-08 2.59112e-08 9.21498e-09 3.25341e-09 1.13951e-09 3.95502e-10 1.35974e-10 4.59122e-11 1.52916e-11 4.85521e-12 6.35753e-13 6.87291e-13 1.72968e-13 -1.44337e-13 -4.51436e-13 -1.39528e-13 1.16886e-13 -1.31811e-14 -2.50958e-13 4.18693e-15 -1.85032e-13 -2.39261e-13 -2.16946e-13 6.46926e-13 1.57156e-13 -8.46386e-13 7.71006e-13 4.56461e-13 2.6349e-14 -6.97828e-13 -1.89209e-13 0 0 -1.00895e-14 -1.5447e-14 -9.52535e-15 -4.36944e-14 -5.39838e-14 -2.4318e-14 -9.0491e-15 -1.74999e-14 1.72743e-13 -7.16772e-14 -1.04122e-13 -6.80152e-14 1.46699e-13 8.69669e-14 -9.54069e-14 1.58849e-14 5.25155e-14 1.88392e-13 -2.05293e-13 4.06783e-14 -7.22276e-14 -3.76042e-13 2.11779e-13 -2.03606e-13 5.36474e-14 -3.34515e-13 5.89901e-14 -4.41198e-13 7.04531e-14 -2.69074e-13 -2.53919e-13 1.10564e-13 9.0137e-14 -6.53658e-14 -8.1684e-14 2.3091e-13 2.60506e-13 -3.06623e-13 -4.16589e-13 2.78825e-13 -4.29907e-13 -4.87278e-14 -2.84693e-13 2.01843e-14 4.25442e-14 -2.09827e-13 9.49896e-14 -1.03477e-13 4.2689e-13 8.51558e-12 5.33372e-11 3.3593e-10 2.00325e-09 1.1247e-08 5.92612e-08 2.92159e-07 1.34282e-06 5.73057e-06 2.25995e-05 8.19058e-05 0.000271034 0.000812854 0.0021921 0.00527809 0.0113 0.0215128 0.0366287 0.0564349 0.0799455 0.10594 0.133424 0.161756 0.190565 0.219684 0.249 0.27842 0.307875 0.337312 0.366708 0.396043 0.425296 0.454449 0.483484 0.512382 0.541121 0.569678 0.598027 0.626139 0.653983 0.681521 0.708717 0.735528 0.761912 0.78783 0.813249 0.838152 0.86255 0.88651 0.910236 0.9342 0.940752 0.940309 0.939306 0.938083 0.93688 0.935625 0.934369 0.933102 0.931926 0.930918 0.93008 0.929458 0.928979 0.928594 0.928341 0.928293 0.928165 0.928027 0.92792 0.927713 0.927621 0.927564 0.927358 0.910602 0.934719 0.926853 0.926892 0.926745 0.929069 0.929332 0.929261 0.929185 0.929164 0.929151 0.92929 0.929446 0.929473 0.929457 0.929412 0.929348 0.929271 0.929178 0.929065 0.928712 0.92595 0.91608 0.890869 0.839235 0.756364 0.642873 0.50704 0.363914 0.232251 0.129283 0.0624652 0.0268242 0.0107218 0.0041316 0.0015652 0.0005881 0.000219905 8.19201e-05 3.04078e-05 1.12441e-05 4.14045e-06 1.51763e-06 5.53446e-07 2.0071e-07 7.23503e-08 2.59111e-08 9.21509e-09 3.25356e-09 1.13961e-09 3.96278e-10 1.35582e-10 4.60209e-11 1.51801e-11 4.33017e-12 8.17241e-13 -3.50418e-13 1.28182e-12 -5.59072e-13 4.49592e-13 -1.10502e-12 -5.38969e-14 3.57167e-13 -1.84694e-13 -1.53376e-13 -1.07339e-13 -2.1319e-13 5.53811e-13 2.74535e-13 -2.7071e-13 1.96311e-13 -1.39022e-13 6.52786e-13 -2.03147e-13 2.70953e-13 -1.12191e-13 0
				</DataArray>
				<DataArray Name="VitesseY" type="Float32" format="ascii">