<?xml version="1.0"?>
<VTKFile type="PolyData">
	<PolyData>
		<Piece NumberOfPoints="1206" NumberOfPolys="1000">
			<Points>
				<DataArray type="Float32" NumberOfComponents="3" format="ascii">
 0 0 0 0.005 0 0 0.01 0 0 0.015 0 0 0.02 0 0 0.025 0 0 0.03 0 0 0.035 0 0 0.04 0 0 0.045 0 0 0.05 0 0 0.055 0 0 0.06 0 0 0.065 0 0 0.07 0 0 0.075 0 0 0.08 0 0 0.085 0 0 0.09 0 0 0.095 0 0 0.1 0 0 0.105 0 0 0.11 0 0 0.115 0 0 0.12 0 0 0.125 0 0 0.13 0 0 0.135 0 0 0.14 0 0 0.145 0 0 0.15 0 0 0.155 0 0 0.16 0 0 0.165 0 0 0.17 0 0 0.175 0 0 0.18 0 0 0.185 0 0 0.19 0 0 0.195 0 0 0.2 0 0 0.205 0 0 0.21 0 0 0.215 0 0 0.22 0 0 0.225 0 0 0.23 0 0 0.235 0 0 0.24 0 0 0.245 0 0 0.25 0 0 0.255 0 0 0.26 0 0 0.265 0 0 0.27 0 0 0.275 0 0 0.28 0 0 0.285 0 0 0.29 0 0 0.295 0 0 0.3 0 0 0.305 0 0 0.31 0 0 0.315 0 0 0.32 0 0 0.325 0 0 0.33 0 0 0.335 0 0 0.34 0 0 0.345 0 0 0.35 0 0 0.355 0 0 0.36 0 0 0.365 0 0 0.37 0 0 0.375 0 0 0.38 0 0 0.385 0 0 0.39 0 0 0.395 0 0 0.4 0 0 0.405 0 0 0.41 0 0 0.415 0 0 0.42 0 0 0.425 0 0 0.43 0 0 0.435 0 0 0.44 0 0 0.445 0 0 0.45 0 0 0.455 0 0 0.46 0 0 0.465 0 0 0.47 0 0 0.475 0 0 0.48 0 0 0.485 0 0 0.49 0 0 0.495 0 0 0.5 0 0 0.505 0 0 0.51 0 0 0.515 0 0 0.52 0 0 0.525 0 0 0.53 0 0 0.535 0 0 0.54 0 0 0.545 0 0 0.55 0 0 0.555 0 0 0.56 0 0 0.565 0 0 0.57 0 0 0.575 0 0 0.58 0 0 0.585 0 0 0.59 0 0 0.595 0 0 0.6 0 0 0.605 0 0 0.61 0 0 0.615 0 0 0.62 0 0 0.625 0 0 0.63 0 0 0.635 0 0 0.64 0 0 0.645 0 0 0.65 0 0 0.655 0 0 0.66 0 0 0.665 0 0 0.67 0 0 0.675 0 0 0.68 0 0 0.685 0 0 0.69 0 0 0.695 0 0 0.7 0 0 0.705 0 0 0.71 0 0 0.715 0 0 0.72 0 0 0.725 0 0 0.73 0 0 0.735 0 0 0.74 0 0 0.745 0 0 0.75 0 0 0.755 0 0 0.76 0 0 0.765 0 0 0.77 0 0 0.775 0 0 0.78 0 0 0.785 0 0 0.79 0 0 0.795 0 0 0.8 0 0 0.805 0 0 0.81 0 0 0.815 0 0 0.82 0 0 0.825 0 0 0.83 0 0 0.835 0 0 0.84 0 0 0.845 0 0 0.85 0 0 0.855 0 0 0.86 0 0 0.865 0 0 0.87 0 0 0.875 0 0 0.88 0 0 0.885 0 0 0.89 0 0 0.895 0 0 0.9 0 0 0.905 0 0 0.91 0 0 0.915 0 0 0.92 0 0 0.925 0 0 0.93 0 0 0.935 0 0 0.94 0 0 0.945 0 0 0.95 0 0 0.955 0 0 0.96 0 0 0.965 0 0 0.97 0 0 0.975 0 0 0.98 0 0 0.985 0 0 0.99 0 0 0.995 0 0 1 0 0 0 0.02 0 0.005 0.02 0 0.01 0.02 0 0.015 0.02 0 0.02 0.02 0 0.025 0.02 0 0.03 0.02 0 0.035 0.02 0 0.04 0.02 0 0.045 0.02 0 0.05 0.02 0 0.055 0.02 0 0.06 0.02 0 0.065 0.02 0 0.07 0.02 0 0.075 0.02 0 0.08 0.02 0 0.085 0.02 0 0.09 0.02 0 0.095 0.02 0 0.1 0.02 0 0.105 0.02 0 0.11 0.02 0 0.115 0.02 0 0.12 0.02 0 0.125 0.02 0 0.13 0.02 0 0.135 0.02 0 0.14 0.02 0 0.145 0.02 0 0.15 0.02 0 0.155 0.02 0 0.16 0.02 0 0.165 0.02 0 0.17 0.02 0 0.175 0.02 0 0.18 0.02 0 0.185 0.02 0 0.19 0.02 0 0.195 0.02 0 0.2 0.02 0 0.205 0.02 0 0.21 0.02 0 0.215 0.02 0 0.22 0.02 0 0.225 0.02 0 0.23 0.02 0 0.235 0.02 0 0.24 0.02 0 0.245 0.02 0 0.25 0.02 0 0.255 0.02 0 0.26 0.02 0 0.265 0.02 0 0.27 0.02 0 0.275 0.02 0 0.28 0.02 0 0.285 0.02 0 0.29 0.02 0 0.295 0.02 0 0.3 0.02 0 0.305 0.02 0 0.31 0.02 0 0.315 0.02 0 0.32 0.02 0 0.325 0.02 0 0.33 0.02 0 0.335 0.02 0 0.34 0.02 0 0.345 0.02 0 0.35 0.02 0 0.355 0.02 0 0.36 0.02 0 0.365 0.02 0 0.37 0.02 0 0.375 0.02 0 0.38 0.02 0 0.385 0.02 0 0.39 0.02 0 0.395 0.02 0 0.4 0.02 0 0.405 0.02 0 0.41 0.02 0 0.415 0.02 0 0.42 0.02 0 0.425 0.02 0 0.43 0.02 0 0.435 0.02 0 0.44 0.02 0 0.445 0.02 0 0.45 0.02 0 0.455 0.02 0 0.46 0.02 0 0.465 0.02 0 0.47 0.02 0 0.475 0.02 0 0.48 0.02 0 0.485 0.02 0 0.49 0.02 0 0.495 0.02 0 0.5 0.02 0 0.505 0.02 0 0.51 0.02 0 0.515 0.02 0 0.52 0.02 0 0.525 0.02 0 0.53 0.02 0 0.535 0.02 0 0.54 0.02 0 0.545 0.02 0 0.55 0.02 0 0.555 0.02 0 0.56 0.02 0 0.565 0.02 0 0.57 0.02 0 0.575 0.02 0 0.58 0.02 0 0.585 0.02 0 0.59 0.02 0 0.595 0.02 0 0.6 0.02 0 0.605 0.02 0 0.61 0.02 0 0.615 0.02 0 0.62 0.02 0 0.625 0.02 0 0.63 0.02 0 0.635 0.02 0 0.64 0.02 0 0.645 0.02 0 0.65 0.02 0 0.655 0.02 0 0.66 0.02 0 0.665 0.02 0 0.67 0.02 0 0.675 0.02 0 0.68 0.02 0 0.685 0.02 0 0.69 0.02 0 0.695 0.02 0 0.7 0.02 0 0.705 0.02 0 0.71 0.02 0 0.715 0.02 0 0.72 0.02 0 0.725 0.02 0 0.73 0.02 0 0.735 0.02 0 0.74 0.02 0 0.745 0.02 0 0.75 0.02 0 0.755 0.02 0 0.76 0.02 0 0.765 0.02 0 0.77 0.02 0 0.775 0.02 0 0.78 0.02 0 0.785 0.02 0 0.79 0.02 0 0.795 0.02 0 0.8 0.02 0 0.805 0.02 0 0.81 0.02 0 0.815 0.02 0 0.82 0.02 0 0.825 0.02 0 0.83 0.02 0 0.835 0.02 0 0.84 0.02 0 0.845 0.02 0 0.85 0.02 0 0.855 0.02 0 0.86 0.02 0 0.865 0.02 0 0.87 0.02 0 0.875 0.02 0 0.88 0.02 0 0.885 0.02 0 0.89 0.02 0 0.895 0.02 0 0.9 0.02 0 0.905 0.02 0 0.91 0.02 0 0.915 0.02 0 0.92 0.02 0 0.925 0.02 0 0.93 0.02 0 0.935 0.02 0 0.94 0.02 0 0.945 0.02 0 0.95 0.02 0 0.955 0.02 0 0.96 0.02 0 0.965 0.02 0 0.97 0.02 0 0.975 0.02 0 0.98 0.02 0 0.985 0.02 0 0.99 0.02 0 0.995 0.02 0 1 0.02 0 0 0.04 0 0.005 0.04 0 0.01 0.04 0 0.015 0.04 0 0.02 0.04 0 0.025 0.04 0 0.03 0.04 0 0.035 0.04 0 0.04 0.04 0 0.045 0.04 0 0.05 0.04 0 0.055 0.04 0 0.06 0.04 0 0.065 0.04 0 0.07 0.04 0 0.075 0.04 0 0.08 0.04 0 0.085 0.04 0 0.09 0.04 0 0.095 0.04 0 0.1 0.04 0 0.105 0.04 0 0.11 0.04 0 0.115 0.04 0 0.12 0.04 0 0.125 0.04 0 0.13 0.04 0 0.135 0.04 0 0.14 0.04 0 0.145 0.04 0 0.15 0.04 0 0.155 0.04 0 0.16 0.04 0 0.165 0.04 0 0.17 0.04 0 0.175 0.04 0 0.18 0.04 0 0.185 0.04 0 0.19 0.04 0 0.195 0.04 0 0.2 0.04 0 0.205 0.04 0 0.21 0.04 0 0.215 0.04 0 0.22 0.04 0 0.225 0.04 0 0.23 0.04 0 0.235 0.04 0 0.24 0.04 0 0.245 0.04 0 0.25 0.04 0 0.255 0.04 0 0.26 0.04 0 0.265 0.04 0 0.27 0.04 0 0.275 0.04 0 0.28 0.04 0 0.285 0.04 0 0.29 0.04 0 0.295 0.04 0 0.3 0.04 0 0.305 0.04 0 0.31 0.04 0 0.315 0.04 0 0.32 0.04 0 0.325 0.04 0 0.33 0.04 0 0.335 0.04 0 0.34 0.04 0 0.345 0.04 0 0.35 0.04 0 0.355 0.04 0 0.36 0.04 0 0.365 0.04 0 0.37 0.04 0 0.375 0.04 0 0.38 0.04 0 0.385 0.04 0 0.39 0.04 0 0.395 0.04 0 0.4 0.04 0 0.405 0.04 0 0.41 0.04 0 0.415 0.04 0 0.42 0.04 0 0.425 0.04 0 0.43 0.04 0 0.435 0.04 0 0.44 0.04 0 0.445 0.04 0 0.45 0.04 0 0.455 0.04 0 0.46 0.04 0 0.465 0.04 0 0.47 0.04 0 0.475 0.04 0 0.48 0.04 0 0.485 0.04 0 0.49 0.04 0 0.495 0.04 0 0.5 0.04 0 0.505 0.04 0 0.51 0.04 0 0.515 0.04 0 0.52 0.04 0 0.525 0.04 0 0.53 0.04 0 0.535 0.04 0 0.54 0.04 0 0.545 0.04 0 0.55 0.04 0 0.555 0.04 0 0.56 0.04 0 0.565 0.04 0 0.57 0.04 0 0.575 0.04 0 0.58 0.04 0 0.585 0.04 0 0.59 0.04 0 0.595 0.04 0 0.6 0.04 0 0.605 0.04 0 0.61 0.04 0 0.615 0.04 0 0.62 0.04 0 0.625 0.04 0 0.63 0.04 0 0.635 0.04 0 0.64 0.04 0 0.645 0.04 0 0.65 0.04 0 0.655 0.04 0 0.66 0.04 0 0.665 0.04 0 0.67 0.04 0 0.675 0.04 0 0.68 0.04 0 0.685 0.04 0 0.69 0.04 0 0.695 0.04 0 0.7 0.04 0 0.705 0.04 0 0.71 0.04 0 0.715 0.04 0 0.72 0.04 0 0.725 0.04 0 0.73 0.04 0 0.735 0.04 0 0.74 0.04 0 0.745 0.04 0 0.75 0.04 0 0.755 0.04 0 0.76 0.04 0 0.765 0.04 0 0.77 0.04 0 0.775 0.04 0 0.78 0.04 0 0.785 0.04 0 0.79 0.04 0 0.795 0.04 0 0.8 0.04 0 0.805 0.04 0 0.81 0.04 0 0.815 0.04 0 0.82 0.04 0 0.825 0.04 0 0.83 0.04 0 0.835 0.04 0 0.84 0.04 0 0.845 0.04 0 0.85 0.04 0 0.855 0.04 0 0.86 0.04 0 0.865 0.04 0 0.87 0.04 0 0.875 0.04 0 0.88 0.04 0 0.885 0.04 0 0.89 0.04 0 0.895 0.04 0 0.9 0.04 0 0.905 0.04 0 0.91 0.04 0 0.915 0.04 0 0.92 0.04 0 0.925 0.04 0 0.93 0.04 0 0.935 0.04 0 0.94 0.04 0 0.945 0.04 0 0.95 0.04 0 0.955 0.04 0 0.96 0.04 0 0.965 0.04 0 0.97 0.04 0 0.975 0.04 0 0.98 0.04 0 0.985 0.04 0 0.99 0.04 0 0.995 0.04 0 1 0.04 0 0 0.06 0 0.005 0.06 0 0.01 0.06 0 0.015 0.06 0 0.02 0.06 0 0.025 0.06 0 0.03 0.06 0 0.035 0.06 0 0.04 0.06 0 0.045 0.06 0 0.05 0.06 0 0.055 0.06 0 0.06 0.06 0 0.065 0.06 0 0.07 0.06 0 0.075 0.06 0 0.08 0.06 0 0.085 0.06 0 0.09 0.06 0 0.095 0.06 0 0.1 0.06 0 0.105 0.06 0 0.11 0.06 0 0.115 0.06 0 0.12 0.06 0 0.125 0.06 0 0.13 0.06 0 0.135 0.06 0 0.14 0.06 0 0.145 0.06 0 0.15 0.06 0 0.155 0.06 0 0.16 0.06 0 0.165 0.06 0 0.17 0.06 0 0.175 0.06 0 0.18 0.06 0 0.185 0.06 0 0.19 0.06 0 0.195 0.06 0 0.2 0.06 0 0.205 0.06 0 0.21 0.06 0 0.215 0.06 0 0.22 0.06 0 0.225 0.06 0 0.23 0.06 0 0.235 0.06 0 0.24 0.06 0 0.245 0.06 0 0.25 0.06 0 0.255 0.06 0 0.26 0.06 0 0.265 0.06 0 0.27 0.06 0 0.275 0.06 0 0.28 0.06 0 0.285 0.06 0 0.29 0.06 0 0.295 0.06 0 0.3 0.06 0 0.305 0.06 0 0.31 0.06 0 0.315 0.06 0 0.32 0.06 0 0.325 0.06 0 0.33 0.06 0 0.335 0.06 0 0.34 0.06 0 0.345 0.06 0 0.35 0.06 0 0.355 0.06 0 0.36 0.06 0 0.365 0.06 0 0.37 0.06 0 0.375 0.06 0 0.38 0.06 0 0.385 0.06 0 0.39 0.06 0 0.395 0.06 0 0.4 0.06 0 0.405 0.06 0 0.41 0.06 0 0.415 0.06 0 0.42 0.06 0 0.425 0.06 0 0.43 0.06 0 0.435 0.06 0 0.44 0.06 0 0.445 0.06 0 0.45 0.06 0 0.455 0.06 0 0.46 0.06 0 0.465 0.06 0 0.47 0.06 0 0.475 0.06 0 0.48 0.06 0 0.485 0.06 0 0.49 0.06 0 0.495 0.06 0 0.5 0.06 0 0.505 0.06 0 0.51 0.06 0 0.515 0.06 0 0.52 0.06 0 0.525 0.06 0 0.53 0.06 0 0.535 0.06 0 0.54 0.06 0 0.545 0.06 0 0.55 0.06 0 0.555 0.06 0 0.56 0.06 0 0.565 0.06 0 0.57 0.06 0 0.575 0.06 0 0.58 0.06 0 0.585 0.06 0 0.59 0.06 0 0.595 0.06 0 0.6 0.06 0 0.605 0.06 0 0.61 0.06 0 0.615 0.06 0 0.62 0.06 0 0.625 0.06 0 0.63 0.06 0 0.635 0.06 0 0.64 0.06 0 0.645 0.06 0 0.65 0.06 0 0.655 0.06 0 0.66 0.06 0 0.665 0.06 0 0.67 0.06 0 0.675 0.06 0 0.68 0.06 0 0.685 0.06 0 0.69 0.06 0 0.695 0.06 0 0.7 0.06 0 0.705 0.06 0 0.71 0.06 0 0.715 0.06 0 0.72 0.06 0 0.725 0.06 0 0.73 0.06 0 0.735 0.06 0 0.74 0.06 0 0.745 0.06 0 0.75 0.06 0 0.755 0.06 0 0.76 0.06 0 0.765 0.06 0 0.77 0.06 0 0.775 0.06 0 0.78 0.06 0 0.785 0.06 0 0.79 0.06 0 0.795 0.06 0 0.8 0.06 0 0.805 0.06 0 0.81 0.06 0 0.815 0.06 0 0.82 0.06 0 0.825 0.06 0 0.83 0.06 0 0.835 0.06 0 0.84 0.06 0 0.845 0.06 0 0.85 0.06 0 0.855 0.06 0 0.86 0.06 0 0.865 0.06 0 0.87 0.06 0 0.875 0.06 0 0.88 0.06 0 0.885 0.06 0 0.89 0.06 0 0.895 0.06 0 0.9 0.06 0 0.905 0.06 0 0.91 0.06 0 0.915 0.06 0 0.92 0.06 0 0.925 0.06 0 0.93 0.06 0 0.935 0.06 0 0.94 0.06 0 0.945 0.06 0 0.95 0.06 0 0.955 0.06 0 0.96 0.06 0 0.965 0.06 0 0.97 0.06 0 0.975 0.06 0 0.98 0.06 0 0.985 0.06 0 0.99 0.06 0 0.995 0.06 0 1 0.06 0 0 0.08 0 0.005 0.08 0 0.01 0.08 0 0.015 0.08 0 0.02 0.08 0 0.025 0.08 0 0.03 0.08 0 0.035 0.08 0 0.04 0.08 0 0.045 0.08 0 0.05 0.08 0 0.055 0.08 0 0.06 0.08 0 0.065 0.08 0 0.07 0.08 0 0.075 0.08 0 0.08 0.08 0 0.085 0.08 0 0.09 0.08 0 0.095 0.08 0 0.1 0.08 0 0.105 0.08 0 0.11 0.08 0 0.115 0.08 0 0.12 0.08 0 0.125 0.08 0 0.13 0.08 0 0.135 0.08 0 0.14 0.08 0 0.145 0.08 0 0.15 0.08 0 0.155 0.08 0 0.16 0.08 0 0.165 0.08 0
[...]
			<PointData Scalars="VitesseX">
				<DataArray Name="VitesseX" type="Float32" format="ascii">
 0 1.00207e-14 -4.10822e-16 2.13281e-14 -2.69798e-14 -7.97111e-14 -5.31618e-14 5.53485e-16 -7.76828e-14 5.43384e-14 3.91174e-14 -2.26663e-13 8.66697e-14 -1.66724e-13 -5.9408e-14 2.68324e-14 -1.42283e-13 7.57244e-14 -8.70762e-14 -5.70355e-14 -1.07807e-13 -3.58479e-14 9.14102e-14 -2.77884e-13 -1.34593e-13 1.82177e-13 6.6577e-14 2.58376e-13 -4.25211e-13 9.2857e-14 -3.12461e-13 -5.6386e-14 9.67167e-14 -1.9994e-13 1.34785e-13 -1.75669e-13 4.66779e-13 -1.08551e-12 6.85198e-13 -3.09611e-13 -5.93582e-14 -9.20491e-14 3.752e-14 1.12406e-13 1.26019e-13 -2.02231e-13 3.37938e-13 -1.07486e-12 -7.39359e-14 -7.50961e-14 7.70501e-14 -1.88783e-13 -8.45766e-13 1.32929e-12 2.00155e-13 1.85345e-13 -2.60103e-13 -4.37698e-13 9.01965e-13 -5.33997e-13 -2.69024e-13 -5.78928e-13 2.20194e-14 -2.06264e-13 -4.10701e-13 4.33465e-14 5.99637e-13 3.70718e-13 6.24584e-13 -6.75609e-13 -3.09939e-13 5.36519e-13 -2.72941e-13 -3.79862e-13 -9.61473e-13 -3.50317e-13 5.59329e-13 1.36801e-13 -3.07492e-13 3.39429e-12 4.74727e-11 7.27653e-10 9.99808e-09 1.20651e-07 1.26591e-06 1.13991e-05 8.66781e-05 0.000545346 0.00276901 0.0110482 0.0339932 0.0812828 0.156423 0.253063 0.356906 0.45837 0.555822 0.647472 0.731199 0.805212 0.867369 0.914816 0.943299 0.941662 0.938133 0.940079 0.938192 0.901916 0.93773 0.938126 0.933134 0.920367 0.883966 0.806889 0.690446 0.543613 0.384463 0.236935 0.123271 0.0532245 0.0195886 0.00649488 0.00201838 0.000599795 0.000171714 4.74729e-05 1.26832e-05 3.2755e-06 8.17859e-07 1.97488e-07 4.61306e-08 1.04279e-08 2.28144e-09 4.82404e-10 9.92166e-11 1.94441e-11 4.52522e-12 5.65091e-13 -6.35973e-13 7.61761e-13 -8.39868e-13 -1.40208e-13 1.55601e-12 -1.30265e-12 -7.66298e-13 3.48332e-13 3.39831e-13 6.65295e-13 -4.33212e-13 -6.39754e-13 1.62562e-12 -3.56879e-13 1.1141e-12 -8.70876e-13 -8.87877e-14 -4.57894e-13 1.15253e-12 -1.86647e-14 -1.23568e-12 -1.25402e-12 4.64455e-13 1.27855e-12 -2.63589e-13 -2.07168e-12 7.42273e-14 1.11184e-12 4.01322e-13 -1.67927e-13 -7.50977e-13 9.05472e-13 -6.89858e-13 2.41541e-13 1.21738e-12 -6.88602e-13 1.22083e-12 -1.28945e-12 5.9728e-14 4.99138e-13 2.71028e-13 5.40296e-13 -1.61681e-12 -4.85453e-13 -2.72321e-15 2.4116e-13 -2.94754e-13 -6.78383e-13 -1.5518e-12 1.57434e-12 3.61165e-13 6.42769e-13 -2.22329e-12 1.03357e-13 2.22757e-12 -1.05063e-12 -1.79066e-12 -1.59129e-12 1.06444e-12 1.91732e-12 -1.85329e-12 -1.68522e-12 0 0 -5.74928e-15 -3.49378e-15 -3.77515e-14 -3.50305e-14 -1.36499e-15 -4.06823e-14 -8.26211e-14 -2.8676e-14 -1.10787e-13 -1.10904e-13 1.26096e-13 -1.64835e-13 -1.1149e-14 -1.16084e-13 -3.08506e-14 5.54164e-14 -2.24945e-13 4.57622e-14 -3.79683e-14 -3.70468e-14 -1.76905e-14 -2.08954e-13 -2.78273e-14 -1.38975e-14 6.92119e-14 6.2945e-14 -1.4258e-13 1.8805e-13 -1.02014e-13 9.86449e-15 -2.48207e-13 -2.24e-13 8.72711e-14 -2.03822e-13 4.0529e-14 -5.45261e-13 6.84462e-13 -5.70531e-13 1.27891e-13 -9.772e-14 -6.78239e-14 5.42193e-14 2.30287e-14 -2.19521e-13 -2.82017e-14 -4.41422e-13 2.83167e-13 -6.41238e-13 -3.06591e-13 -4.57206e-13 2.08091e-13 6.71115e-13 -4.90385e-13 2.25692e-13 2.24546e-13 3.84859e-13 7.46827e-14 -5.86295e-13 2.85758e-13 -1.21796e-13 -5.38182e-15 -6.6206e-13 -2.9513e-14 8.89987e-14 1.31938e-13 4.44354e-14 8.80053e-14 -4.20144e-13 6.10532e-13 5.7776e-14 -3.5824e-13 -3.89549e-13 -3.395e-13 8.87282e-14 -3.65681e-13 -5.49459e-13 1.60547e-13 8.52842e-13 2.96925e-12 4.72264e-11 7.28547e-10 9.99737e-09 1.20651e-07 1.26591e-06 1.13991e-05 8.66781e-05 0.000545346 0.00276901 0.0110482 0.0339932 0.0812828 0.156423 0.253063 0.356906 0.45837 0.555822 0.647472 0.731199 0.805212 0.867369 0.914816 0.9433 0.941662 0.938133 0.940079 0.938191 0.901916 0.93773 0.938126 0.933134 0.920367 0.883966 0.806889 0.690446 0.543613 0.384463 0.236935 0.123271 0.0532245 0.0195886 0.00649488 0.00201838 0.000599795 0.000171714 4.74729e-05 1.26832e-05 3.2755e-06 8.17861e-07 1.97488e-07 4.61308e-08 1.04267e-08 2.28125e-09 4.83687e-10 9.89279e-11 2.00109e-11 2.93403e-12 8.43491e-13 4.87846e-13 -8.49832e-13 2.64609e-13 2.5862e-13 -9.71086e-13 5.24299e-13 8.09254e-13 -5.46955e-13 -2.63268e-13 -6.26994e-13 9.04238e-13 8.46441e-13 -5.25448e-13 4.21367e-13 -4.87212e-13 1.1112e-12 -2.55843e-13 2.40392e-13 -9.62003e-13 -1.09369e-13 2.76102e-13 2.55923e-13 -4.75493e-13 -1.56836e-12 -1.92415e-13 1.30394e-12 4.44811e-13 -6.1326e-13 -9.92342e-13 8.10565e-14 6.88678e-13 -3.36247e-13 5.03876e-13 7.19047e-13 -5.38781e-13 3.70922e-13 -1.02792e-12 1.15678e-12 3.2514e-13 2.60771e-13 -5.55656e-13 -1.03487e-12 7.25847e-13 -2.09434e-13 -4.29364e-13 -9.45121e-13 -2.77513e-13 3.14533e-15 3.26734e-13 -7.58181e-13 -3.21641e-13 -4.74712e-13 1.1229e-12 -2.46522e-13 -1.35426e-12 1.84487e-13 9.74646e-13 -1.68834e-13 -1.22573e-12 -1.50594e-12 6.78977e-13 8.50994e-13 0 0 -1.6863e-14 -1.12504e-15 3.5119e-15 -5.48078e-14 -7.11505e-14 -4.71924e-14 -8.16223e-14 -1.10965e-13 -5.88568e-14 -1.0688e-13 -1.11247e-13 8.67603e-14 -3.39341e-14 -7.55137e-14 1.18684e-15 -6.47883e-14 -2.3165e-14 -4.14945e-14 -9.56322e-14 -6.55923e-14 -6.41587e-14 1.52938e-14 -1.83339e-13 1.07634e-14 6.35041e-14 -1.1845e-14 -6.11133e-14 -1.05981e-13 7.52503e-15 -1.70998e-13 -5.56227e-14 -2.9955e-14 -1.89186e-13 -4.20867e-14 -2.14624e-13 -4.84714e-14 -8.52315e-14 1.91155e-13 -1.75471e-13 -8.01491e-15 -8.87893e-14 -6.19178e-14 -3.64814e-14 -2.30264e-13 -3.87733e-13 -1.69221e-13 -1.96223e-13 3.98351e-13 -2.62095e-13 -1.38535e-13 1.05449e-13 -1.33086e-13 2.2379e-13 1.07266e-13 2.96684e-14 1.94613e-13 -3.1707e-13 -8.77245e-14 1.59949e-14 3.31186e-13 -3.72476e-13 -3.5007e-13 2.27977e-14 -1.78287e-14 1.80722e-13 -9.04346e-14 -1.01573e-13 4.66418e-14 1.10867e-13 -8.36678e-14 1.41589e-13 -3.45709e-13 -6.67435e-14 -2.66122e-13 -3.11594e-13 2.84943e-14 -1.08367e-13 7.10833e-13 3.0495e-12 4.69575e-11 7.28002e-10 9.99712e-09 1.20651e-07 1.26592e-06 1.13991e-05 8.66781e-05 0.000545346 0.00276901 0.0110482 0.0339932 0.0812828 0.156423 0.253063 0.356906 0.45837 0.555822 0.647472 0.731199 0.805212 0.867369 0.914816 0.943299 0.941662 0.938133 0.940079 0.938191 0.901916 0.93773 0.938126 0.933134 0.920367 0.883966 0.806889 0.690446 0.543613 0.384463 0.236935 0.123271 0.0532245 0.0195886 0.00649488 0.00201838 0.000599795 0.000171714 4.74729e-05 1.26832e-05 3.2755e-06 8.1786e-07 1.97488e-07 4.61304e-08 1.04272e-08 2.28141e-09 4.83155e-10 9.92506e-11 1.92414e-11 4.00657e-12 5.64104e-13 -6.84063e-13 3.34052e-14 -4.54891e-13 2.8378e-13 1.79047e-13 -2.31344e-13 4.02754e-13 7.6104e-13 -2.29981e-13 3.00948e-13 -6.28816e-13 -1.40486e-13 5.35103e-13 2.51668e-13 6.72625e-13 -6.4505e-13 4.78573e-13 -3.33441e-13 -2.50741e-13 -7.26433e-13 -1.60364e-13 6.78452e-14 -2.7968e-13 8.11608e-14 -4.22048e-13 1.05744e-13 -1.40164e-13 -6.88218e-13 2.56027e-13 5.63897e-13 -1.93881e-13 -1.49124e-13 -4.88769e-13 2.78498e-13 6.32981e-13 5.55851e-14 -7.20997e-14 -2.50891e-13 -8.89526e-14 7.61048e-13 2.55661e-13 -2.78781e-13 -6.16307e-13 -2.2701e-13 -4.66667e-13 -6.33431e-13 2.94277e-14 -7.50162e-13 3.00696e-13 -7.19715e-14 -6.2383e-13 9.14228e-14 -2.0756e-13 2.73111e-13 -1.67106e-13 -6.6354e-13 1.37695e-13 2.13718e-13 -1.2536e-13 -6.25432e-13 -5.31124e-13 -2.67729e-13 0 0 7.88546e-15 1.12992e-14 -3.97399e-14 -5.3204e-14 -8.51467e-14 -9.7817e-14 -1.277e-13 -1.58918e-13 -2.69952e-14 6.44007e-14 -9.48065e-14 9.93859e-14 -1.05214e-13 -1.00242e-13 -9.28411e-14 -1.08227e-13 1.16688e-14 -2.81844e-14 -1.28391e-13 -2.25911e-13 8.26824e-15 1.25553e-13 -1.15334e-13 -4.57217e-14 9.76729e-14 1.83454e-13 -2.0609e-13 -4.08325e-13 -1.08479e-13 4.47799e-14 1.00284e-15 3.96941e-14 6.38976e-14 2.25055e-14 2.9195e-14 1.84689e-13 -4.81755e-13 3.09901e-13 -1.39203e-14 -3.61649e-13 -4.59237e-13 -4.26116e-14 6.00513e-14 1.52543e-13 -1.42635e-13 3.98166e-14 -4.83386e-13 7.40163e-14 1.747e-13 5.37747e-14 -3.69601e-13 1.03884e-13 2.78945e-13 3.21556e-13 7.16736e-14 -6.78662e-13 1.32298e-13 1.12333e-13 -4.91624e-13 -2.2626e-13 -4.14844e-13 -4.04616e-13 -2.51079e-13 -9.37017e-14 4.81629e-13 6.19191e-13 2.61758e-13 4.73601e-13 -1.84829e-13 -1.10769e-13 1.42631e-13 -1.05227e-13 -1.19602e-13 -9.70446e-14 -5.32662e-13 -3.54732e-13 -1.33163e-13 1.41563e-13 3.37666e-12 4.69701e-11 7.2803e-10 9.99772e-09 1.20651e-07 1.26592e-06 1.13991e-05 8.66782e-05 0.000545346 0.00276901 0.0110482 0.0339932 0.0812828 0.156423 0.253063 0.356906 0.45837 0.555822 0.647472 0.731199 0.805212 0.867369 0.914816 0.943299 0.941662 0.938133 0.940079 0.938192 0.901916 0.93773 0.938126 0.933134 0.920367 0.883966 0.806889 0.690446 0.543613 0.384463 0.236935 0.123271 0.0532245 0.0195886 0.00649488 0.00201838 0.000599795 0.000171714 4.74729e-05 1.26832e-05 3.2755e-06 8.1786e-07 1.97488e-07 4.61306e-08 1.04275e-08 2.2815e-09 4.82872e-10 9.90021e-11 1.93254e-11 3.8141e-12 3.073e-13 3.4977e-14 3.33603e-13 -4.61769e-13 -1.00989e-13 6.78949e-13 -5.00988e-14 1.71173e-14 5.61112e-13 8.01995e-13 3.60695e-13 -4.80881e-13 -1.41696e-13 7.06738e-13 -5.36579e-13 3.17721e-13 -7.69119e-13 -9.04033e-14 4.51433e-13 -5.36062e-14 -2.95558e-13 -1.26013e-12 -1.0927e-12 -5.01082e-13 2.78406e-13 2.12562e-13 -7.39144e-13 -3.33994e-13 4.82833e-13 -2.68752e-13 -9.64464e-13 -1.48215e-14 7.12377e-13 2.05408e-13 6.54924e-13 -1.49499e-13 3.09417e-13 7.55282e-13 -1.2465e-12 -2.01316e-13 -7.55548e-14 7.39497e-13 7.80086e-13 -9.26067e-13 -3.00333e-13 -1.18629e-12 3.34111e-13 1.56029e-13 -4.82373e-13 -5.50665e-13 9.20361e-14 3.12508e-13 7.33729e-13 -1.01166e-12 -2.87081e-14 1.01851e-12 1.71849e-13 -6.47191e-13 -6.45687e-13 1.01578e-12 3.50494e-13 -1.21752e-12 -1.85905e-12 0 0 -4.35485e-16 1.95669e-15 -6.8097e-14 -5.34612e-14 -7.11405e-14 -1.14075e-13 -1.65996e-13 -1.04871e-13 -5.74766e-14 9.77114e-15 1.48926e-13 -1.3138e-13 -2.68073e-14 -1.27159e-13 -1.23537e-13 4.12129e-14 -2.23752e-13 -3.70048e-14 -6.12948e-14 -1.54971e-13 -5.94346e-14 -1.69857e-13 -1.03169e-13 2.953e-14 -1.61154e-13 -1.52263e-14 -1.95422e-13 2.40039e-14 -7.89965e-14 1.84895e-13 5.83346e-14 6.15959e-14 4.13169e-13 -6.65802e-14 1.37613e-13 -1.97703e-13 5.5516e-13 -6.76134e-13 4.62179e-14 -4.14522e-13 -4.57422e-13 -1.85122e-15 -4.89382e-14 -1.00637e-13 -1.60269e-14 -2.76503e-13 1.73771e-13 -6.33019e-13 -1.7326e-13 -2.9398e-13 5.12814e-14 7.1361e-13 -6.0814e-13 2.69142e-13 2.43129e-13 -6.55389e-14 4.68008e-13 -5.23113e-13 -3.31147e-13 -5.93316e-13 -1.7164e-13 -5.69436e-13 -1.68304e-13 1.5038e-13 6.32913e-13 6.17577e-13 4.6085e-13 -2.04953e-14 7.44402e-13 -1.28108e-13 -6.53738e-13 -2.66048e-13 -3.29921e-13 4.51116e-13 -8.94752e-14 -7.5062e-13 6.67951e-15 4.50925e-13 3.03926e-12 4.70071e-11 7.2855e-10 9.99755e-09 1.20651e-07 1.26592e-06 1.13991e-05 8.66782e-05 0.000545346 0.00276901 0.0110482 0.0339932 0.0812828 0.156423 0.253063 0.356906 0.45837 0.555822 0.647472 0.731199 0.805212 0.867369 0.914816 0.9433 0.941662 0.938133 0.940079 0.938192 0.901916 0.93773 0.938126 0.933134 0.920367 0.883966 0.806889 0.690446 0.543613 0.384463 0.236935 0.123271 0.0532245 0.0195886 0.00649488 0.00201838 0.000599795 0.000171714 4.74729e-05 1.26832e-05 3.2755e-06 8.17861e-07 1.97488e-07 4.61306e-08 1.04269e-08 2.28119e-09 4.83639e-10 9.85852e-11 2.01567e-11 2.66775e-12 6.57739e-13 1.09063e-12 -7.9531e-13 3.20338e-13 4.14247e-13 -2.44106e-13 1.0305e-12 7.19167e-13 -4.89375e-13 1.74679e-13 -2.15843e-13 1.24767e-12 1.23578e-12 -9.7063e-13 3.83327e-13 -1.06656e-12 5.7297e-13 -9.71002e-13 2.6936e-13 -1.22586e-12 -2.93366e-13 -6.912e-13 -9.15475e-13 -1.57254e-12 -1.52609e-12 1.22197e-12 1.30692e-12 9.80349e-13 -3.84061e-13 -1.42205e-12 -8.58251e-13 7.16505e-13 2.3991e-13 4.69925e-13 2.78249e-13 -1.2955e-12 6.80338e-13 -4.57194e-13 6.47346e-13 2.03472e-13 -2.6298e-13 -1.36675e-13 -3.0393e-13 6.37094e-13 -6.68693e-13 -1.22389e-12 -5.1369e-13 7.104e-14 2.87187e-13 2.93448e-13 -8.3979e-14 2.58775e-13 -6.68567e-13 3.36971e-13 -1.94465e-13 -6.31265e-13 1.23278e-12 5.40078e-13 -3.40089e-13 -7.75972e-13 -1.34512e-12 1.2605e-15 5.97425e-14 0 0 -2.88487e-14 -1.43584e-14 4.71406e-14 -6.70488e-14 -1.9127e-13 -9.86972e-14 -7.40396e-14 -1.34168e-13 9.72351e-14 -6.20932e-14 -2.13885e-13 1.28328e-13 -5.54814e-14 -3.21011e-14 2.95155e-14 -8.38122e-14 8.44229e-15 -2.7923e-13 -3.81702e-14 -2.3018e-14 -2.6419e-13 -5.0915e-14 -5.64578e-13 6.5232e-14 -3.46893e-13 -4.80364e-13 4.42644e-13 -1.48614e-13 3.709e-13 -3.93956e-13 4.43446e-13 5.2861e-13 -5.43123e-14 2.80083e-13 -4.6914e-13 6.95576e-13 -5.51066e-13 2.365e-13 -7.9606e-13 1.43068e-14 -1.30349e-13 -1.13233e-13 -2.24594e-13 -4.01827e-13 -6.68077e-13 2.49702e-13 -7.19322e-13 5.91171e-13 -6.82023e-13 1.8882e-14 4.47697e-13 -1.23472e-12 9.83468e-13 -1.41524e-13 1.385e-13 5.85651e-13 -5.49784e-13 6.28216e-13 -7.5257e-13 -9.7171e-14 -8.26709e-13 3.16361e-13 6.39087e-14 -1.36192e-13 4.43481e-13 3.26668e-13 3.89744e-13 5.69963e-13 1.83523e-13 -6.27504e-13 -5.65615e-14 -5.06903e-13 -2.54989e-13 -5.74852e-13 6.44231e-13 9.23461e-13 -1.21343e-13 2.72155e-14 2.87998e-12 4.70089e-11 7.27605e-10 9.99724e-09 1.20653e-07 1.26592e-06 1.13991e-05 8.66782e-05 0.000545346 0.00276901 0.0110482 0.0339932 0.0812828 0.156423 0.253063 0.356906 0.45837 0.555822 0.647472 0.731199 0.805212 0.867369 0.914816 0.943299 0.941662 0.938133 0.940079 0.938191 0.901916 0.93773 0.938126 0.933134 0.920367 0.883966 0.806889 0.690446 0.543613 0.384463 0.236935 0.123271 0.0532245 0.0195886 0.00649488 0.00201838 0.000599795 0.000171714 4.74729e-05 1.26832e-05 3.2755e-06 8.1786e-07 1.97488e-07 4.61299e-08 1.04276e-08 2.28116e-09 4.82875e-10 9.9028e-11 1.95677e-11 4.37761e-12 7.07194e-13 -8.68477e-13 2.70409e-13 -7.14654e-13 9.40583e-13 2.01016e-12 -6.52741e-13 -1.752e-13 8.63348e-13 -8.48228e-13 1.3681e-12 -4.22095e-14 1.41338e-13 3.91989e-13 1.14353e-12 6.65223e-13 -1.6992e-12 -3.81151e-13 -1.9697e-12 2.30542e-13 -1.24841e-12 -9.70759e-13 -1.27572e-12 -1.28683e-12 9.68588e-13 1.29597e-12 -3.75945e-13 1.53296e-12 -7.71861e-13 5.91474e-13 1.01018e-12 -1.05344e-12 3.34782e-13 -2.14611e-12 -1.39291e-12 1.26891e-12 -5.77434e-13 7.07509e-13 -3.17096e-13 4.11182e-14 1.12484e-12 1.41319e-13 -1.15555e-13 -1.1748e-12 -1.25732e-12 -1.52532e-13 -8.31062e-13 1.49149e-13 -6.45877e-13 8.43458e-14 2.59473e-12 -3.50679e-13 -1.02955e-12 -2.18694e-12 8.11109e-13 1.30233e-12 -6.24825e-13 -1.09002e-12 -2.14991e-13 -3.1833e-13 2.87109e-13 -1.83594e-12 -8.50759e-14 0
				</DataArray>
				<DataArray Name="VitesseY" type="Float32" format="ascii">