<?xml version="1.0"?>
<VTKFile type="PolyData">
	<PolyData>
		<Piece NumberOfPoints="1206" NumberOfPolys="1000">
			<Points>
				<DataArray type="Float32" NumberOfComponents="3" format="ascii">
 0 0 0 0.005 0 0 0.01 0 0 0.015 0 0 0.02 0 0 0.025 0 0 0.03 0 0 0.035 0 0 0.04 0 0 0.045 0 0 0.05 0 0 0.055 0 0 0.06 0 0 0.065 0 0 0.07 0 0 0.075 0 0 0.08 0 0 0.085 0 0 0.09 0 0 0.095 0 0 0.1 0 0 0.105 0 0 0.11 0 0 0.115 0 0 0.12 0 0 0.125 0 0 0.13 0 0 0.135 0 0 0.14 0 0 0.145 0 0 0.15 0 0 0.155 0 0 0.16 0 0 0.165 0 0 0.17 0 0 0.175 0 0 0.18 0 0 0.185 0 0 0.19 0 0 0.195 0 0 0.2 0 0 0.205 0 0 0.21 0 0 0.215 0 0 0.22 0 0 0.225 0 0 0.23 0 0 0.235 0 0 0.24 0 0 0.245 0 0 0.25 0 0 0.255 0 0 0.26 0 0 0.265 0 0 0.27 0 0 0.275 0 0 0.28 0 0 0.285 0 0 0.29 0 0 0.295 0 0 0.3 0 0 0.305 0 0 0.31 0 0 0.315 0 0 0.32 0 0 0.325 0 0 0.33 0 0 0.335 0 0 0.34 0 0 0.345 0 0 0.35 0 0 0.355 0 0 0.36 0 0 0.365 0 0 0.37 0 0 0.375 0 0 0.38 0 0 0.385 0 0 0.39 0 0 0.395 0 0 0.4 0 0 0.405 0 0 0.41 0 0 0.415 0 0 0.42 0 0 0.425 0 0 0.43 0 0 0.435 0 0 0.44 0 0 0.445 0 0 0.45 0 0 0.455 0 0 0.46 0 0 0.465 0 0 0.47 0 0 0.475 0 0 0.48 0 0 0.485 0 0 0.49 0 0 0.495 0 0 0.5 0 0 0.505 0 0 0.51 0 0 0.515 0 0 0.52 0 0 0.525 0 0 0.53 0 0 0.535 0 0 0.54 0 0 0.545 0 0 0.55 0 0 0.555 0 0 0.56 0 0 0.565 0 0 0.57 0 0 0.575 0 0 0.58 0 0 0.585 0 0 0.59 0 0 0.595 0 0 0.6 0 0 0.605 0 0 0.61 0 0 0.615 0 0 0.62 0 0 0.625 0 0 0.63 0 0 0.635 0 0 0.64 0 0 0.645 0 0 0.65 0 0 0.655 0 0 0.66 0 0 0.665 0 0 0.67 0 0 0.675 0 0 0.68 0 0 0.685 0 0 0.69 0 0 0.695 0 0 0.7 0 0 0.705 0 0 0.71 0 0 0.715 0 0 0.72 0 0 0.725 0 0 0.73 0 0 0.735 0 0 0.74 0 0 0.745 0 0 0.75 0 0 0.755 0 0 0.76 0 0 0.765 0 0 0.77 0 0 0.775 0 0 0.78 0 0 0.785 0 0 0.79 0 0 0.795 0 0 0.8 0 0 0.805 0 0 0.81 0 0 0.815 0 0 0.82 0 0 0.825 0 0 0.83 0 0 0.835 0 0 0.84 0 0 0.845 0 0 0.85 0 0 0.855 0 0 0.86 0 0 0.865 0 0 0.87 0 0 0.875 0 0 0.88 0 0 0.885 0 0 0.89 0 0 0.895 0 0 0.9 0 0 0.905 0 0 0.91 0 0 0.915 0 0 0.92 0 0 0.925 0 0 0.93 0 0 0.935 0 0 0.94 0 0 0.945 0 0 0.95 0 0 0.955 0 0 0.96 0 0 0.965 0 0 0.97 0 0 0.975 0 0 0.98 0 0 0.985 0 0 0.99 0 0 0.995 0 0 1 0 0 0 0.02 0 0.005 0.02 0 0.01 0.02 0 0.015 0.02 0 0.02 0.02 0 0.025 0.02 0 0.03 0.02 0 0.035 0.02 0 0.04 0.02 0 0.045 0.02 0 0.05 0.02 0 0.055 0.02 0 0.06 0.02 0 0.065 0.02 0 0.07 0.02 0 0.075 0.02 0 0.08 0.02 0 0.085 0.02 0 0.09 0.02 0 0.095 0.02 0 0.1 0.02 0 0.105 0.02 0 0.11 0.02 0 0.115 0.02 0 0.12 0.02 0 0.125 0.02 0 0.13 0.02 0 0.135 0.02 0 0.14 0.02 0 0.145 0.02 0 0.15 0.02 0 0.155 0.02 0 0.16 0.02 0 0.165 0.02 0 0.17 0.02 0 0.175 0.02 0 0.18 0.02 0 0.185 0.02 0 0.19 0.02 0 0.195 0.02 0 0.2 0.02 0 0.205 0.02 0 0.21 0.02 0 0.215 0.02 0 0.22 0.02 0 0.225 0.02 0 0.23 0.02 0 0.235 0.02 0 0.24 0.02 0 0.245 0.02 0 0.25 0.02 0 0.255 0.02 0 0.26 0.02 0 0.265 0.02 0 0.27 0.02 0 0.275 0.02 0 0.28 0.02 0 0.285 0.02 0 0.29 0.02 0 0.295 0.02 0 0.3 0.02 0 0.305 0.02 0 0.31 0.02 0 0.315 0.02 0 0.32 0.02 0 0.325 0.02 0 0.33 0.02 0 0.335 0.02 0 0.34 0.02 0 0.345 0.02 0 0.35 0.02 0 0.355 0.02 0 0.36 0.02 0 0.365 0.02 0 0.37 0.02 0 0.375 0.02 0 0.38 0.02 0 0.385 0.02 0 0.39 0.02 0 0.395 0.02 0 0.4 0.02 0 0.405 0.02 0 0.41 0.02 0 0.415 0.02 0 0.42 0.02 0 0.425 0.02 0 0.43 0.02 0 0.435 0.02 0 0.44 0.02 0 0.445 0.02 0 0.45 0.02 0 0.455 0.02 0 0.46 0.02 0 0.465 0.02 0 0.47 0.02 0 0.475 0.02 0 0.48 0.02 0 0.485 0.02 0 0.49 0.02 0 0.495 0.02 0 0.5 0.02 0 0.505 0.02 0 0.51 0.02 0 0.515 0.02 0 0.52 0.02 0 0.525 0.02 0 0.53 0.02 0 0.535 0.02 0 0.54 0.02 0 0.545 0.02 0 0.55 0.02 0 0.555 0.02 0 0.56 0.02 0 0.565 0.02 0 0.57 0.02 0 0.575 0.02 0 0.58 0.02 0 0.585 0.02 0 0.59 0.02 0 0.595 0.02 0 0.6 0.02 0 0.605 0.02 0 0.61 0.02 0 0.615 0.02 0 0.62 0.02 0 0.625 0.02 0 0.63 0.02 0 0.635 0.02 0 0.64 0.02 0 0.645 0.02 0 0.65 0.02 0 0.655 0.02 0 0.66 0.02 0 0.665 0.02 0 0.67 0.02 0 0.675 0.02 0 0.68 0.02 0 0.685 0.02 0 0.69 0.02 0 0.695 0.02 0 0.7 0.02 0 0.705 0.02 0 0.71 0.02 0 0.715 0.02 0 0.72 0.02 0 0.725 0.02 0 0.73 0.02 0 0.735 0.02 0 0.74 0.02 0 0.745 0.02 0 0.75 0.02 0 0.755 0.02 0 0.76 0.02 0 0.765 0.02 0 0.77 0.02 0 0.775 0.02 0 0.78 0.02 0 0.785 0.02 0 0.79 0.02 0 0.795 0.02 0 0.8 0.02 0 0.805 0.02 0 0.81 0.02 0 0.815 0.02 0 0.82 0.02 0 0.825 0.02 0 0.83 0.02 0 0.835 0.02 0 0.84 0.02 0 0.845 0.02 0 0.85 0.02 0 0.855 0.02 0 0.86 0.02 0 0.865 0.02 0 0.87 0.02 0 0.875 0.02 0 0.88 0.02 0 0.885 0.02 0 0.89 0.02 0 0.895 0.02 0 0.9 0.02 0 0.905 0.02 0 0.91 0.02 0 0.915 0.02 0 0.92 0.02 0 0.925 0.02 0 0.93 0.02 0 0.935 0.02 0 0.94 0.02 0 0.945 0.02 0 0.95 0.02 0 0.955 0.02 0 0.96 0.02 0 0.965 0.02 0 0.97 0.02 0 0.975 0.02 0 0.98 0.02 0 0.985 0.02 0 0.99 0.02 0 0.995 0.02 0 1 0.02 0 0 0.04 0 0.005 0.04 0 0.01 0.04 0 0.015 0.04 0 0.02 0.04 0 0.025 0.04 0 0.03 0.04 0 0.035 0.04 0 0.04 0.04 0 0.045 0.04 0 0.05 0.04 0 0.055 0.04 0 0.06 0.04 0 0.065 0.04 0 0.07 0.04 0 0.075 0.04 0 0.08 0.04 0 0.085 0.04 0 0.09 0.04 0 0.095 0.04 0 0.1 0.04 0 0.105 0.04 0 0.11 0.04 0 0.115 0.04 0 0.12 0.04 0 0.125 0.04 0 0.13 0.04 0 0.135 0.04 0 0.14 0.04 0 0.145 0.04 0 0.15 0.04 0 0.155 0.04 0 0.16 0.04 0 0.165 0.04 0 0.17 0.04 0 0.175 0.04 0 0.18 0.04 0 0.185 0.04 0 0.19 0.04 0 0.195 0.04 0 0.2 0.04 0 0.205 0.04 0 0.21 0.04 0 0.215 0.04 0 0.22 0.04 0 0.225 0.04 0 0.23 0.04 0 0.235 0.04 0 0.24 0.04 0 0.245 0.04 0 0.25 0.04 0 0.255 0.04 0 0.26 0.04 0 0.265 0.04 0 0.27 0.04 0 0.275 0.04 0 0.28 0.04 0 0.285 0.04 0 0.29 0.04 0 0.295 0.04 0 0.3 0.04 0 0.305 0.04 0 0.31 0.04 0 0.315 0.04 0 0.32 0.04 0 0.325 0.04 0 0.33 0.04 0 0.335 0.04 0 0.34 0.04 0 0.345 0.04 0 0.35 0.04 0 0.355 0.04 0 0.36 0.04 0 0.365 0.04 0 0.37 0.04 0 0.375 0.04 0 0.38 0.04 0 0.385 0.04 0 0.39 0.04 0 0.395 0.04 0 0.4 0.04 0 0.405 0.04 0 0.41 0.04 0 0.415 0.04 0 0.42 0.04 0 0.425 0.04 0 0.43 0.04 0 0.435 0.04 0 0.44 0.04 0 0.445 0.04 0 0.45 0.04 0 0.455 0.04 0 0.46 0.04 0 0.465 0.04 0 0.47 0.04 0 0.475 0.04 0 0.48 0.04 0 0.485 0.04 0 0.49 0.04 0 0.495 0.04 0 0.5 0.04 0 0.505 0.04 0 0.51 0.04 0 0.515 0.04 0 0.52 0.04 0 0.525 0.04 0 0.53 0.04 0 0.535 0.04 0 0.54 0.04 0 0.545 0.04 0 0.55 0.04 0 0.555 0.04 0 0.56 0.04 0 0.565 0.04 0 0.57 0.04 0 0.575 0.04 0 0.58 0.04 0 0.585 0.04 0 0.59 0.04 0 0.595 0.04 0 0.6 0.04 0 0.605 0.04 0 0.61 0.04 0 0.615 0.04 0 0.62 0.04 0 0.625 0.04 0 0.63 0.04 0 0.635 0.04 0 0.64 0.04 0 0.645 0.04 0 0.65 0.04 0 0.655 0.04 0 0.66 0.04 0 0.665 0.04 0 0.67 0.04 0 0.675 0.04 0 0.68 0.04 0 0.685 0.04 0 0.69 0.04 0 0.695 0.04 0 0.7 0.04 0 0.705 0.04 0 0.71 0.04 0 0.715 0.04 0 0.72 0.04 0 0.725 0.04 0 0.73 0.04 0 0.735 0.04 0 0.74 0.04 0 0.745 0.04 0 0.75 0.04 0 0.755 0.04 0 0.76 0.04 0 0.765 0.04 0 0.77 0.04 0 0.775 0.04 0 0.78 0.04 0 0.785 0.04 0 0.79 0.04 0 0.795 0.04 0 0.8 0.04 0 0.805 0.04 0 0.81 0.04 0 0.815 0.04 0 0.82 0.04 0 0.825 0.04 0 0.83 0.04 0 0.835 0.04 0 0.84 0.04 0 0.845 0.04 0 0.85 0.04 0 0.855 0.04 0 0.86 0.04 0 0.865 0.04 0 0.87 0.04 0 0.875 0.04 0 0.88 0.04 0 0.885 0.04 0 0.89 0.04 0 0.895 0.04 0 0.9 0.04 0 0.905 0.04 0 0.91 0.04 0 0.915 0.04 0 0.92 0.04 0 0.925 0.04 0 0.93 0.04 0 0.935 0.04 0 0.94 0.04 0 0.945 0.04 0 0.95 0.04 0 0.955 0.04 0 0.96 0.04 0 0.965 0.04 0 0.97 0.04 0 0.975 0.04 0 0.98 0.04 0 0.985 0.04 0 0.99 0.04 0 0.995 0.04 0 1 0.04 0 0 0.06 0 0.005 0.06 0 0.01 0.06 0 0.015 0.06 0 0.02 0.06 0 0.025 0.06 0 0.03 0.06 0 0.035 0.06 0 0.04 0.06 0 0.045 0.06 0 0.05 0.06 0 0.055 0.06 0 0.06 0.06 0 0.065 0.06 0 0.07 0.06 0 0.075 0.06 0 0.08 0.06 0 0.085 0.06 0 0.09 0.06 0 0.095 0.06 0 0.1 0.06 0 0.105 0.06 0 0.11 0.06 0 0.115 0.06 0 0.12 0.06 0 0.125 0.06 0 0.13 0.06 0 0.135 0.06 0 0.14 0.06 0 0.145 0.06 0 0.15 0.06 0 0.155 0.06 0 0.16 0.06 0 0.165 0.06 0 0.17 0.06 0 0.175 0.06 0 0.18 0.06 0 0.185 0.06 0 0.19 0.06 0 0.195 0.06 0 0.2 0.06 0 0.205 0.06 0 0.21 0.06 0 0.215 0.06 0 0.22 0.06 0 0.225 0.06 0 0.23 0.06 0 0.235 0.06 0 0.24 0.06 0 0.245 0.06 0 0.25 0.06 0 0.255 0.06 0 0.26 0.06 0 0.265 0.06 0 0.27 0.06 0 0.275 0.06 0 0.28 0.06 0 0.285 0.06 0 0.29 0.06 0 0.295 0.06 0 0.3 0.06 0 0.305 0.06 0 0.31 0.06 0 0.315 0.06 0 0.32 0.06 0 0.325 0.06 0 0.33 0.06 0 0.335 0.06 0 0.34 0.06 0 0.345 0.06 0 0.35 0.06 0 0.355 0.06 0 0.36 0.06 0 0.365 0.06 0 0.37 0.06 0 0.375 0.06 0 0.38 0.06 0 0.385 0.06 0 0.39 0.06 0 0.395 0.06 0 0.4 0.06 0 0.405 0.06 0 0.41 0.06 0 0.415 0.06 0 0.42 0.06 0 0.425 0.06 0 0.43 0.06 0 0.435 0.06 0 0.44 0.06 0 0.445 0.06 0 0.45 0.06 0 0.455 0.06 0 0.46 0.06 0 0.465 0.06 0 0.47 0.06 0 0.475 0.06 0 0.48 0.06 0 0.485 0.06 0 0.49 0.06 0 0.495 0.06 0 0.5 0.06 0 0.505 0.06 0 0.51 0.06 0 0.515 0.06 0 0.52 0.06 0 0.525 0.06 0 0.53 0.06 0 0.535 0.06 0 0.54 0.06 0 0.545 0.06 0 0.55 0.06 0 0.555 0.06 0 0.56 0.06 0 0.565 0.06 0 0.57 0.06 0 0.575 0.06 0 0.58 0.06 0 0.585 0.06 0 0.59 0.06 0 0.595 0.06 0 0.6 0.06 0 0.605 0.06 0 0.61 0.06 0 0.615 0.06 0 0.62 0.06 0 0.625 0.06 0 0.63 0.06 0 0.635 0.06 0 0.64 0.06 0 0.645 0.06 0 0.65 0.06 0 0.655 0.06 0 0.66 0.06 0 0.665 0.06 0 0.67 0.06 0 0.675 0.06 0 0.68 0.06 0 0.685 0.06 0 0.69 0.06 0 0.695 0.06 0 0.7 0.06 0 0.705 0.06 0 0.71 0.06 0 0.715 0.06 0 0.72 0.06 0 0.725 0.06 0 0.73 0.06 0 0.735 0.06 0 0.74 0.06 0 0.745 0.06 0 0.75 0.06 0 0.755 0.06 0 0.76 0.06 0 0.765 0.06 0 0.77 0.06 0 0.775 0.06 0 0.78 0.06 0 0.785 0.06 0 0.79 0.06 0 0.795 0.06 0 0.8 0.06 0 0.805 0.06 0 0.81 0.06 0 0.815 0.06 0 0.82 0.06 0 0.825 0.06 0 0.83 0.06 0 0.835 0.06 0 0.84 0.06 0 0.845 0.06 0 0.85 0.06 0 0.855 0.06 0 0.86 0.06 0 0.865 0.06 0 0.87 0.06 0 0.875 0.06 0 0.88 0.06 0 0.885 0.06 0 0.89 0.06 0 0.895 0.06 0 0.9 0.06 0 0.905 0.06 0 0.91 0.06 0 0.915 0.06 0 0.92 0.06 0 0.925 0.06 0 0.93 0.06 0 0.935 0.06 0 0.94 0.06 0 0.945 0.06 0 0.95 0.06 0 0.955 0.06 0 0.96 0.06 0 0.965 0.06 0 0.97 0.06 0 0.975 0.06 0 0.98 0.06 0 0.985 0.06 0 0.99 0.06 0 0.995 0.06 0 1 0.06 0 0 0.08 0 0.005 0.08 0 0.01 0.08 0 0.015 0.08 0 0.02 0.08 0 0.025 0.08 0 0.03 0.08 0 0.035 0.08 0 0.04 0.08 0 0.045 0.08 0 0.05 0.08 0 0.055 0.08 0 0.06 0.08 0 0.065 0.08 0 0.07 0.08 0 0.075 0.08 0 0.08 0.08 0 0.085 0.08 0 0.09 0.08 0 0.095 0.08 0 0.1 0.08 0 0.105 0.08 0 0.11 0.08 0 0.115 0.08 0 0.12 0.08 0 0.125 0.08 0 0.13 0.08 0 0.135 0.08 0 0.14 0.08 0 0.145 0.08 0 0.15 0.08 0 0.155 0.08 0 0.16 0.08 0 0.165 0.08 0
[...]
			<PointData Scalars="VitesseX">
				<DataArray Name="VitesseX" type="Float32" format="ascii">
 0 -6.47587e-15 -7.295e-15 -1.22984e-14 5.50413e-15 -2.32329e-14 3.1156e-14 -4.59824e-14 1.43805e-14 -2.12381e-14 3.94464e-14 -1.01091e-14 5.54296e-14 1.09779e-13 -1.48113e-13 -1.67754e-14 -6.80437e-14 -8.58109e-14 -1.70897e-14 -1.05482e-13 -7.59285e-14 2.01294e-14 -1.88162e-13 -3.3913e-14 -1.2404e-13 -7.55242e-14 -2.87154e-13 -7.30936e-14 -1.7974e-13 -5.88687e-14 -2.14794e-13 -6.29261e-14 -3.00844e-13 -1.20408e-13 -1.76493e-13 -1.72134e-13 3.04806e-13 -5.60491e-14 1.3247e-12 7.9375e-12 4.58349e-11 2.52164e-10 1.3199e-09 6.55205e-09 3.08255e-08 1.37112e-07 5.75095e-07 2.26784e-06 8.37956e-06 2.88977e-05 9.25911e-05 0.0002742 0.000746124 0.00185412 0.00418458 0.00854689 0.0157869 0.0264655 0.0405976 0.0576615 0.0768671 0.0974649 0.11891 0.140864 0.163127 0.185602 0.208231 0.230967 0.253775 0.276626 0.299495 0.322358 0.345209 0.368036 0.390834 0.413594 0.436311 0.458977 0.481585 0.504128 0.526599 0.548988 0.571287 0.593486 0.615573 0.637535 0.659361 0.681034 0.702539 0.723861 0.74498 0.765882 0.786549 0.80697 0.827138 0.847055 0.866734 0.886197 0.905415 0.925413 0.939411 0.939511 0.939158 0.938417 0.93749 0.936441 0.935304 0.934111 0.932937 0.931837 0.930852 0.930009 0.929332 0.928803 0.928366 0.928027 0.927788 0.927638 0.927496 0.927386 0.927296 0.927231 0.927193 0.927173 0.927166 0.927147 0.927125 0.927106 0.92704 0.927293 0.927069 0.927322 0.913489 0.934368 0.923339 0.928603 0.928575 0.928821 0.929041 0.929041 0.928997 0.928908 0.928791 0.928701 0.928677 0.928752 0.92885 0.928884 0.928901 0.928895 0.928889 0.928926 0.928977 0.929129 0.929129 0.929189 0.929164 0.929147 0.928917 0.926896 0.919413 0.8995 0.856497 0.783485 0.67922 0.549623 0.407479 0.270861 0.157997 0.080036 0.0356956 0.0146171 0.00572389 0.00219532 0.000834414 0.000315829 0.000119262 4.49567e-05 1.6919e-05 6.3563e-06 2.38348e-06 8.91866e-07 3.32937e-07 1.2396e-07 4.60191e-08 1.70294e-08 6.27948e-09 2.30653e-09 8.43612e-10 3.06839e-10 1.11168e-10 4.01717e-11 1.44688e-11 5.23431e-12 1.58812e-12 7.33364e-13 -1.618e-13 6.56858e-14 1.21282e-12 -7.57831e-13 0 0 -1.14695e-14 -7.66467e-15 1.1176e-14 -2.16415e-14 -5.85027e-15 -2.90936e-14 7.29048e-15 -1.54056e-14 1.28742e-14 1.36416e-15 6.84986e-14 7.31184e-15 -1.15581e-13 3.26127e-14 3.2157e-14 -7.86181e-15 -7.39351e-14 -1.03604e-13 -2.91044e-14 -1.20358e-13 -4.24776e-14 -2.68536e-14 -2.23202e-13 -3.23452e-14 -2.77202e-13 -6.47682e-14 -1.38813e-13 -1.70859e-13 5.25035e-14 -6.18737e-14 -2.50107e-13 -1.86225e-13 -3.07583e-13 -2.92306e-14 6.24418e-14 -1.81773e-13 2.32073e-13 1.25491e-12 7.94527e-12 4.57082e-11 2.52306e-10 1.31978e-09 6.55227e-09 3.08254e-08 1.37112e-07 5.75095e-07 2.26784e-06 8.37956e-06 2.88977e-05 9.25911e-05 0.0002742 0.000746124 0.00185412 0.00418458 0.00854689 0.0157869 0.0264655 0.0405976 0.0576615 0.0768671 0.0974649 0.11891 0.140864 0.163127 0.185602 0.208231 0.230967 0.253775 0.276626 0.299495 0.322358 0.345209 0.368036 0.390834 0.413594 0.436311 0.458977 0.481585 0.504128 0.526599 0.548988 0.571287 0.593486 0.615573 0.637535 0.659361 0.681034 0.702539 0.723861 0.74498 0.765882 0.786549 0.80697 0.827138 0.847055 0.866734 0.886197 0.905415 0.925412 0.939411 0.939511 0.939158 0.938417 0.93749 0.936441 0.935304 0.934111 0.932937 0.931837 0.930852 0.930009 0.929332 0.928803 0.928366 0.928027 0.927788 0.927638 0.927496 0.927386 0.927296 0.927231 0.927193 0.927173 0.927166 0.927147 0.927125 0.927106 0.92704 0.927293 0.927069 0.927322 0.913489 0.934368 0.923339 0.928603 0.928575 0.928821 0.929041 0.929041 0.928997 0.928908 0.928791 0.928701 0.928677 0.928752 0.92885 0.928884 0.928901 0.928895 0.928889 0.928926 0.928977 0.929129 0.929129 0.929189 0.929164 0.929147 0.928917 0.926896 0.919413 0.8995 0.856497 0.783485 0.67922 0.549623 0.407479 0.270861 0.157997 0.080036 0.0356956 0.0146171 0.00572389 0.00219532 0.000834414 0.000315829 0.000119262 4.49567e-05 1.6919e-05 6.3563e-06 2.38348e-06 8.91866e-07 3.32937e-07 1.23961e-07 4.60191e-08 1.70294e-08 6.27938e-09 2.30649e-09 8.43564e-10 3.07123e-10 1.11007e-10 3.98112e-11 1.44602e-11 5.44304e-12 2.08548e-12 2.0198e-14 7.40752e-13 2.16127e-13 -6.93805e-13 8.2242e-13 0 0 -6.14692e-15 -1.09861e-14 -1.37172e-14 -3.77596e-14 -4.08568e-14 1.00798e-14 -6.33395e-15 2.12103e-14 4.49518e-14 -4.62024e-14 -1.44333e-14 2.93127e-14 2.98088e-14 1.24273e-14 -1.87714e-14 -1.39511e-15 -1.44785e-13 3.09519e-14 -6.32515e-14 1.77123e-14 -9.82521e-14 -1.71555e-13 -1.59012e-14 -2.32082e-13 -9.19742e-14 -2.15582e-13 -5.36605e-14 -1.8435e-13 6.37792e-14 -1.03517e-14 -5.95242e-14 -1.84136e-13 -5.93406e-14 -4.18372e-13 -8.08308e-14 1.75888e-13 4.73478e-14 1.13867e-12 7.79459e-12 4.58291e-11 2.52545e-10 1.31993e-09 6.55205e-09 3.08253e-08 1.37112e-07 5.75095e-07 2.26784e-06 8.37956e-06 2.88977e-05 9.25911e-05 0.0002742 0.000746124 0.00185412 0.00418458 0.00854689 0.0157869 0.0264655 0.0405976 0.0576615 0.0768671 0.0974649 0.11891 0.140864 0.163127 0.185602 0.208231 0.230967 0.253775 0.276626 0.299495 0.322358 0.345209 0.368036 0.390834 0.413594 0.436311 0.458977 0.481585 0.504128 0.526599 0.548988 0.571287 0.593486 0.615573 0.637535 0.659361 0.681034 0.702539 0.723861 0.74498 0.765882 0.786549 0.80697 0.827138 0.847055 0.866734 0.886197 0.905415 0.925412 0.939411 0.939511 0.939158 0.938417 0.93749 0.936441 0.935304 0.934111 0.932937 0.931837 0.930852 0.930009 0.929332 0.928803 0.928366 0.928027 0.927788 0.927638 0.927496 0.927386 0.927296 0.927231 0.927193 0.927173 0.927166 0.927147 0.927125 0.927106 0.92704 0.927293 0.927069 0.927322 0.913489 0.934368 0.923339 0.928603 0.928575 0.928821 0.929041 0.929041 0.928997 0.928908 0.928791 0.928701 0.928677 0.928752 0.92885 0.928884 0.928901 0.928895 0.928889 0.928926 0.928977 0.929129 0.929129 0.929189 0.929164 0.929147 0.928917 0.926896 0.919413 0.8995 0.856497 0.783485 0.67922 0.549623 0.407479 0.270861 0.157997 0.080036 0.0356956 0.0146171 0.00572389 0.00219532 0.000834414 0.000315829 0.000119262 4.49567e-05 1.6919e-05 6.3563e-06 2.38348e-06 8.91866e-07 3.32937e-07 1.23961e-07 4.60192e-08 1.70291e-08 6.27954e-09 2.3065e-09 8.43788e-10 3.07154e-10 1.11186e-10 3.97341e-11 1.40868e-11 5.31004e-12 1.85551e-12 5.83323e-13 5.57718e-14 -1.99522e-13 2.65346e-13 4.05708e-13 0 0 -5.64863e-15 -1.43673e-14 -1.70044e-14 -2.08769e-14 -3.68692e-14 1.70996e-14 -4.62154e-14 7.8554e-15 -1.89804e-14 7.11554e-15 2.66147e-14 6.95872e-14 2.72994e-14 -7.43261e-14 2.61544e-14 -3.74631e-14 -4.17862e-14 6.94962e-15 -3.85772e-15 -1.46503e-13 -5.53196e-14 -9.3027e-14 -4.12732e-14 -7.06911e-14 -9.06391e-14 -5.12263e-14 -2.40597e-13 -7.25212e-14 -1.06505e-13 -1.55168e-14 -1.20813e-14 -2.02309e-13 1.16395e-14 -1.86812e-13 -3.09384e-13 6.46297e-14 3.35377e-14 1.16403e-12 7.84379e-12 4.601e-11 2.52407e-10 1.32006e-09 6.55222e-09 3.08254e-08 1.37112e-07 5.75095e-07 2.26784e-06 8.37956e-06 2.88977e-05 9.25911e-05 0.0002742 0.000746124 0.00185412 0.00418458 0.00854689 0.0157869 0.0264655 0.0405976 0.0576615 0.0768671 0.0974649 0.11891 0.140864 0.163127 0.185602 0.208231 0.230967 0.253775 0.276626 0.299495 0.322358 0.345209 0.368036 0.390834 0.413594 0.436311 0.458977 0.481585 0.504128 0.526599 0.548988 0.571287 0.593486 0.615573 0.637535 0.659361 0.681034 0.702539 0.723861 0.74498 0.765882 0.786549 0.80697 0.827138 0.847055 0.866734 0.886197 0.905415 0.925413 0.939411 0.939511 0.939158 0.938417 0.93749 0.936441 0.935304 0.934111 0.932937 0.931837 0.930852 0.930009 0.929332 0.928803 0.928366 0.928027 0.927788 0.927638 0.927496 0.927386 0.927296 0.927231 0.927193 0.927173 0.927166 0.927147 0.927125 0.927106 0.92704 0.927293 0.927069 0.927322 0.913489 0.934368 0.923339 0.928603 0.928575 0.928821 0.929041 0.929041 0.928997 0.928908 0.928791 0.928701 0.928677 0.928752 0.92885 0.928884 0.928901 0.928895 0.928889 0.928926 0.928977 0.929129 0.929129 0.929189 0.929164 0.929147 0.928917 0.926896 0.919413 0.8995 0.856497 0.783485 0.67922 0.549623 0.407479 0.270861 0.157997 0.080036 0.0356956 0.0146171 0.00572389 0.00219532 0.000834414 0.000315829 0.000119262 4.49567e-05 1.6919e-05 6.3563e-06 2.38348e-06 8.91866e-07 3.32937e-07 1.2396e-07 4.60193e-08 1.70295e-08 6.27961e-09 2.3065e-09 8.43656e-10 3.07063e-10 1.11184e-10 4.0238e-11 1.43285e-11 4.5082e-12 1.37612e-12 3.47927e-13 1.71978e-13 2.40759e-13 2.57473e-13 3.48856e-13 0 0 -1.26016e-14 -1.75785e-14 1.53103e-15 -2.04539e-14 -2.41357e-15 -3.37423e-14 2.1314e-15 -1.41738e-14 -1.46662e-14 9.62637e-15 4.57201e-14 3.48873e-15 -9.99043e-14 3.11935e-14 9.89729e-14 3.60299e-14 8.53964e-14 -4.00605e-14 2.43273e-14 -1.70352e-13 -8.61159e-14 8.90852e-15 -2.67694e-13 4.75755e-14 -2.13856e-13 1.76919e-13 -2.64868e-13 -1.80055e-13 -2.97714e-13 -4.66644e-14 -1.38428e-13 -2.4387e-14 -1.46297e-13 1.22366e-13 -8.09994e-14 -1.7904e-13 3.7381e-13 1.00812e-12 7.77492e-12 4.60086e-11 2.52181e-10 1.31988e-09 6.55245e-09 3.08255e-08 1.37112e-07 5.75095e-07 2.26784e-06 8.37956e-06 2.88977e-05 9.25911e-05 0.0002742 0.000746124 0.00185412 0.00418458 0.00854689 0.0157869 0.0264655 0.0405976 0.0576615 0.0768671 0.0974649 0.11891 0.140864 0.163127 0.185602 0.208231 0.230967 0.253775 0.276626 0.299495 0.322358 0.345209 0.368036 0.390834 0.413594 0.436311 0.458977 0.481585 0.504128 0.526599 0.548988 0.571287 0.593486 0.615573 0.637535 0.659361 0.681034 0.702539 0.723861 0.74498 0.765882 0.786549 0.80697 0.827138 0.847055 0.866734 0.886197 0.905415 0.925413 0.939411 0.939511 0.939158 0.938417 0.93749 0.936441 0.935304 0.934111 0.932937 0.931836 0.930852 0.930009 0.929332 0.928803 0.928366 0.928027 0.927788 0.927638 0.927496 0.927386 0.927296 0.927231 0.927193 0.927173 0.927166 0.927147 0.927125 0.927106 0.92704 0.927293 0.927069 0.927322 0.913489 0.934368 0.923339 0.928603 0.928575 0.928821 0.929041 0.929041 0.928997 0.928908 0.928791 0.928701 0.928677 0.928752 0.92885 0.928884 0.928901 0.928895 0.928889 0.928926 0.928977 0.929129 0.929129 0.929189 0.929164 0.929147 0.928917 0.926896 0.919413 0.8995 0.856497 0.783485 0.67922 0.549623 0.407479 0.270861 0.157997 0.080036 0.0356956 0.0146171 0.00572389 0.00219532 0.000834414 0.000315829 0.000119262 4.49567e-05 1.6919e-05 6.3563e-06 2.38348e-06 8.91865e-07 3.32937e-07 1.2396e-07 4.60195e-08 1.70293e-08 6.27936e-09 2.30667e-09 8.43326e-10 3.06854e-10 1.11112e-10 4.00556e-11 1.45105e-11 4.69045e-12 1.80715e-12 -2.05303e-13 8.63799e-13 4.95434e-13 -9.1607e-13 7.52163e-13 0 0 -9.73654e-15 -2.03603e-14 -2.50139e-14 -2.58859e-14 -2.43347e-14 7.81896e-15 2.34623e-14 4.35539e-14 5.15454e-14 -5.06651e-14 -1.37762e-13 -3.27656e-14 1.46151e-13 2.25559e-14 2.70048e-14 9.18756e-14 2.68547e-14 1.58002e-13 -1.17406e-13 1.52514e-13 -1.53012e-13 -2.73694e-13 -7.21532e-14 -2.8698e-13 4.84959e-14 -1.3249e-13 4.86677e-14 -4.21788e-13 -4.18736e-13 -1.74045e-13 6.55465e-14 5.91779e-14 6.02026e-14 -3.36419e-13 -1.91101e-15 5.3279e-13 2.55044e-13 7.80397e-13 7.49841e-12 4.60741e-11 2.5219e-10 1.31986e-09 6.55208e-09 3.08256e-08 1.37112e-07 5.75095e-07 2.26784e-06 8.37956e-06 2.88977e-05 9.25911e-05 0.0002742 0.000746124 0.00185412 0.00418458 0.00854689 0.0157869 0.0264655 0.0405976 0.0576615 0.0768671 0.0974649 0.11891 0.140864 0.163127 0.185602 0.208231 0.230967 0.253775 0.276626 0.299495 0.322358 0.345209 0.368036 0.390834 0.413594 0.436311 0.458977 0.481585 0.504128 0.526599 0.548988 0.571287 0.593486 0.615573 0.637535 0.659361 0.681034 0.702539 0.723861 0.74498 0.765882 0.786549 0.80697 0.827138 0.847055 0.866734 0.886197 0.905415 0.925412 0.939411 0.939511 0.939158 0.938417 0.93749 0.936441 0.935304 0.934111 0.932937 0.931837 0.930852 0.930009 0.929332 0.928803 0.928366 0.928027 0.927788 0.927638 0.927496 0.927386 0.927296 0.927231 0.927193 0.927173 0.927166 0.927147 0.927125 0.927106 0.92704 0.927293 0.927069 0.927322 0.913489 0.934368 0.923339 0.928604 0.928575 0.928821 0.929041 0.929041 0.928997 0.928908 0.928791 0.928701 0.928677 0.928752 0.92885 0.928884 0.928901 0.928895 0.928889 0.928926 0.928977 0.929129 0.929129 0.929189 0.929164 0.929147 0.928917 0.926896 0.919413 0.8995 0.856497 0.783485 0.67922 0.549623 0.407479 0.270861 0.157997 0.080036 0.0356956 0.0146171 0.00572389 0.00219532 0.000834414 0.000315829 0.000119262 4.49567e-05 1.6919e-05 6.3563e-06 2.38348e-06 8.91866e-07 3.32938e-07 1.2396e-07 4.60198e-08 1.70285e-08 6.2793e-09 2.30689e-09 8.43401e-10 3.06483e-10 1.11384e-10 3.96526e-11 1.4086e-11 5.33282e-12 1.99023e-12 7.53154e-13 -1.48118e-13 -2.56263e-13 7.84041e-13 -7.84641e-13 0
				</DataArray>
				<DataArray Name="VitesseY" type="Float32" format="ascii">