<?xml version="1.0"?>
<VTKFile type="PolyData">
	<PolyData>
		<Piece NumberOfPoints="1206" NumberOfPolys="1000">
			<Points>
				<DataArray type="Float32" NumberOfComponents="3" format="ascii">
 0 0 0 0.005 0 0 0.01 0 0 0.015 0 0 0.02 0 0 0.025 0 0 0.03 0 0 0.035 0 0 0.04 0 0 0.045 0 0 0.05 0 0 0.055 0 0 0.06 0 0 0.065 0 0 0.07 0 0 0.075 0 0 0.08 0 0 0.085 0 0 0.09 0 0 0.095 0 0 0.1 0 0 0.105 0 0 0.11 0 0 0.115 0 0 0.12 0 0 0.125 0 0 0.13 0 0 0.135 0 0 0.14 0 0 0.145 0 0 0.15 0 0 0.155 0 0 0.16 0 0 0.165 0 0 0.17 0 0 0.175 0 0 0.18 0 0 0.185 0 0 0.19 0 0 0.195 0 0 0.2 0 0 0.205 0 0 0.21 0 0 0.215 0 0 0.22 0 0 0.225 0 0 0.23 0 0 0.235 0 0 0.24 0 0 0.245 0 0 0.25 0 0 0.255 0 0 0.26 0 0 0.265 0 0 0.27 0 0 0.275 0 0 0.28 0 0 0.285 0 0 0.29 0 0 0.295 0 0 0.3 0 0 0.305 0 0 0.31 0 0 0.315 0 0 0.32 0 0 0.325 0 0 0.33 0 0 0.335 0 0 0.34 0 0 0.345 0 0 0.35 0 0 0.355 0 0 0.36 0 0 0.365 0 0 0.37 0 0 0.375 0 0 0.38 0 0 0.385 0 0 0.39 0 0 0.395 0 0 0.4 0 0 0.405 0 0 0.41 0 0 0.415 0 0 0.42 0 0 0.425 0 0 0.43 0 0 0.435 0 0 0.44 0 0 0.445 0 0 0.45 0 0 0.455 0 0 0.46 0 0 0.465 0 0 0.47 0 0 0.475 0 0 0.48 0 0 0.485 0 0 0.49 0 0 0.495 0 0 0.5 0 0 0.505 0 0 0.51 0 0 0.515 0 0 0.52 0 0 0.525 0 0 0.53 0 0 0.535 0 0 0.54 0 0 0.545 0 0 0.55 0 0 0.555 0 0 0.56 0 0 0.565 0 0 0.57 0 0 0.575 0 0 0.58 0 0 0.585 0 0 0.59 0 0 0.595 0 0 0.6 0 0 0.605 0 0 0.61 0 0 0.615 0 0 0.62 0 0 0.625 0 0 0.63 0 0 0.635 0 0 0.64 0 0 0.645 0 0 0.65 0 0 0.655 0 0 0.66 0 0 0.665 0 0 0.67 0 0 0.675 0 0 0.68 0 0 0.685 0 0 0.69 0 0 0.695 0 0 0.7 0 0 0.705 0 0 0.71 0 0 0.715 0 0 0.72 0 0 0.725 0 0 0.73 0 0 0.735 0 0 0.74 0 0 0.745 0 0 0.75 0 0 0.755 0 0 0.76 0 0 0.765 0 0 0.77 0 0 0.775 0 0 0.78 0 0 0.785 0 0 0.79 0 0 0.795 0 0 0.8 0 0 0.805 0 0 0.81 0 0 0.815 0 0 0.82 0 0 0.825 0 0 0.83 0 0 0.835 0 0 0.84 0 0 0.845 0 0 0.85 0 0 0.855 0 0 0.86 0 0 0.865 0 0 0.87 0 0 0.875 0 0 0.88 0 0 0.885 0 0 0.89 0 0 0.895 0 0 0.9 0 0 0.905 0 0 0.91 0 0 0.915 0 0 0.92 0 0 0.925 0 0 0.93 0 0 0.935 0 0 0.94 0 0 0.945 0 0 0.95 0 0 0.955 0 0 0.96 0 0 0.965 0 0 0.97 0 0 0.975 0 0 0.98 0 0 0.985 0 0 0.99 0 0 0.995 0 0 1 0 0 0 0.02 0 0.005 0.02 0 0.01 0.02 0 0.015 0.02 0 0.02 0.02 0 0.025 0.02 0 0.03 0.02 0 0.035 0.02 0 0.04 0.02 0 0.045 0.02 0 0.05 0.02 0 0.055 0.02 0 0.06 0.02 0 0.065 0.02 0 0.07 0.02 0 0.075 0.02 0 0.08 0.02 0 0.085 0.02 0 0.09 0.02 0 0.095 0.02 0 0.1 0.02 0 0.105 0.02 0 0.11 0.02 0 0.115 0.02 0 0.12 0.02 0 0.125 0.02 0 0.13 0.02 0 0.135 0.02 0 0.14 0.02 0 0.145 0.02 0 0.15 0.02 0 0.155 0.02 0 0.16 0.02 0 0.165 0.02 0 0.17 0.02 0 0.175 0.02 0 0.18 0.02 0 0.185 0.02 0 0.19 0.02 0 0.195 0.02 0 0.2 0.02 0 0.205 0.02 0 0.21 0.02 0 0.215 0.02 0 0.22 0.02 0 0.225 0.02 0 0.23 0.02 0 0.235 0.02 0 0.24 0.02 0 0.245 0.02 0 0.25 0.02 0 0.255 0.02 0 0.26 0.02 0 0.265 0.02 0 0.27 0.02 0 0.275 0.02 0 0.28 0.02 0 0.285 0.02 0 0.29 0.02 0 0.295 0.02 0 0.3 0.02 0 0.305 0.02 0 0.31 0.02 0 0.315 0.02 0 0.32 0.02 0 0.325 0.02 0 0.33 0.02 0 0.335 0.02 0 0.34 0.02 0 0.345 0.02 0 0.35 0.02 0 0.355 0.02 0 0.36 0.02 0 0.365 0.02 0 0.37 0.02 0 0.375 0.02 0 0.38 0.02 0 0.385 0.02 0 0.39 0.02 0 0.395 0.02 0 0.4 0.02 0 0.405 0.02 0 0.41 0.02 0 0.415 0.02 0 0.42 0.02 0 0.425 0.02 0 0.43 0.02 0 0.435 0.02 0 0.44 0.02 0 0.445 0.02 0 0.45 0.02 0 0.455 0.02 0 0.46 0.02 0 0.465 0.02 0 0.47 0.02 0 0.475 0.02 0 0.48 0.02 0 0.485 0.02 0 0.49 0.02 0 0.495 0.02 0 0.5 0.02 0 0.505 0.02 0 0.51 0.02 0 0.515 0.02 0 0.52 0.02 0 0.525 0.02 0 0.53 0.02 0 0.535 0.02 0 0.54 0.02 0 0.545 0.02 0 0.55 0.02 0 0.555 0.02 0 0.56 0.02 0 0.565 0.02 0 0.57 0.02 0 0.575 0.02 0 0.58 0.02 0 0.585 0.02 0 0.59 0.02 0 0.595 0.02 0 0.6 0.02 0 0.605 0.02 0 0.61 0.02 0 0.615 0.02 0 0.62 0.02 0 0.625 0.02 0 0.63 0.02 0 0.635 0.02 0 0.64 0.02 0 0.645 0.02 0 0.65 0.02 0 0.655 0.02 0 0.66 0.02 0 0.665 0.02 0 0.67 0.02 0 0.675 0.02 0 0.68 0.02 0 0.685 0.02 0 0.69 0.02 0 0.695 0.02 0 0.7 0.02 0 0.705 0.02 0 0.71 0.02 0 0.715 0.02 0 0.72 0.02 0 0.725 0.02 0 0.73 0.02 0 0.735 0.02 0 0.74 0.02 0 0.745 0.02 0 0.75 0.02 0 0.755 0.02 0 0.76 0.02 0 0.765 0.02 0 0.77 0.02 0 0.775 0.02 0 0.78 0.02 0 0.785 0.02 0 0.79 0.02 0 0.795 0.02 0 0.8 0.02 0 0.805 0.02 0 0.81 0.02 0 0.815 0.02 0 0.82 0.02 0 0.825 0.02 0 0.83 0.02 0 0.835 0.02 0 0.84 0.02 0 0.845 0.02 0 0.85 0.02 0 0.855 0.02 0 0.86 0.02 0 0.865 0.02 0 0.87 0.02 0 0.875 0.02 0 0.88 0.02 0 0.885 0.02 0 0.89 0.02 0 0.895 0.02 0 0.9 0.02 0 0.905 0.02 0 0.91 0.02 0 0.915 0.02 0 0.92 0.02 0 0.925 0.02 0 0.93 0.02 0 0.935 0.02 0 0.94 0.02 0 0.945 0.02 0 0.95 0.02 0 0.955 0.02 0 0.96 0.02 0 0.965 0.02 0 0.97 0.02 0 0.975 0.02 0 0.98 0.02 0 0.985 0.02 0 0.99 0.02 0 0.995 0.02 0 1 0.02 0 0 0.04 0 0.005 0.04 0 0.01 0.04 0 0.015 0.04 0 0.02 0.04 0 0.025 0.04 0 0.03 0.04 0 0.035 0.04 0 0.04 0.04 0 0.045 0.04 0 0.05 0.04 0 0.055 0.04 0 0.06 0.04 0 0.065 0.04 0 0.07 0.04 0 0.075 0.04 0 0.08 0.04 0 0.085 0.04 0 0.09 0.04 0 0.095 0.04 0 0.1 0.04 0 0.105 0.04 0 0.11 0.04 0 0.115 0.04 0 0.12 0.04 0 0.125 0.04 0 0.13 0.04 0 0.135 0.04 0 0.14 0.04 0 0.145 0.04 0 0.15 0.04 0 0.155 0.04 0 0.16 0.04 0 0.165 0.04 0 0.17 0.04 0 0.175 0.04 0 0.18 0.04 0 0.185 0.04 0 0.19 0.04 0 0.195 0.04 0 0.2 0.04 0 0.205 0.04 0 0.21 0.04 0 0.215 0.04 0 0.22 0.04 0 0.225 0.04 0 0.23 0.04 0 0.235 0.04 0 0.24 0.04 0 0.245 0.04 0 0.25 0.04 0 0.255 0.04 0 0.26 0.04 0 0.265 0.04 0 0.27 0.04 0 0.275 0.04 0 0.28 0.04 0 0.285 0.04 0 0.29 0.04 0 0.295 0.04 0 0.3 0.04 0 0.305 0.04 0 0.31 0.04 0 0.315 0.04 0 0.32 0.04 0 0.325 0.04 0 0.33 0.04 0 0.335 0.04 0 0.34 0.04 0 0.345 0.04 0 0.35 0.04 0 0.355 0.04 0 0.36 0.04 0 0.365 0.04 0 0.37 0.04 0 0.375 0.04 0 0.38 0.04 0 0.385 0.04 0 0.39 0.04 0 0.395 0.04 0 0.4 0.04 0 0.405 0.04 0 0.41 0.04 0 0.415 0.04 0 0.42 0.04 0 0.425 0.04 0 0.43 0.04 0 0.435 0.04 0 0.44 0.04 0 0.445 0.04 0 0.45 0.04 0 0.455 0.04 0 0.46 0.04 0 0.465 0.04 0 0.47 0.04 0 0.475 0.04 0 0.48 0.04 0 0.485 0.04 0 0.49 0.04 0 0.495 0.04 0 0.5 0.04 0 0.505 0.04 0 0.51 0.04 0 0.515 0.04 0 0.52 0.04 0 0.525 0.04 0 0.53 0.04 0 0.535 0.04 0 0.54 0.04 0 0.545 0.04 0 0.55 0.04 0 0.555 0.04 0 0.56 0.04 0 0.565 0.04 0 0.57 0.04 0 0.575 0.04 0 0.58 0.04 0 0.585 0.04 0 0.59 0.04 0 0.595 0.04 0 0.6 0.04 0 0.605 0.04 0 0.61 0.04 0 0.615 0.04 0 0.62 0.04 0 0.625 0.04 0 0.63 0.04 0 0.635 0.04 0 0.64 0.04 0 0.645 0.04 0 0.65 0.04 0 0.655 0.04 0 0.66 0.04 0 0.665 0.04 0 0.67 0.04 0 0.675 0.04 0 0.68 0.04 0 0.685 0.04 0 0.69 0.04 0 0.695 0.04 0 0.7 0.04 0 0.705 0.04 0 0.71 0.04 0 0.715 0.04 0 0.72 0.04 0 0.725 0.04 0 0.73 0.04 0 0.735 0.04 0 0.74 0.04 0 0.745 0.04 0 0.75 0.04 0 0.755 0.04 0 0.76 0.04 0 0.765 0.04 0 0.77 0.04 0 0.775 0.04 0 0.78 0.04 0 0.785 0.04 0 0.79 0.04 0 0.795 0.04 0 0.8 0.04 0 0.805 0.04 0 0.81 0.04 0 0.815 0.04 0 0.82 0.04 0 0.825 0.04 0 0.83 0.04 0 0.835 0.04 0 0.84 0.04 0 0.845 0.04 0 0.85 0.04 0 0.855 0.04 0 0.86 0.04 0 0.865 0.04 0 0.87 0.04 0 0.875 0.04 0 0.88 0.04 0 0.885 0.04 0 0.89 0.04 0 0.895 0.04 0 0.9 0.04 0 0.905 0.04 0 0.91 0.04 0 0.915 0.04 0 0.92 0.04 0 0.925 0.04 0 0.93 0.04 0 0.935 0.04 0 0.94 0.04 0 0.945 0.04 0 0.95 0.04 0 0.955 0.04 0 0.96 0.04 0 0.965 0.04 0 0.97 0.04 0 0.975 0.04 0 0.98 0.04 0 0.985 0.04 0 0.99 0.04 0 0.995 0.04 0 1 0.04 0 0 0.06 0 0.005 0.06 0 0.01 0.06 0 0.015 0.06 0 0.02 0.06 0 0.025 0.06 0 0.03 0.06 0 0.035 0.06 0 0.04 0.06 0 0.045 0.06 0 0.05 0.06 0 0.055 0.06 0 0.06 0.06 0 0.065 0.06 0 0.07 0.06 0 0.075 0.06 0 0.08 0.06 0 0.085 0.06 0 0.09 0.06 0 0.095 0.06 0 0.1 0.06 0 0.105 0.06 0 0.11 0.06 0 0.115 0.06 0 0.12 0.06 0 0.125 0.06 0 0.13 0.06 0 0.135 0.06 0 0.14 0.06 0 0.145 0.06 0 0.15 0.06 0 0.155 0.06 0 0.16 0.06 0 0.165 0.06 0 0.17 0.06 0 0.175 0.06 0 0.18 0.06 0 0.185 0.06 0 0.19 0.06 0 0.195 0.06 0 0.2 0.06 0 0.205 0.06 0 0.21 0.06 0 0.215 0.06 0 0.22 0.06 0 0.225 0.06 0 0.23 0.06 0 0.235 0.06 0 0.24 0.06 0 0.245 0.06 0 0.25 0.06 0 0.255 0.06 0 0.26 0.06 0 0.265 0.06 0 0.27 0.06 0 0.275 0.06 0 0.28 0.06 0 0.285 0.06 0 0.29 0.06 0 0.295 0.06 0 0.3 0.06 0 0.305 0.06 0 0.31 0.06 0 0.315 0.06 0 0.32 0.06 0 0.325 0.06 0 0.33 0.06 0 0.335 0.06 0 0.34 0.06 0 0.345 0.06 0 0.35 0.06 0 0.355 0.06 0 0.36 0.06 0 0.365 0.06 0 0.37 0.06 0 0.375 0.06 0 0.38 0.06 0 0.385 0.06 0 0.39 0.06 0 0.395 0.06 0 0.4 0.06 0 0.405 0.06 0 0.41 0.06 0 0.415 0.06 0 0.42 0.06 0 0.425 0.06 0 0.43 0.06 0 0.435 0.06 0 0.44 0.06 0 0.445 0.06 0 0.45 0.06 0 0.455 0.06 0 0.46 0.06 0 0.465 0.06 0 0.47 0.06 0 0.475 0.06 0 0.48 0.06 0 0.485 0.06 0 0.49 0.06 0 0.495 0.06 0 0.5 0.06 0 0.505 0.06 0 0.51 0.06 0 0.515 0.06 0 0.52 0.06 0 0.525 0.06 0 0.53 0.06 0 0.535 0.06 0 0.54 0.06 0 0.545 0.06 0 0.55 0.06 0 0.555 0.06 0 0.56 0.06 0 0.565 0.06 0 0.57 0.06 0 0.575 0.06 0 0.58 0.06 0 0.585 0.06 0 0.59 0.06 0 0.595 0.06 0 0.6 0.06 0 0.605 0.06 0 0.61 0.06 0 0.615 0.06 0 0.62 0.06 0 0.625 0.06 0 0.63 0.06 0 0.635 0.06 0 0.64 0.06 0 0.645 0.06 0 0.65 0.06 0 0.655 0.06 0 0.66 0.06 0 0.665 0.06 0 0.67 0.06 0 0.675 0.06 0 0.68 0.06 0 0.685 0.06 0 0.69 0.06 0 0.695 0.06 0 0.7 0.06 0 0.705 0.06 0 0.71 0.06 0 0.715 0.06 0 0.72 0.06 0 0.725 0.06 0 0.73 0.06 0 0.735 0.06 0 0.74 0.06 0 0.745 0.06 0 0.75 0.06 0 0.755 0.06 0 0.76 0.06 0 0.765 0.06 0 0.77 0.06 0 0.775 0.06 0 0.78 0.06 0 0.785 0.06 0 0.79 0.06 0 0.795 0.06 0 0.8 0.06 0 0.805 0.06 0 0.81 0.06 0 0.815 0.06 0 0.82 0.06 0 0.825 0.06 0 0.83 0.06 0 0.835 0.06 0 0.84 0.06 0 0.845 0.06 0 0.85 0.06 0 0.855 0.06 0 0.86 0.06 0 0.865 0.06 0 0.87 0.06 0 0.875 0.06 0 0.88 0.06 0 0.885 0.06 0 0.89 0.06 0 0.895 0.06 0 0.9 0.06 0 0.905 0.06 0 0.91 0.06 0 0.915 0.06 0 0.92 0.06 0 0.925 0.06 0 0.93 0.06 0 0.935 0.06 0 0.94 0.06 0 0.945 0.06 0 0.95 0.06 0 0.955 0.06 0 0.96 0.06 0 0.965 0.06 0 0.97 0.06 0 0.975 0.06 0 0.98 0.06 0 0.985 0.06 0 0.99 0.06 0 0.995 0.06 0 1 0.06 0 0 0.08 0 0.005 0.08 0 0.01 0.08 0 0.015 0.08 0 0.02 0.08 0 0.025 0.08 0 0.03 0.08 0 0.035 0.08 0 0.04 0.08 0 0.045 0.08 0 0.05 0.08 0 0.055 0.08 0 0.06 0.08 0 0.065 0.08 0 0.07 0.08 0 0.075 0.08 0 0.08 0.08 0 0.085 0.08 0 0.09 0.08 0 0.095 0.08 0 0.1 0.08 0 0.105 0.08 0 0.11 0.08 0 0.115 0.08 0 0.12 0.08 0 0.125 0.08 0 0.13 0.08 0 0.135 0.08 0 0.14 0.08 0 0.145 0.08 0 0.15 0.08 0 0.155 0.08 0 0.16 0.08 0 0.165 0.08 0
[...]
			<PointData Scalars="VitesseX">
				<DataArray Name="VitesseX" type="Float32" format="ascii">
 0 -9.56658e-15 -2.78435e-14 -1.74843e-14 -5.20283e-14 -6.44132e-15 -3.59908e-15 -8.0292e-14 -2.30955e-15 -1.36128e-13 -3.5159e-14 4.26185e-16 -7.81751e-14 -2.83057e-14 -1.59486e-13 5.49846e-14 -2.12003e-13 -1.38337e-13 -6.83397e-14 -6.16403e-14 -1.11193e-13 1.06016e-13 -3.83829e-14 2.77507e-13 -1.34945e-13 -8.54397e-14 -5.97503e-14 -1.76808e-13 -4.87277e-14 -2.12785e-14 6.42666e-14 -1.91642e-13 4.66895e-14 -3.68846e-13 -9.50239e-16 -6.05077e-14 -2.41005e-13 2.88558e-13 -4.20956e-13 -1.36117e-13 2.77863e-14 -1.84343e-13 -5.67928e-14 -3.05497e-13 -4.31031e-13 -1.63593e-13 -1.78786e-13 -2.50548e-14 -4.03918e-14 -9.77548e-14 -2.85895e-13 5.6322e-13 1.29269e-13 -8.36849e-13 3.8434e-13 8.97518e-14 -3.64366e-13 1.25214e-13 -3.28145e-13 -3.91254e-14 1.5145e-13 6.64356e-14 -8.27413e-14 -1.82211e-13 1.55633e-13 -5.95117e-14 -1.7651e-14 6.11065e-12 6.16055e-11 5.56911e-10 4.63555e-09 3.53996e-08 2.46808e-07 1.5616e-06 8.9041e-06 4.53723e-05 0.000204546 0.000806038 0.00273903 0.00792302 0.0193646 0.0401406 0.0714903 0.111925 0.158437 0.208282 0.259548 0.311252 0.362849 0.414165 0.46503 0.515297 0.564819 0.613429 0.66093 0.707098 0.751676 0.794392 0.835004 0.873342 0.910717 0.94114 0.941349 0.940321 0.938461 0.936328 0.934577 0.933067 0.93178 0.930994 0.930007 0.929162 0.929401 0.929304 0.923789 0.883484 0.926803 0.928609 0.930348 0.930574 0.930748 0.93198 0.933719 0.933572 0.930825 0.91757 0.883264 0.817374 0.718064 0.589702 0.444274 0.300365 0.177724 0.090568 0.0399941 0.0159257 0.00597764 0.00217217 0.000773943 0.000271622 9.40045e-05 3.20765e-05 1.07853e-05 3.57111e-06 1.1637e-06 3.73012e-07 1.17558e-07 3.64163e-08 1.10839e-08 3.3146e-09 9.73526e-10 2.79951e-10 7.97509e-11 2.17439e-11 6.15033e-12 1.11237e-12 -1.32652e-13 5.14834e-14 1.08671e-13 2.78828e-13 -8.92109e-13 -5.67477e-13 -3.02768e-13 2.45388e-13 5.62089e-13 -5.4811e-13 -7.13986e-13 -2.45968e-13 -1.09053e-13 9.84138e-13 -1.40033e-13 7.31248e-13 -6.86919e-13 -5.9579e-14 -9.25998e-14 2.17757e-13 -1.00575e-13 -6.20739e-13 -9.36449e-13 2.39739e-14 3.38036e-13 1.55677e-13 4.14047e-13 -1.05275e-12 1.96177e-13 8.87125e-14 2.07018e-13 -4.53422e-13 -1.20705e-12 1.05531e-13 -7.17228e-13 -6.56978e-13 4.54087e-13 -2.14067e-13 -3.65872e-13 -3.5461e-13 -1.26522e-13 7.05711e-13 -2.74423e-13 5.48598e-13 0 0 -2.07946e-15 -1.39428e-15 -1.39422e-14 -1.33881e-14 -8.37232e-14 -5.20445e-14 -2.66361e-16 -8.16751e-14 5.9989e-14 -2.98598e-14 -8.3173e-14 -1.29687e-14 -9.45349e-14 -3.02849e-14 -1.70712e-13 -2.19764e-14 -1.04892e-13 -1.17626e-13 -9.78688e-14 -5.22906e-14 -4.29277e-14 8.99174e-14 -2.75419e-13 1.42876e-13 7.81243e-14 -9.42335e-14 -1.34879e-13 -1.79426e-13 9.35796e-15 -1.13619e-13 -5.11069e-14 -9.92943e-14 5.57165e-14 -1.67644e-13 -7.08662e-14 1.22573e-13 -3.9842e-13 1.74399e-13 -1.80766e-13 -2.95427e-13 -3.20483e-13 -9.8223e-14 -1.56387e-13 -7.71272e-15 -2.40026e-13 8.47987e-14 -3.0194e-13 1.99935e-13 8.49149e-14 3.53261e-13 -3.57495e-13 -4.43232e-13 5.51003e-13 -3.02883e-13 -2.68939e-13 -2.30774e-14 -3.96886e-13 2.08184e-13 -4.09594e-14 -1.91976e-13 -1.19103e-13 3.57683e-14 1.24082e-13 -1.309e-13 -5.55741e-14 5.40087e-13 6.0908e-12 6.18269e-11 5.5707e-10 4.63562e-09 3.53995e-08 2.46808e-07 1.5616e-06 8.9041e-06 4.53723e-05 0.000204546 0.000806038 0.00273903 0.00792302 0.0193646 0.0401406 0.0714903 0.111925 0.158437 0.208282 0.259548 0.311252 0.362849 0.414165 0.46503 0.515297 0.564819 0.613429 0.66093 0.707098 0.751676 0.794392 0.835004 0.873342 0.910717 0.94114 0.941349 0.940321 0.938461 0.936328 0.934577 0.933067 0.93178 0.930994 0.930007 0.929162 0.929401 0.929304 0.923789 0.883484 0.926803 0.928609 0.930348 0.930574 0.930748 0.93198 0.933719 0.933572 0.930825 0.91757 0.883264 0.817374 0.718064 0.589702 0.444274 0.300365 0.177724 0.090568 0.0399941 0.0159257 0.00597764 0.00217217 0.000773943 0.000271622 9.40045e-05 3.20765e-05 1.07853e-05 3.57111e-06 1.1637e-06 3.73011e-07 1.17559e-07 3.64155e-08 1.10846e-08 3.31422e-09 9.73187e-10 2.81067e-10 7.90275e-11 2.1939e-11 5.44312e-12 1.4734e-12 3.30557e-13 -2.15258e-13 -2.23126e-13 -6.7094e-13 2.06848e-13 -2.57645e-13 -2.61649e-13 -2.00041e-13 -5.58217e-13 -1.17994e-13 2.33493e-14 -5.95545e-14 2.34856e-13 -3.67098e-13 3.00996e-13 -2.19051e-13 3.17635e-13 2.37726e-13 1.83787e-13 -5.42189e-13 -6.68672e-13 -3.50885e-13 7.12455e-13 -4.36179e-13 -5.71909e-14 -2.59701e-13 -2.77821e-13 3.88622e-13 -2.18427e-13 -5.5313e-14 -2.63003e-13 -2.553e-13 6.58922e-13 -9.80073e-13 -8.11111e-14 -1.31799e-13 -1.05448e-12 1.123e-13 -1.70109e-13 -1.18976e-13 2.77315e-13 -7.80863e-14 2.85518e-13 -1.19925e-13 0 0 -1.09448e-14 -2.52754e-14 -1.1978e-14 -2.98758e-14 -2.016e-15 -4.13256e-14 -7.69402e-14 -1.18006e-14 2.33452e-14 -2.09299e-14 4.37258e-14 -4.65046e-14 -5.97961e-14 -1.3922e-13 -5.88884e-14 -1.543e-13 -1.51213e-13 5.92885e-15 -1.1015e-13 -2.77888e-14 -9.54419e-14 -1.67839e-13 6.67614e-14 -3.16798e-14 -8.36886e-14 -6.06559e-14 -1.81781e-13 -8.47129e-14 -9.51421e-15 -6.42102e-14 8.97777e-14 -1.53715e-13 -6.55709e-14 -5.84473e-14 -5.96428e-14 -5.37704e-14 -2.54653e-14 -1.97107e-13 -5.13121e-14 -3.91355e-14 -2.17274e-13 -3.14878e-13 2.70062e-14 -7.36364e-14 -1.1355e-13 -1.80453e-13 3.2133e-14 -3.63729e-14 8.38165e-14 2.20081e-14 1.40786e-13 1.00811e-13 -1.84304e-13 -1.6749e-13 -1.44749e-13 -4.42291e-13 5.90007e-14 -1.29122e-13 1.28606e-13 -3.77819e-14 7.47594e-14 4.68012e-14 -3.51482e-13 7.53518e-14 -6.64205e-14 7.69866e-13 6.45503e-12 6.16155e-11 5.57213e-10 4.63552e-09 3.53997e-08 2.46808e-07 1.5616e-06 8.9041e-06 4.53723e-05 0.000204546 0.000806038 0.00273903 0.00792302 0.0193646 0.0401406 0.0714903 0.111925 0.158437 0.208282 0.259548 0.311252 0.362849 0.414165 0.46503 0.515297 0.564819 0.613429 0.66093 0.707098 0.751676 0.794392 0.835004 0.873342 0.910717 0.94114 0.941349 0.940321 0.938461 0.936328 0.934577 0.933067 0.93178 0.930994 0.930007 0.929162 0.929401 0.929304 0.923789 0.883484 0.926803 0.928609 0.930348 0.930574 0.930748 0.93198 0.933719 0.933572 0.930825 0.91757 0.883264 0.817374 0.718064 0.589702 0.444274 0.300365 0.177724 0.090568 0.0399941 0.0159257 0.00597764 0.00217217 0.000773943 0.000271622 9.40045e-05 3.20765e-05 1.07853e-05 3.57111e-06 1.1637e-06 3.73011e-07 1.17559e-07 3.64162e-08 1.10842e-08 3.31445e-09 9.73324e-10 2.80392e-10 7.92987e-11 2.18539e-11 5.66665e-12 1.28837e-12 3.58659e-13 -4.83872e-14 -3.13233e-13 -2.12078e-13 -6.25921e-13 1.53414e-13 -1.02107e-13 -3.12772e-13 -5.35728e-13 -5.73237e-13 -2.1967e-13 2.58443e-13 -2.37544e-13 1.67289e-13 -6.9762e-14 6.95658e-14 1.17791e-13 -3.23324e-13 -1.27828e-13 -4.35425e-13 -7.01258e-13 8.22291e-14 2.31408e-13 2.93976e-13 1.92726e-13 -2.74455e-13 -4.49955e-13 5.43758e-13 2.18657e-13 -3.04454e-13 -2.49417e-13 -5.48516e-13 2.96163e-13 2.62031e-13 -3.17805e-13 -7.82314e-13 -3.06957e-13 -1.1021e-13 4.44025e-13 5.11455e-13 -8.89225e-14 2.68019e-13 -4.78955e-13 2.41002e-13 0 0 -1.4191e-14 -2.78546e-14 -1.28283e-14 -3.70692e-14 1.86355e-14 3.62653e-14 1.27645e-14 6.65797e-16 -1.0855e-14 -2.61478e-14 -1.55235e-14 8.45762e-15 -9.76327e-14 -2.17398e-13 2.74739e-14 -1.06163e-13 -2.18981e-13 -1.62096e-13 -7.51038e-14 -1.80878e-13 1.47818e-14 -2.20043e-14 -2.48255e-14 -4.72709e-14 -2.79644e-14 -1.79235e-13 7.38378e-14 -1.1683e-15 1.65863e-14 9.83062e-14 -1.52346e-13 5.86409e-15 -1.47891e-13 -1.78304e-13 -7.06562e-14 -7.63171e-14 3.20059e-14 -1.90567e-13 1.87991e-13 -1.64573e-13 -1.71444e-13 -1.29223e-13 -2.10054e-13 -1.21605e-13 6.1542e-15 -3.07954e-13 -2.16805e-13 -1.06808e-13 -3.123e-14 -6.07779e-14 2.02194e-14 1.1189e-13 -3.92274e-13 1.90446e-13 -5.81438e-14 -6.64443e-14 2.61252e-14 3.30327e-14 -1.27081e-13 1.4919e-13 1.26399e-13 -1.30381e-13 -8.11406e-14 -2.27814e-13 -1.73585e-13 6.11014e-13 6.53835e-12 6.18439e-11 5.56973e-10 4.63537e-09 3.54e-08 2.46808e-07 1.5616e-06 8.9041e-06 4.53724e-05 0.000204546 0.000806038 0.00273903 0.00792302 0.0193646 0.0401406 0.0714903 0.111925 0.158437 0.208282 0.259548 0.311252 0.362849 0.414165 0.46503 0.515297 0.564819 0.613429 0.66093 0.707098 0.751676 0.794392 0.835004 0.873342 0.910716 0.94114 0.941349 0.940321 0.938461 0.936328 0.934577 0.933067 0.93178 0.930994 0.930007 0.929162 0.929401 0.929304 0.923789 0.883484 0.926803 0.928609 0.930348 0.930574 0.930748 0.93198 0.933719 0.933572 0.930825 0.91757 0.883264 0.817374 0.718064 0.589702 0.444274 0.300365 0.177724 0.090568 0.0399941 0.0159257 0.00597764 0.00217217 0.000773943 0.000271622 9.40045e-05 3.20765e-05 1.07853e-05 3.57111e-06 1.1637e-06 3.73011e-07 1.17559e-07 3.64161e-08 1.10842e-08 3.3144e-09 9.73503e-10 2.80631e-10 7.94303e-11 2.174e-11 5.73293e-12 1.52272e-12 7.23301e-13 -1.24346e-13 -2.2379e-13 2.92653e-14 -2.34805e-14 -4.05484e-13 -2.91551e-13 4.1921e-14 1.66419e-14 -6.45214e-13 -3.09673e-13 -3.34385e-13 -3.90833e-13 6.76859e-13 -2.36686e-13 -3.78303e-14 -6.77847e-13 -4.19112e-13 -5.94209e-13 -4.7415e-14 4.06319e-13 -2.78222e-13 -3.22152e-13 2.13246e-13 -1.60475e-13 6.38319e-13 4.65845e-13 -3.36826e-13 -2.93171e-14 -3.56936e-13 -4.79129e-13 -2.00158e-13 -6.4677e-13 -1.8505e-13 -3.34265e-13 -8.34559e-13 5.98146e-14 7.14773e-13 -3.77497e-13 7.19964e-13 -8.62431e-13 5.01893e-13 -5.47881e-15 1.84589e-13 0 0 -1.16059e-15 3.96574e-15 -9.85876e-15 6.79627e-15 -3.87151e-14 6.89299e-14 9.25508e-14 -3.81871e-14 7.4871e-14 -4.85847e-14 -1.22172e-13 1.42216e-14 -1.18507e-13 -1.13212e-13 -1.536e-13 -7.07141e-14 -1.55773e-13 -1.11804e-13 -8.98306e-14 -1.57379e-13 -5.99756e-14 9.50097e-14 -3.59638e-13 5.86291e-14 1.40271e-13 -5.40991e-14 9.25729e-14 -1.827e-13 7.53228e-14 -7.63008e-14 -1.82854e-13 3.38254e-14 5.351e-14 -1.80538e-13 -4.73995e-14 3.08421e-13 -1.86268e-13 7.08851e-14 3.06867e-14 -5.51915e-13 -3.18922e-13 -2.06868e-13 -2.66484e-13 6.6914e-14 -9.63788e-14 3.34812e-14 -3.23303e-13 3.27952e-13 8.45727e-14 3.4052e-13 -5.96608e-13 -5.62868e-13 1.44843e-13 -1.98628e-13 -2.99833e-13 1.29493e-13 -5.64869e-13 3.84803e-13 -7.77224e-14 8.1142e-14 1.99319e-13 1.28959e-14 3.63861e-13 -3.1723e-13 -1.00215e-13 3.56325e-13 6.17726e-12 6.22685e-11 5.57094e-10 4.6354e-09 3.53997e-08 2.46809e-07 1.5616e-06 8.90411e-06 4.53724e-05 0.000204546 0.000806038 0.00273903 0.00792302 0.0193646 0.0401406 0.0714903 0.111925 0.158437 0.208282 0.259548 0.311252 0.362849 0.414165 0.46503 0.515297 0.564819 0.613429 0.66093 0.707098 0.751676 0.794392 0.835004 0.873341 0.910717 0.94114 0.941349 0.940321 0.938461 0.936328 0.934577 0.933067 0.93178 0.930994 0.930007 0.929162 0.929401 0.929304 0.923789 0.883484 0.926803 0.928609 0.930348 0.930574 0.930748 0.93198 0.933719 0.933572 0.930825 0.91757 0.883264 0.817374 0.718064 0.589702 0.444274 0.300365 0.177724 0.090568 0.0399941 0.0159257 0.00597764 0.00217217 0.000773943 0.000271622 9.40045e-05 3.20765e-05 1.07853e-05 3.57111e-06 1.1637e-06 3.73011e-07 1.17559e-07 3.64153e-08 1.10846e-08 3.31441e-09 9.73306e-10 2.81047e-10 7.89302e-11 2.18846e-11 5.53334e-12 1.86504e-12 3.59325e-13 2.91825e-13 -3.75707e-13 -6.26867e-14 8.98689e-13 -9.3754e-14 -2.16094e-13 -8.8824e-14 -4.51986e-13 -4.62159e-14 -2.22788e-13 -6.64014e-13 1.14442e-13 8.6076e-14 2.51034e-13 -7.59253e-13 -3.00098e-13 -2.20854e-13 -2.02939e-13 -7.11034e-13 1.43768e-13 -3.08142e-13 4.7127e-13 -6.22108e-13 -4.31337e-13 1.77188e-13 2.9178e-13 1.32904e-13 -2.45699e-13 -2.91089e-13 -4.59248e-13 3.40038e-14 2.68323e-13 -1.40643e-12 -1.59323e-13 -2.09122e-13 -8.21452e-13 7.99382e-13 -2.11512e-13 2.7154e-13 2.95019e-13 -1.13821e-13 7.35787e-13 -4.11521e-13 0 0 -1.23634e-15 -1.19651e-14 -7.61691e-15 2.72723e-15 4.2272e-14 8.31679e-14 -7.40669e-14 5.97337e-14 -3.79638e-14 -6.2173e-14 4.09275e-14 -1.33719e-13 -5.76915e-16 -1.68984e-13 -8.35163e-14 -4.05754e-13 -1.04563e-13 2.79355e-13 -1.15657e-13 -1.51901e-14 -1.48528e-13 -3.19867e-13 2.92242e-13 -2.72256e-13 -7.25942e-14 2.57677e-13 -2.33142e-13 -2.22366e-13 5.84503e-14 -1.8613e-13 2.91098e-14 -6.22952e-15 -2.08618e-13 2.12976e-13 8.45248e-15 1.75784e-13 5.97917e-13 -6.41063e-13 -1.91818e-13 -2.34313e-13 -2.72879e-13 -6.45393e-13 -5.15694e-14 -1.8584e-13 -1.15707e-13 -2.64193e-14 4.30093e-13 3.56511e-13 1.31654e-13 -1.45805e-13 3.26128e-13 -1.32161e-13 -1.23323e-12 -1.23021e-13 -1.45247e-13 -8.10918e-13 -1.45002e-13 -2.99217e-13 3.98723e-13 3.23743e-13 6e-13 2.25878e-13 -2.43336e-13 3.89305e-13 6.5536e-14 -6.74718e-14 6.11696e-12 6.20321e-11 5.57438e-10 4.63542e-09 3.53997e-08 2.46809e-07 1.5616e-06 8.9041e-06 4.53724e-05 0.000204546 0.000806038 0.00273903 0.00792302 0.0193646 0.0401406 0.0714903 0.111925 0.158437 0.208282 0.259548 0.311252 0.362849 0.414165 0.46503 0.515297 0.564819 0.613429 0.66093 0.707098 0.751676 0.794392 0.835004 0.873341 0.910717 0.94114 0.941349 0.940321 0.938461 0.936328 0.934577 0.933067 0.93178 0.930994 0.930007 0.929162 0.929401 0.929304 0.923789 0.883484 0.926804 0.928609 0.930348 0.930574 0.930748 0.93198 0.933719 0.933572 0.930825 0.91757 0.883264 0.817374 0.718064 0.589702 0.444274 0.300365 0.177724 0.090568 0.0399941 0.0159257 0.00597764 0.00217217 0.000773943 0.000271622 9.40045e-05 3.20765e-05 1.07853e-05 3.57111e-06 1.1637e-06 3.73011e-07 1.17559e-07 3.64161e-08 1.10839e-08 3.31507e-09 9.73406e-10 2.79432e-10 7.92931e-11 2.18627e-11 6.19821e-12 1.42695e-12 -8.04399e-13 1.21757e-12 -3.75376e-13 1.01265e-12 -7.13308e-13 8.781e-13 1.67229e-13 -2.41565e-13 -3.30189e-13 -2.60599e-13 -1.02626e-12 -2.69231e-13 -4.3303e-14 8.71347e-13 9.38899e-14 -1.34364e-13 -3.31111e-13 -7.85164e-13 6.6709e-14 -8.95951e-13 -6.90849e-13 1.85649e-13 -3.11701e-13 -1.86423e-13 2.96144e-13 -7.96095e-13 -2.78349e-13 1.96985e-13 6.37581e-13 -2.77875e-13 2.73952e-13 -5.7153e-13 -1.02384e-13 1.46987e-13 -8.40732e-13 -7.07135e-13 1.86595e-13 -4.89868e-13 1.19437e-12 9.4033e-15 1.4559e-12 1.66493e-13 -3.20839e-13 7.82318e-14 0
				</DataArray>
				<DataArray Name="VitesseY" type="Float32" format="ascii">