<?xml version="1.0"?>
<VTKFile type="PolyData">
	<PolyData>
		<Piece NumberOfPoints="1206" NumberOfPolys="1000">
			<Points>
				<DataArray type="Float32" NumberOfComponents="3" format="ascii">
 0 0 0 0.005 0 0 0.01 0 0 0.015 0 0 0.02 0 0 0.025 0 0 0.03 0 0 0.035 0 0 0.04 0 0 0.045 0 0 0.05 0 0 0.055 0 0 0.06 0 0 0.065 0 0 0.07 0 0 0.075 0 0 0.08 0 0 0.085 0 0 0.09 0 0 0.095 0 0 0.1 0 0 0.105 0 0 0.11 0 0 0.115 0 0 0.12 0 0 0.125 0 0 0.13 0 0 0.135 0 0 0.14 0 0 0.145 0 0 0.15 0 0 0.155 0 0 0.16 0 0 0.165 0 0 0.17 0 0 0.175 0 0 0.18 0 0 0.185 0 0 0.19 0 0 0.195 0 0 0.2 0 0 0.205 0 0 0.21 0 0 0.215 0 0 0.22 0 0 0.225 0 0 0.23 0 0 0.235 0 0 0.24 0 0 0.245 0 0 0.25 0 0 0.255 0 0 0.26 0 0 0.265 0 0 0.27 0 0 0.275 0 0 0.28 0 0 0.285 0 0 0.29 0 0 0.295 0 0 0.3 0 0 0.305 0 0 0.31 0 0 0.315 0 0 0.32 0 0 0.325 0 0 0.33 0 0 0.335 0 0 0.34 0 0 0.345 0 0 0.35 0 0 0.355 0 0 0.36 0 0 0.365 0 0 0.37 0 0 0.375 0 0 0.38 0 0 0.385 0 0 0.39 0 0 0.395 0 0 0.4 0 0 0.405 0 0 0.41 0 0 0.415 0 0 0.42 0 0 0.425 0 0 0.43 0 0 0.435 0 0 0.44 0 0 0.445 0 0 0.45 0 0 0.455 0 0 0.46 0 0 0.465 0 0 0.47 0 0 0.475 0 0 0.48 0 0 0.485 0 0 0.49 0 0 0.495 0 0 0.5 0 0 0.505 0 0 0.51 0 0 0.515 0 0 0.52 0 0 0.525 0 0 0.53 0 0 0.535 0 0 0.54 0 0 0.545 0 0 0.55 0 0 0.555 0 0 0.56 0 0 0.565 0 0 0.57 0 0 0.575 0 0 0.58 0 0 0.585 0 0 0.59 0 0 0.595 0 0 0.6 0 0 0.605 0 0 0.61 0 0 0.615 0 0 0.62 0 0 0.625 0 0 0.63 0 0 0.635 0 0 0.64 0 0 0.645 0 0 0.65 0 0 0.655 0 0 0.66 0 0 0.665 0 0 0.67 0 0 0.675 0 0 0.68 0 0 0.685 0 0 0.69 0 0 0.695 0 0 0.7 0 0 0.705 0 0 0.71 0 0 0.715 0 0 0.72 0 0 0.725 0 0 0.73 0 0 0.735 0 0 0.74 0 0 0.745 0 0 0.75 0 0 0.755 0 0 0.76 0 0 0.765 0 0 0.77 0 0 0.775 0 0 0.78 0 0 0.785 0 0 0.79 0 0 0.795 0 0 0.8 0 0 0.805 0 0 0.81 0 0 0.815 0 0 0.82 0 0 0.825 0 0 0.83 0 0 0.835 0 0 0.84 0 0 0.845 0 0 0.85 0 0 0.855 0 0 0.86 0 0 0.865 0 0 0.87 0 0 0.875 0 0 0.88 0 0 0.885 0 0 0.89 0 0 0.895 0 0 0.9 0 0 0.905 0 0 0.91 0 0 0.915 0 0 0.92 0 0 0.925 0 0 0.93 0 0 0.935 0 0 0.94 0 0 0.945 0 0 0.95 0 0 0.955 0 0 0.96 0 0 0.965 0 0 0.97 0 0 0.975 0 0 0.98 0 0 0.985 0 0 0.99 0 0 0.995 0 0 1 0 0 0 0.02 0 0.005 0.02 0 0.01 0.02 0 0.015 0.02 0 0.02 0.02 0 0.025 0.02 0 0.03 0.02 0 0.035 0.02 0 0.04 0.02 0 0.045 0.02 0 0.05 0.02 0 0.055 0.02 0 0.06 0.02 0 0.065 0.02 0 0.07 0.02 0 0.075 0.02 0 0.08 0.02 0 0.085 0.02 0 0.09 0.02 0 0.095 0.02 0 0.1 0.02 0 0.105 0.02 0 0.11 0.02 0 0.115 0.02 0 0.12 0.02 0 0.125 0.02 0 0.13 0.02 0 0.135 0.02 0 0.14 0.02 0 0.145 0.02 0 0.15 0.02 0 0.155 0.02 0 0.16 0.02 0 0.165 0.02 0 0.17 0.02 0 0.175 0.02 0 0.18 0.02 0 0.185 0.02 0 0.19 0.02 0 0.195 0.02 0 0.2 0.02 0 0.205 0.02 0 0.21 0.02 0 0.215 0.02 0 0.22 0.02 0 0.225 0.02 0 0.23 0.02 0 0.235 0.02 0 0.24 0.02 0 0.245 0.02 0 0.25 0.02 0 0.255 0.02 0 0.26 0.02 0 0.265 0.02 0 0.27 0.02 0 0.275 0.02 0 0.28 0.02 0 0.285 0.02 0 0.29 0.02 0 0.295 0.02 0 0.3 0.02 0 0.305 0.02 0 0.31 0.02 0 0.315 0.02 0 0.32 0.02 0 0.325 0.02 0 0.33 0.02 0 0.335 0.02 0 0.34 0.02 0 0.345 0.02 0 0.35 0.02 0 0.355 0.02 0 0.36 0.02 0 0.365 0.02 0 0.37 0.02 0 0.375 0.02 0 0.38 0.02 0 0.385 0.02 0 0.39 0.02 0 0.395 0.02 0 0.4 0.02 0 0.405 0.02 0 0.41 0.02 0 0.415 0.02 0 0.42 0.02 0 0.425 0.02 0 0.43 0.02 0 0.435 0.02 0 0.44 0.02 0 0.445 0.02 0 0.45 0.02 0 0.455 0.02 0 0.46 0.02 0 0.465 0.02 0 0.47 0.02 0 0.475 0.02 0 0.48 0.02 0 0.485 0.02 0 0.49 0.02 0 0.495 0.02 0 0.5 0.02 0 0.505 0.02 0 0.51 0.02 0 0.515 0.02 0 0.52 0.02 0 0.525 0.02 0 0.53 0.02 0 0.535 0.02 0 0.54 0.02 0 0.545 0.02 0 0.55 0.02 0 0.555 0.02 0 0.56 0.02 0 0.565 0.02 0 0.57 0.02 0 0.575 0.02 0 0.58 0.02 0 0.585 0.02 0 0.59 0.02 0 0.595 0.02 0 0.6 0.02 0 0.605 0.02 0 0.61 0.02 0 0.615 0.02 0 0.62 0.02 0 0.625 0.02 0 0.63 0.02 0 0.635 0.02 0 0.64 0.02 0 0.645 0.02 0 0.65 0.02 0 0.655 0.02 0 0.66 0.02 0 0.665 0.02 0 0.67 0.02 0 0.675 0.02 0 0.68 0.02 0 0.685 0.02 0 0.69 0.02 0 0.695 0.02 0 0.7 0.02 0 0.705 0.02 0 0.71 0.02 0 0.715 0.02 0 0.72 0.02 0 0.725 0.02 0 0.73 0.02 0 0.735 0.02 0 0.74 0.02 0 0.745 0.02 0 0.75 0.02 0 0.755 0.02 0 0.76 0.02 0 0.765 0.02 0 0.77 0.02 0 0.775 0.02 0 0.78 0.02 0 0.785 0.02 0 0.79 0.02 0 0.795 0.02 0 0.8 0.02 0 0.805 0.02 0 0.81 0.02 0 0.815 0.02 0 0.82 0.02 0 0.825 0.02 0 0.83 0.02 0 0.835 0.02 0 0.84 0.02 0 0.845 0.02 0 0.85 0.02 0 0.855 0.02 0 0.86 0.02 0 0.865 0.02 0 0.87 0.02 0 0.875 0.02 0 0.88 0.02 0 0.885 0.02 0 0.89 0.02 0 0.895 0.02 0 0.9 0.02 0 0.905 0.02 0 0.91 0.02 0 0.915 0.02 0 0.92 0.02 0 0.925 0.02 0 0.93 0.02 0 0.935 0.02 0 0.94 0.02 0 0.945 0.02 0 0.95 0.02 0 0.955 0.02 0 0.96 0.02 0 0.965 0.02 0 0.97 0.02 0 0.975 0.02 0 0.98 0.02 0 0.985 0.02 0 0.99 0.02 0 0.995 0.02 0 1 0.02 0 0 0.04 0 0.005 0.04 0 0.01 0.04 0 0.015 0.04 0 0.02 0.04 0 0.025 0.04 0 0.03 0.04 0 0.035 0.04 0 0.04 0.04 0 0.045 0.04 0 0.05 0.04 0 0.055 0.04 0 0.06 0.04 0 0.065 0.04 0 0.07 0.04 0 0.075 0.04 0 0.08 0.04 0 0.085 0.04 0 0.09 0.04 0 0.095 0.04 0 0.1 0.04 0 0.105 0.04 0 0.11 0.04 0 0.115 0.04 0 0.12 0.04 0 0.125 0.04 0 0.13 0.04 0 0.135 0.04 0 0.14 0.04 0 0.145 0.04 0 0.15 0.04 0 0.155 0.04 0 0.16 0.04 0 0.165 0.04 0 0.17 0.04 0 0.175 0.04 0 0.18 0.04 0 0.185 0.04 0 0.19 0.04 0 0.195 0.04 0 0.2 0.04 0 0.205 0.04 0 0.21 0.04 0 0.215 0.04 0 0.22 0.04 0 0.225 0.04 0 0.23 0.04 0 0.235 0.04 0 0.24 0.04 0 0.245 0.04 0 0.25 0.04 0 0.255 0.04 0 0.26 0.04 0 0.265 0.04 0 0.27 0.04 0 0.275 0.04 0 0.28 0.04 0 0.285 0.04 0 0.29 0.04 0 0.295 0.04 0 0.3 0.04 0 0.305 0.04 0 0.31 0.04 0 0.315 0.04 0 0.32 0.04 0 0.325 0.04 0 0.33 0.04 0 0.335 0.04 0 0.34 0.04 0 0.345 0.04 0 0.35 0.04 0 0.355 0.04 0 0.36 0.04 0 0.365 0.04 0 0.37 0.04 0 0.375 0.04 0 0.38 0.04 0 0.385 0.04 0 0.39 0.04 0 0.395 0.04 0 0.4 0.04 0 0.405 0.04 0 0.41 0.04 0 0.415 0.04 0 0.42 0.04 0 0.425 0.04 0 0.43 0.04 0 0.435 0.04 0 0.44 0.04 0 0.445 0.04 0 0.45 0.04 0 0.455 0.04 0 0.46 0.04 0 0.465 0.04 0 0.47 0.04 0 0.475 0.04 0 0.48 0.04 0 0.485 0.04 0 0.49 0.04 0 0.495 0.04 0 0.5 0.04 0 0.505 0.04 0 0.51 0.04 0 0.515 0.04 0 0.52 0.04 0 0.525 0.04 0 0.53 0.04 0 0.535 0.04 0 0.54 0.04 0 0.545 0.04 0 0.55 0.04 0 0.555 0.04 0 0.56 0.04 0 0.565 0.04 0 0.57 0.04 0 0.575 0.04 0 0.58 0.04 0 0.585 0.04 0 0.59 0.04 0 0.595 0.04 0 0.6 0.04 0 0.605 0.04 0 0.61 0.04 0 0.615 0.04 0 0.62 0.04 0 0.625 0.04 0 0.63 0.04 0 0.635 0.04 0 0.64 0.04 0 0.645 0.04 0 0.65 0.04 0 0.655 0.04 0 0.66 0.04 0 0.665 0.04 0 0.67 0.04 0 0.675 0.04 0 0.68 0.04 0 0.685 0.04 0 0.69 0.04 0 0.695 0.04 0 0.7 0.04 0 0.705 0.04 0 0.71 0.04 0 0.715 0.04 0 0.72 0.04 0 0.725 0.04 0 0.73 0.04 0 0.735 0.04 0 0.74 0.04 0 0.745 0.04 0 0.75 0.04 0 0.755 0.04 0 0.76 0.04 0 0.765 0.04 0 0.77 0.04 0 0.775 0.04 0 0.78 0.04 0 0.785 0.04 0 0.79 0.04 0 0.795 0.04 0 0.8 0.04 0 0.805 0.04 0 0.81 0.04 0 0.815 0.04 0 0.82 0.04 0 0.825 0.04 0 0.83 0.04 0 0.835 0.04 0 0.84 0.04 0 0.845 0.04 0 0.85 0.04 0 0.855 0.04 0 0.86 0.04 0 0.865 0.04 0 0.87 0.04 0 0.875 0.04 0 0.88 0.04 0 0.885 0.04 0 0.89 0.04 0 0.895 0.04 0 0.9 0.04 0 0.905 0.04 0 0.91 0.04 0 0.915 0.04 0 0.92 0.04 0 0.925 0.04 0 0.93 0.04 0 0.935 0.04 0 0.94 0.04 0 0.945 0.04 0 0.95 0.04 0 0.955 0.04 0 0.96 0.04 0 0.965 0.04 0 0.97 0.04 0 0.975 0.04 0 0.98 0.04 0 0.985 0.04 0 0.99 0.04 0 0.995 0.04 0 1 0.04 0 0 0.06 0 0.005 0.06 0 0.01 0.06 0 0.015 0.06 0 0.02 0.06 0 0.025 0.06 0 0.03 0.06 0 0.035 0.06 0 0.04 0.06 0 0.045 0.06 0 0.05 0.06 0 0.055 0.06 0 0.06 0.06 0 0.065 0.06 0 0.07 0.06 0 0.075 0.06 0 0.08 0.06 0 0.085 0.06 0 0.09 0.06 0 0.095 0.06 0 0.1 0.06 0 0.105 0.06 0 0.11 0.06 0 0.115 0.06 0 0.12 0.06 0 0.125 0.06 0 0.13 0.06 0 0.135 0.06 0 0.14 0.06 0 0.145 0.06 0 0.15 0.06 0 0.155 0.06 0 0.16 0.06 0 0.165 0.06 0 0.17 0.06 0 0.175 0.06 0 0.18 0.06 0 0.185 0.06 0 0.19 0.06 0 0.195 0.06 0 0.2 0.06 0 0.205 0.06 0 0.21 0.06 0 0.215 0.06 0 0.22 0.06 0 0.225 0.06 0 0.23 0.06 0 0.235 0.06 0 0.24 0.06 0 0.245 0.06 0 0.25 0.06 0 0.255 0.06 0 0.26 0.06 0 0.265 0.06 0 0.27 0.06 0 0.275 0.06 0 0.28 0.06 0 0.285 0.06 0 0.29 0.06 0 0.295 0.06 0 0.3 0.06 0 0.305 0.06 0 0.31 0.06 0 0.315 0.06 0 0.32 0.06 0 0.325 0.06 0 0.33 0.06 0 0.335 0.06 0 0.34 0.06 0 0.345 0.06 0 0.35 0.06 0 0.355 0.06 0 0.36 0.06 0 0.365 0.06 0 0.37 0.06 0 0.375 0.06 0 0.38 0.06 0 0.385 0.06 0 0.39 0.06 0 0.395 0.06 0 0.4 0.06 0 0.405 0.06 0 0.41 0.06 0 0.415 0.06 0 0.42 0.06 0 0.425 0.06 0 0.43 0.06 0 0.435 0.06 0 0.44 0.06 0 0.445 0.06 0 0.45 0.06 0 0.455 0.06 0 0.46 0.06 0 0.465 0.06 0 0.47 0.06 0 0.475 0.06 0 0.48 0.06 0 0.485 0.06 0 0.49 0.06 0 0.495 0.06 0 0.5 0.06 0 0.505 0.06 0 0.51 0.06 0 0.515 0.06 0 0.52 0.06 0 0.525 0.06 0 0.53 0.06 0 0.535 0.06 0 0.54 0.06 0 0.545 0.06 0 0.55 0.06 0 0.555 0.06 0 0.56 0.06 0 0.565 0.06 0 0.57 0.06 0 0.575 0.06 0 0.58 0.06 0 0.585 0.06 0 0.59 0.06 0 0.595 0.06 0 0.6 0.06 0 0.605 0.06 0 0.61 0.06 0 0.615 0.06 0 0.62 0.06 0 0.625 0.06 0 0.63 0.06 0 0.635 0.06 0 0.64 0.06 0 0.645 0.06 0 0.65 0.06 0 0.655 0.06 0 0.66 0.06 0 0.665 0.06 0 0.67 0.06 0 0.675 0.06 0 0.68 0.06 0 0.685 0.06 0 0.69 0.06 0 0.695 0.06 0 0.7 0.06 0 0.705 0.06 0 0.71 0.06 0 0.715 0.06 0 0.72 0.06 0 0.725 0.06 0 0.73 0.06 0 0.735 0.06 0 0.74 0.06 0 0.745 0.06 0 0.75 0.06 0 0.755 0.06 0 0.76 0.06 0 0.765 0.06 0 0.77 0.06 0 0.775 0.06 0 0.78 0.06 0 0.785 0.06 0 0.79 0.06 0 0.795 0.06 0 0.8 0.06 0 0.805 0.06 0 0.81 0.06 0 0.815 0.06 0 0.82 0.06 0 0.825 0.06 0 0.83 0.06 0 0.835 0.06 0 0.84 0.06 0 0.845 0.06 0 0.85 0.06 0 0.855 0.06 0 0.86 0.06 0 0.865 0.06 0 0.87 0.06 0 0.875 0.06 0 0.88 0.06 0 0.885 0.06 0 0.89 0.06 0 0.895 0.06 0 0.9 0.06 0 0.905 0.06 0 0.91 0.06 0 0.915 0.06 0 0.92 0.06 0 0.925 0.06 0 0.93 0.06 0 0.935 0.06 0 0.94 0.06 0 0.945 0.06 0 0.95 0.06 0 0.955 0.06 0 0.96 0.06 0 0.965 0.06 0 0.97 0.06 0 0.975 0.06 0 0.98 0.06 0 0.985 0.06 0 0.99 0.06 0 0.995 0.06 0 1 0.06 0 0 0.08 0 0.005 0.08 0 0.01 0.08 0 0.015 0.08 0 0.02 0.08 0 0.025 0.08 0 0.03 0.08 0 0.035 0.08 0 0.04 0.08 0 0.045 0.08 0 0.05 0.08 0 0.055 0.08 0 0.06 0.08 0 0.065 0.08 0 0.07 0.08 0 0.075 0.08 0 0.08 0.08 0 0.085 0.08 0 0.09 0.08 0 0.095 0.08 0 0.1 0.08 0 0.105 0.08 0 0.11 0.08 0 0.115 0.08 0 0.12 0.08 0 0.125 0.08 0 0.13 0.08 0 0.135 0.08 0 0.14 0.08 0 0.145 0.08 0 0.15 0.08 0 0.155 0.08 0 0.16 0.08 0 0.165 0.08 0
[...]
			<PointData Scalars="VitesseX">
				<DataArray Name="VitesseX" type="Float32" format="ascii">
 0 -7.92393e-15 -6.75609e-15 2.01176e-14 7.86688e-15 -6.59431e-15 3.62895e-14 -1.86428e-14 1.46085e-14 -4.82162e-14 -1.36737e-14 -2.96772e-14 6.08769e-14 9.44692e-14 -1.84626e-13 4.05566e-14 -1.29473e-13 -9.45201e-14 3.07288e-15 -5.28403e-14 -1.55247e-13 -1.07346e-13 -1.33856e-13 -1.96824e-13 1.24443e-13 -8.89498e-14 -2.06194e-13 -2.98812e-14 -3.11161e-13 -1.38685e-13 -2.06674e-14 -7.10494e-14 -1.44634e-14 -1.51793e-13 -1.98554e-13 -1.73939e-13 -1.23464e-14 -1.63887e-13 -6.37299e-14 1.89697e-13 -2.88866e-13 2.05213e-13 -5.59466e-14 5.68656e-13 3.10333e-12 2.1428e-11 1.30488e-10 7.43526e-10 4.00647e-09 2.03911e-08 9.77876e-08 4.40604e-07 1.85918e-06 7.31963e-06 2.67723e-05 9.05182e-05 0.000281266 0.000797964 0.00205277 0.00475894 0.00990552 0.0185057 0.0311751 0.0478249 0.0677314 0.0899178 0.113528 0.137979 0.162919 0.188162 0.213617 0.239212 0.264891 0.290611 0.316332 0.342036 0.36771 0.393342 0.418922 0.444441 0.469888 0.495255 0.520531 0.545706 0.570767 0.595702 0.620494 0.645128 0.669584 0.693843 0.717882 0.741676 0.765203 0.788439 0.811368 0.833982 0.856289 0.878325 0.900185 0.92213 0.938652 0.938755 0.93824 0.937463 0.936497 0.935406 0.934253 0.933099 0.931981 0.930999 0.930147 0.929425 0.928824 0.928359 0.928061 0.927817 0.927666 0.927547 0.927436 0.927388 0.927273 0.927177 0.927059 0.92708 0.927298 0.927812 0.927703 0.927372 0.926633 0.928554 0.891294 0.926164 0.927511 0.928858 0.929025 0.928923 0.928715 0.928485 0.928246 0.928056 0.928049 0.928084 0.928088 0.928074 0.928039 0.927993 0.927938 0.927877 0.927784 0.927876 0.928253 0.928262 0.926706 0.919291 0.898747 0.854274 0.779285 0.672979 0.541777 0.398983 0.262931 0.151793 0.0760389 0.0335758 0.0136475 0.00531316 0.00202733 0.000766611 0.000288574 0.000108311 4.05532e-05 1.51464e-05 5.64214e-06 2.09559e-06 7.75805e-07 2.86175e-07 1.05144e-07 3.84621e-08 1.40032e-08 5.07156e-09 1.82705e-09 6.53708e-10 2.32401e-10 8.21111e-11 2.86632e-11 9.5299e-12 3.02565e-12 1.29796e-12 4.51328e-13 6.49964e-13 -1.78784e-13 -6.65632e-13 7.64384e-13 1.03947e-13 -2.49885e-13 5.14099e-13 2.3338e-13 -3.53894e-13 4.61704e-13 -1.495e-13 0 0 -7.82278e-15 8.25798e-15 -4.25745e-15 2.70936e-14 4.02685e-14 -7.74378e-15 -5.82729e-15 -4.6257e-14 3.46851e-14 -4.85075e-14 5.95646e-14 -1.5197e-14 -1.50536e-13 8.93063e-14 -7.95591e-14 -9.22659e-15 -8.19971e-14 -8.90617e-14 -4.32874e-14 -1.52738e-13 -9.61459e-14 -1.69042e-14 -7.15571e-14 -1.45186e-13 -3.49545e-14 -4.61777e-14 -3.11717e-13 -4.69018e-14 5.04247e-14 -1.6395e-13 -4.86315e-14 -1.72141e-13 -1.71695e-13 -1.27637e-13 -1.92154e-13 -3.25136e-14 -4.94605e-14 -5.97962e-14 -1.55609e-13 1.12588e-13 -2.93997e-13 1.41903e-13 3.2195e-13 3.21648e-12 2.15803e-11 1.30581e-10 7.43458e-10 4.00653e-09 2.03906e-08 9.77876e-08 4.40605e-07 1.85918e-06 7.31963e-06 2.67723e-05 9.05182e-05 0.000281266 0.000797965 0.00205277 0.00475894 0.00990552 0.0185057 0.0311751 0.0478249 0.0677314 0.0899178 0.113528 0.137979 0.162919 0.188162 0.213617 0.239212 0.264891 0.290611 0.316332 0.342036 0.36771 0.393342 0.418922 0.444441 0.469888 0.495255 0.520531 0.545706 0.570767 0.595702 0.620494 0.645128 0.669584 0.693843 0.717882 0.741676 0.765203 0.788439 0.811368 0.833982 0.856289 0.878325 0.900185 0.92213 0.938652 0.938755 0.93824 0.937463 0.936497 0.935406 0.934253 0.933099 0.931981 0.930999 0.930147 0.929425 0.928824 0.928359 0.928061 0.927817 0.927666 0.927547 0.927436 0.927388 0.927273 0.927177 0.927059 0.92708 0.927298 0.927812 0.927703 0.927372 0.926633 0.928554 0.891294 0.926164 0.927511 0.928858 0.929025 0.928923 0.928715 0.928485 0.928246 0.928056 0.928049 0.928084 0.928088 0.928074 0.928039 0.927993 0.927938 0.927877 0.927784 0.927876 0.928253 0.928262 0.926706 0.919291 0.898747 0.854274 0.779285 0.672979 0.541777 0.398983 0.262931 0.151793 0.0760389 0.0335758 0.0136475 0.00531316 0.00202733 0.000766611 0.000288574 0.000108311 4.05532e-05 1.51464e-05 5.64214e-06 2.09559e-06 7.75805e-07 2.86175e-07 1.05143e-07 3.84626e-08 1.40031e-08 5.07193e-09 1.82666e-09 6.54063e-10 2.32442e-10 8.1973e-11 2.86506e-11 9.81116e-12 3.45884e-12 9.29814e-13 2.43692e-13 -4.7877e-14 -1.31464e-13 7.37215e-13 3.31777e-14 4.0792e-13 2.6411e-13 -4.87936e-13 -6.28341e-14 5.67065e-13 8.73197e-14 3.18352e-13 0 0 -6.34115e-15 -1.12721e-14 -6.27947e-15 -2.10989e-14 -2.76011e-15 3.81479e-14 -2.00631e-14 4.60284e-14 -1.86882e-16 -1.45773e-14 -7.53986e-14 2.77175e-14 8.06281e-14 -1.05442e-13 1.84023e-14 -3.07606e-14 -2.44447e-14 1.75017e-14 -8.66393e-14 -1.17323e-13 8.7141e-14 -1.53426e-13 -1.53831e-13 2.12389e-14 -8.2328e-14 -1.83505e-13 6.14798e-14 -2.55143e-13 -1.06696e-13 -5.60944e-14 -7.24257e-14 -1.82484e-13 -1.77404e-13 -3.07557e-13 -6.21488e-14 -5.08285e-14 4.91199e-15 -8.31361e-14 -6.75693e-14 -2.87786e-13 -3.94942e-14 2.07157e-14 2.96562e-13 3.49385e-12 2.15875e-11 1.30481e-10 7.43758e-10 4.00609e-09 2.03908e-08 9.7788e-08 4.40605e-07 1.85918e-06 7.31963e-06 2.67723e-05 9.05182e-05 0.000281266 0.000797965 0.00205277 0.00475894 0.00990552 0.0185057 0.0311751 0.0478249 0.0677314 0.0899178 0.113528 0.137979 0.162919 0.188162 0.213617 0.239212 0.264891 0.290611 0.316332 0.342036 0.36771 0.393342 0.418922 0.444441 0.469888 0.495255 0.520531 0.545706 0.570767 0.595702 0.620494 0.645128 0.669584 0.693843 0.717882 0.741676 0.765203 0.788439 0.811368 0.833982 0.856289 0.878325 0.900185 0.92213 0.938652 0.938755 0.93824 0.937463 0.936497 0.935406 0.934253 0.933099 0.931981 0.930999 0.930147 0.929425 0.928824 0.928359 0.928061 0.927817 0.927666 0.927547 0.927436 0.927388 0.927273 0.927177 0.927059 0.92708 0.927298 0.927812 0.927703 0.927372 0.926633 0.928554 0.891294 0.926164 0.927511 0.928859 0.929025 0.928923 0.928715 0.928485 0.928246 0.928056 0.928049 0.928084 0.928088 0.928074 0.928039 0.927993 0.927938 0.927877 0.927784 0.927876 0.928253 0.928262 0.926706 0.919291 0.898747 0.854274 0.779285 0.672979 0.541777 0.398983 0.262931 0.151793 0.0760389 0.0335758 0.0136475 0.00531316 0.00202733 0.000766611 0.000288574 0.000108311 4.05532e-05 1.51464e-05 5.64214e-06 2.09559e-06 7.75805e-07 2.86175e-07 1.05144e-07 3.84625e-08 1.40036e-08 5.07208e-09 1.82677e-09 6.54187e-10 2.32795e-10 8.18888e-11 2.87303e-11 1.02534e-11 3.04472e-12 9.26906e-13 -2.44772e-13 -3.3464e-13 9.23467e-13 -7.69516e-13 8.76681e-13 1.93533e-13 2.7813e-13 2.70396e-13 -6.79986e-13 -2.39996e-13 6.91507e-13 2.37926e-13 0 0 -9.12739e-15 -2.59186e-14 -7.75208e-15 -4.73272e-14 -4.62718e-14 2.95409e-14 -5.27728e-14 -3.64276e-14 2.96572e-15 1.0693e-14 1.91982e-14 1.09563e-13 3.59091e-14 -2.70761e-14 2.85716e-14 -3.02261e-14 -3.27414e-14 -2.80096e-14 3.0867e-14 8.80327e-14 -1.0871e-13 -3.21273e-14 -1.53023e-13 -6.60073e-14 -1.25807e-13 -1.02777e-13 -1.76274e-13 -2.04595e-13 -4.93154e-14 -1.6149e-14 -1.91547e-13 -1.71992e-13 -2.81131e-13 -1.08828e-13 -1.84296e-13 -2.93186e-14 -1.08821e-13 4.10359e-14 -9.86712e-14 -1.84411e-13 -3.03625e-14 -3.30802e-14 4.78153e-13 3.34779e-12 2.17973e-11 1.30793e-10 7.43758e-10 4.00619e-09 2.03908e-08 9.77881e-08 4.40605e-07 1.85918e-06 7.31963e-06 2.67723e-05 9.05182e-05 0.000281266 0.000797965 0.00205277 0.00475894 0.00990552 0.0185057 0.0311751 0.0478249 0.0677314 0.0899178 0.113528 0.137979 0.162919 0.188162 0.213617 0.239212 0.264891 0.290611 0.316332 0.342036 0.36771 0.393342 0.418922 0.444441 0.469888 0.495255 0.520531 0.545706 0.570767 0.595702 0.620494 0.645128 0.669584 0.693843 0.717882 0.741676 0.765203 0.788439 0.811368 0.833982 0.856289 0.878325 0.900185 0.92213 0.938652 0.938755 0.93824 0.937463 0.936497 0.935406 0.934253 0.933099 0.931981 0.930999 0.930147 0.929425 0.928824 0.928359 0.928061 0.927817 0.927666 0.927547 0.927436 0.927388 0.927273 0.927177 0.927059 0.92708 0.927298 0.927812 0.927703 0.927372 0.926633 0.928554 0.891294 0.926164 0.927511 0.928858 0.929025 0.928923 0.928715 0.928485 0.928246 0.928056 0.928049 0.928084 0.928088 0.928074 0.928039 0.927992 0.927938 0.927877 0.927784 0.927876 0.928253 0.928262 0.926706 0.919291 0.898747 0.854274 0.779285 0.672979 0.541777 0.398983 0.262931 0.151793 0.0760389 0.0335758 0.0136475 0.00531316 0.00202733 0.000766611 0.000288574 0.000108311 4.05532e-05 1.51464e-05 5.64214e-06 2.09559e-06 7.75805e-07 2.86176e-07 1.05144e-07 3.84627e-08 1.40033e-08 5.07245e-09 1.82721e-09 6.5396e-10 2.32593e-10 8.24214e-11 2.86904e-11 9.38171e-12 3.3721e-12 5.45581e-13 1.17395e-13 -1.52281e-13 -2.00248e-13 1.56114e-13 -1.84707e-13 7.35847e-13 -6.28212e-13 1.76444e-13 4.90924e-13 -2.23141e-13 1.45287e-13 -3.28631e-13 0 0 -1.40149e-14 -5.01252e-15 -3.32072e-14 -6.82577e-15 -2.85225e-14 -4.28461e-14 -3.76648e-14 -1.05629e-13 6.77476e-14 -3.97364e-14 1.03554e-13 1.72033e-14 -1.43836e-13 1.7532e-13 -4.22836e-14 1.13644e-13 -2.63502e-14 -3.76831e-14 2.81962e-14 2.16447e-14 -2.31596e-13 2.1903e-14 -4.37115e-14 -2.18206e-13 -7.561e-14 -6.00429e-14 -4.96818e-13 -4.87897e-14 8.53e-14 -1.99433e-13 -8.36873e-14 -1.2602e-13 -1.73245e-13 -1.19128e-14 -1.66188e-13 6.10967e-14 4.55737e-15 -5.0583e-14 -2.33703e-13 1.44275e-13 -4.18099e-13 4.16906e-14 3.4424e-13 3.34238e-12 2.17556e-11 1.31055e-10 7.43763e-10 4.00649e-09 2.03904e-08 9.77879e-08 4.40605e-07 1.85918e-06 7.31964e-06 2.67723e-05 9.05182e-05 0.000281266 0.000797965 0.00205277 0.00475894 0.00990552 0.0185057 0.0311751 0.0478249 0.0677314 0.0899178 0.113528 0.137979 0.162919 0.188162 0.213617 0.239212 0.264891 0.290611 0.316332 0.342036 0.36771 0.393342 0.418922 0.444441 0.469888 0.495255 0.520531 0.545706 0.570767 0.595702 0.620494 0.645128 0.669584 0.693843 0.717882 0.741676 0.765203 0.788439 0.811368 0.833982 0.856289 0.878325 0.900185 0.92213 0.938652 0.938755 0.93824 0.937463 0.936497 0.935406 0.934253 0.933099 0.931981 0.930999 0.930147 0.929425 0.928824 0.928359 0.928061 0.927817 0.927666 0.927547 0.927436 0.927388 0.927273 0.927177 0.927059 0.92708 0.927298 0.927812 0.927703 0.927372 0.926633 0.928554 0.891294 0.926164 0.927511 0.928858 0.929025 0.928923 0.928715 0.928485 0.928246 0.928056 0.928049 0.928084 0.928088 0.928074 0.928039 0.927992 0.927938 0.927877 0.927784 0.927876 0.928253 0.928262 0.926706 0.919291 0.898747 0.854274 0.779285 0.672979 0.541777 0.398983 0.262931 0.151793 0.0760389 0.0335758 0.0136475 0.00531316 0.00202733 0.000766611 0.000288574 0.000108311 4.05532e-05 1.51464e-05 5.64214e-06 2.09559e-06 7.75805e-07 2.86176e-07 1.05143e-07 3.8463e-08 1.40032e-08 5.07238e-09 1.82709e-09 6.54176e-10 2.32392e-10 8.23543e-11 2.85865e-11 9.38825e-12 3.38637e-12 -1.32134e-13 7.90646e-14 1.95904e-13 -8.85387e-13 9.45419e-13 -6.32442e-13 2.74516e-13 -3.66832e-14 -4.00126e-13 1.03949e-12 4.91507e-13 -3.89199e-13 -2.44281e-13 0 0 -1.47356e-14 -4.00396e-15 -3.48367e-14 -7.51539e-15 -5.71529e-14 -1.67012e-14 -1.68984e-14 6.07756e-14 1.16037e-14 -4.66721e-14 -1.30892e-13 -3.80146e-14 1.97307e-13 -1.69331e-13 9.4769e-14 1.152e-13 3.33672e-14 1.96853e-13 -1.44886e-13 -2.17192e-13 1.34541e-14 -2.98839e-13 -1.42749e-13 1.52895e-13 -8.33033e-14 -3.95379e-13 7.54247e-14 -4.16031e-13 -1.83696e-13 -1.71524e-13 9.70808e-14 5.67952e-14 5.25596e-14 -3.64564e-13 1.22286e-13 1.31855e-13 1.71614e-13 -2.93648e-13 9.5712e-14 -4.32242e-13 -6.12559e-14 -1.48779e-13 2.50054e-13 3.64725e-12 2.13591e-11 1.30812e-10 7.44137e-10 4.00619e-09 2.03907e-08 9.77881e-08 4.40605e-07 1.85918e-06 7.31964e-06 2.67723e-05 9.05182e-05 0.000281266 0.000797965 0.00205277 0.00475894 0.00990552 0.0185057 0.0311751 0.0478249 0.0677314 0.0899178 0.113528 0.137979 0.162919 0.188162 0.213617 0.239212 0.264891 0.290611 0.316332 0.342036 0.36771 0.393342 0.418922 0.444441 0.469888 0.495255 0.520531 0.545706 0.570767 0.595702 0.620494 0.645128 0.669584 0.693843 0.717882 0.741676 0.765203 0.788439 0.811368 0.833982 0.856289 0.878325 0.900185 0.92213 0.938652 0.938755 0.93824 0.937463 0.936497 0.935406 0.934253 0.933099 0.931981 0.930999 0.930147 0.929425 0.928824 0.928359 0.928061 0.927817 0.927666 0.927547 0.927436 0.927388 0.927273 0.927177 0.927059 0.92708 0.927298 0.927812 0.927703 0.927372 0.926633 0.928554 0.891294 0.926164 0.927511 0.928859 0.929025 0.928923 0.928715 0.928485 0.928246 0.928056 0.928049 0.928084 0.928088 0.928074 0.928039 0.927992 0.927938 0.927877 0.927784 0.927876 0.928253 0.928262 0.926706 0.919291 0.898747 0.854274 0.779285 0.672979 0.541777 0.398983 0.262931 0.151793 0.0760389 0.0335758 0.0136475 0.00531316 0.00202733 0.000766611 0.000288574 0.000108311 4.05532e-05 1.51464e-05 5.64214e-06 2.09559e-06 7.75805e-07 2.86175e-07 1.05144e-07 3.84626e-08 1.40038e-08 5.07172e-09 1.82702e-09 6.54387e-10 2.32705e-10 8.18084e-11 2.8615e-11 1.04274e-11 2.22594e-12 -6.32905e-14 -6.02261e-13 7.72809e-13 5.60799e-13 -2.10049e-12 1.55592e-12 -1.24749e-12 9.61212e-13 8.77624e-13 9.62061e-14 -5.38719e-13 6.01108e-13 -1.41651e-13 0
				</DataArray>
				<DataArray Name="VitesseY" type="Float32" format="ascii">