<?xml version="1.0"?>
<VTKFile type="PolyData">
	<PolyData>
		<Piece NumberOfPoints="1206" NumberOfPolys="1000">
			<Points>
				<DataArray type="Float32" NumberOfComponents="3" format="ascii">
 0 0 0 0.005 0 0 0.01 0 0 0.015 0 0 0.02 0 0 0.025 0 0 0.03 0 0 0.035 0 0 0.04 0 0 0.045 0 0 0.05 0 0 0.055 0 0 0.06 0 0 0.065 0 0 0.07 0 0 0.075 0 0 0.08 0 0 0.085 0 0 0.09 0 0 0.095 0 0 0.1 0 0 0.105 0 0 0.11 0 0 0.115 0 0 0.12 0 0 0.125 0 0 0.13 0 0 0.135 0 0 0.14 0 0 0.145 0 0 0.15 0 0 0.155 0 0 0.16 0 0 0.165 0 0 0.17 0 0 0.175 0 0 0.18 0 0 0.185 0 0 0.19 0 0 0.195 0 0 0.2 0 0 0.205 0 0 0.21 0 0 0.215 0 0 0.22 0 0 0.225 0 0 0.23 0 0 0.235 0 0 0.24 0 0 0.245 0 0 0.25 0 0 0.255 0 0 0.26 0 0 0.265 0 0 0.27 0 0 0.275 0 0 0.28 0 0 0.285 0 0 0.29 0 0 0.295 0 0 0.3 0 0 0.305 0 0 0.31 0 0 0.315 0 0 0.32 0 0 0.325 0 0 0.33 0 0 0.335 0 0 0.34 0 0 0.345 0 0 0.35 0 0 0.355 0 0 0.36 0 0 0.365 0 0 0.37 0 0 0.375 0 0 0.38 0 0 0.385 0 0 0.39 0 0 0.395 0 0 0.4 0 0 0.405 0 0 0.41 0 0 0.415 0 0 0.42 0 0 0.425 0 0 0.43 0 0 0.435 0 0 0.44 0 0 0.445 0 0 0.45 0 0 0.455 0 0 0.46 0 0 0.465 0 0 0.47 0 0 0.475 0 0 0.48 0 0 0.485 0 0 0.49 0 0 0.495 0 0 0.5 0 0 0.505 0 0 0.51 0 0 0.515 0 0 0.52 0 0 0.525 0 0 0.53 0 0 0.535 0 0 0.54 0 0 0.545 0 0 0.55 0 0 0.555 0 0 0.56 0 0 0.565 0 0 0.57 0 0 0.575 0 0 0.58 0 0 0.585 0 0 0.59 0 0 0.595 0 0 0.6 0 0 0.605 0 0 0.61 0 0 0.615 0 0 0.62 0 0 0.625 0 0 0.63 0 0 0.635 0 0 0.64 0 0 0.645 0 0 0.65 0 0 0.655 0 0 0.66 0 0 0.665 0 0 0.67 0 0 0.675 0 0 0.68 0 0 0.685 0 0 0.69 0 0 0.695 0 0 0.7 0 0 0.705 0 0 0.71 0 0 0.715 0 0 0.72 0 0 0.725 0 0 0.73 0 0 0.735 0 0 0.74 0 0 0.745 0 0 0.75 0 0 0.755 0 0 0.76 0 0 0.765 0 0 0.77 0 0 0.775 0 0 0.78 0 0 0.785 0 0 0.79 0 0 0.795 0 0 0.8 0 0 0.805 0 0 0.81 0 0 0.815 0 0 0.82 0 0 0.825 0 0 0.83 0 0 0.835 0 0 0.84 0 0 0.845 0 0 0.85 0 0 0.855 0 0 0.86 0 0 0.865 0 0 0.87 0 0 0.875 0 0 0.88 0 0 0.885 0 0 0.89 0 0 0.895 0 0 0.9 0 0 0.905 0 0 0.91 0 0 0.915 0 0 0.92 0 0 0.925 0 0 0.93 0 0 0.935 0 0 0.94 0 0 0.945 0 0 0.95 0 0 0.955 0 0 0.96 0 0 0.965 0 0 0.97 0 0 0.975 0 0 0.98 0 0 0.985 0 0 0.99 0 0 0.995 0 0 1 0 0 0 0.02 0 0.005 0.02 0 0.01 0.02 0 0.015 0.02 0 0.02 0.02 0 0.025 0.02 0 0.03 0.02 0 0.035 0.02 0 0.04 0.02 0 0.045 0.02 0 0.05 0.02 0 0.055 0.02 0 0.06 0.02 0 0.065 0.02 0 0.07 0.02 0 0.075 0.02 0 0.08 0.02 0 0.085 0.02 0 0.09 0.02 0 0.095 0.02 0 0.1 0.02 0 0.105 0.02 0 0.11 0.02 0 0.115 0.02 0 0.12 0.02 0 0.125 0.02 0 0.13 0.02 0 0.135 0.02 0 0.14 0.02 0 0.145 0.02 0 0.15 0.02 0 0.155 0.02 0 0.16 0.02 0 0.165 0.02 0 0.17 0.02 0 0.175 0.02 0 0.18 0.02 0 0.185 0.02 0 0.19 0.02 0 0.195 0.02 0 0.2 0.02 0 0.205 0.02 0 0.21 0.02 0 0.215 0.02 0 0.22 0.02 0 0.225 0.02 0 0.23 0.02 0 0.235 0.02 0 0.24 0.02 0 0.245 0.02 0 0.25 0.02 0 0.255 0.02 0 0.26 0.02 0 0.265 0.02 0 0.27 0.02 0 0.275 0.02 0 0.28 0.02 0 0.285 0.02 0 0.29 0.02 0 0.295 0.02 0 0.3 0.02 0 0.305 0.02 0 0.31 0.02 0 0.315 0.02 0 0.32 0.02 0 0.325 0.02 0 0.33 0.02 0 0.335 0.02 0 0.34 0.02 0 0.345 0.02 0 0.35 0.02 0 0.355 0.02 0 0.36 0.02 0 0.365 0.02 0 0.37 0.02 0 0.375 0.02 0 0.38 0.02 0 0.385 0.02 0 0.39 0.02 0 0.395 0.02 0 0.4 0.02 0 0.405 0.02 0 0.41 0.02 0 0.415 0.02 0 0.42 0.02 0 0.425 0.02 0 0.43 0.02 0 0.435 0.02 0 0.44 0.02 0 0.445 0.02 0 0.45 0.02 0 0.455 0.02 0 0.46 0.02 0 0.465 0.02 0 0.47 0.02 0 0.475 0.02 0 0.48 0.02 0 0.485 0.02 0 0.49 0.02 0 0.495 0.02 0 0.5 0.02 0 0.505 0.02 0 0.51 0.02 0 0.515 0.02 0 0.52 0.02 0 0.525 0.02 0 0.53 0.02 0 0.535 0.02 0 0.54 0.02 0 0.545 0.02 0 0.55 0.02 0 0.555 0.02 0 0.56 0.02 0 0.565 0.02 0 0.57 0.02 0 0.575 0.02 0 0.58 0.02 0 0.585 0.02 0 0.59 0.02 0 0.595 0.02 0 0.6 0.02 0 0.605 0.02 0 0.61 0.02 0 0.615 0.02 0 0.62 0.02 0 0.625 0.02 0 0.63 0.02 0 0.635 0.02 0 0.64 0.02 0 0.645 0.02 0 0.65 0.02 0 0.655 0.02 0 0.66 0.02 0 0.665 0.02 0 0.67 0.02 0 0.675 0.02 0 0.68 0.02 0 0.685 0.02 0 0.69 0.02 0 0.695 0.02 0 0.7 0.02 0 0.705 0.02 0 0.71 0.02 0 0.715 0.02 0 0.72 0.02 0 0.725 0.02 0 0.73 0.02 0 0.735 0.02 0 0.74 0.02 0 0.745 0.02 0 0.75 0.02 0 0.755 0.02 0 0.76 0.02 0 0.765 0.02 0 0.77 0.02 0 0.775 0.02 0 0.78 0.02 0 0.785 0.02 0 0.79 0.02 0 0.795 0.02 0 0.8 0.02 0 0.805 0.02 0 0.81 0.02 0 0.815 0.02 0 0.82 0.02 0 0.825 0.02 0 0.83 0.02 0 0.835 0.02 0 0.84 0.02 0 0.845 0.02 0 0.85 0.02 0 0.855 0.02 0 0.86 0.02 0 0.865 0.02 0 0.87 0.02 0 0.875 0.02 0 0.88 0.02 0 0.885 0.02 0 0.89 0.02 0 0.895 0.02 0 0.9 0.02 0 0.905 0.02 0 0.91 0.02 0 0.915 0.02 0 0.92 0.02 0 0.925 0.02 0 0.93 0.02 0 0.935 0.02 0 0.94 0.02 0 0.945 0.02 0 0.95 0.02 0 0.955 0.02 0 0.96 0.02 0 0.965 0.02 0 0.97 0.02 0 0.975 0.02 0 0.98 0.02 0 0.985 0.02 0 0.99 0.02 0 0.995 0.02 0 1 0.02 0 0 0.04 0 0.005 0.04 0 0.01 0.04 0 0.015 0.04 0 0.02 0.04 0 0.025 0.04 0 0.03 0.04 0 0.035 0.04 0 0.04 0.04 0 0.045 0.04 0 0.05 0.04 0 0.055 0.04 0 0.06 0.04 0 0.065 0.04 0 0.07 0.04 0 0.075 0.04 0 0.08 0.04 0 0.085 0.04 0 0.09 0.04 0 0.095 0.04 0 0.1 0.04 0 0.105 0.04 0 0.11 0.04 0 0.115 0.04 0 0.12 0.04 0 0.125 0.04 0 0.13 0.04 0 0.135 0.04 0 0.14 0.04 0 0.145 0.04 0 0.15 0.04 0 0.155 0.04 0 0.16 0.04 0 0.165 0.04 0 0.17 0.04 0 0.175 0.04 0 0.18 0.04 0 0.185 0.04 0 0.19 0.04 0 0.195 0.04 0 0.2 0.04 0 0.205 0.04 0 0.21 0.04 0 0.215 0.04 0 0.22 0.04 0 0.225 0.04 0 0.23 0.04 0 0.235 0.04 0 0.24 0.04 0 0.245 0.04 0 0.25 0.04 0 0.255 0.04 0 0.26 0.04 0 0.265 0.04 0 0.27 0.04 0 0.275 0.04 0 0.28 0.04 0 0.285 0.04 0 0.29 0.04 0 0.295 0.04 0 0.3 0.04 0 0.305 0.04 0 0.31 0.04 0 0.315 0.04 0 0.32 0.04 0 0.325 0.04 0 0.33 0.04 0 0.335 0.04 0 0.34 0.04 0 0.345 0.04 0 0.35 0.04 0 0.355 0.04 0 0.36 0.04 0 0.365 0.04 0 0.37 0.04 0 0.375 0.04 0 0.38 0.04 0 0.385 0.04 0 0.39 0.04 0 0.395 0.04 0 0.4 0.04 0 0.405 0.04 0 0.41 0.04 0 0.415 0.04 0 0.42 0.04 0 0.425 0.04 0 0.43 0.04 0 0.435 0.04 0 0.44 0.04 0 0.445 0.04 0 0.45 0.04 0 0.455 0.04 0 0.46 0.04 0 0.465 0.04 0 0.47 0.04 0 0.475 0.04 0 0.48 0.04 0 0.485 0.04 0 0.49 0.04 0 0.495 0.04 0 0.5 0.04 0 0.505 0.04 0 0.51 0.04 0 0.515 0.04 0 0.52 0.04 0 0.525 0.04 0 0.53 0.04 0 0.535 0.04 0 0.54 0.04 0 0.545 0.04 0 0.55 0.04 0 0.555 0.04 0 0.56 0.04 0 0.565 0.04 0 0.57 0.04 0 0.575 0.04 0 0.58 0.04 0 0.585 0.04 0 0.59 0.04 0 0.595 0.04 0 0.6 0.04 0 0.605 0.04 0 0.61 0.04 0 0.615 0.04 0 0.62 0.04 0 0.625 0.04 0 0.63 0.04 0 0.635 0.04 0 0.64 0.04 0 0.645 0.04 0 0.65 0.04 0 0.655 0.04 0 0.66 0.04 0 0.665 0.04 0 0.67 0.04 0 0.675 0.04 0 0.68 0.04 0 0.685 0.04 0 0.69 0.04 0 0.695 0.04 0 0.7 0.04 0 0.705 0.04 0 0.71 0.04 0 0.715 0.04 0 0.72 0.04 0 0.725 0.04 0 0.73 0.04 0 0.735 0.04 0 0.74 0.04 0 0.745 0.04 0 0.75 0.04 0 0.755 0.04 0 0.76 0.04 0 0.765 0.04 0 0.77 0.04 0 0.775 0.04 0 0.78 0.04 0 0.785 0.04 0 0.79 0.04 0 0.795 0.04 0 0.8 0.04 0 0.805 0.04 0 0.81 0.04 0 0.815 0.04 0 0.82 0.04 0 0.825 0.04 0 0.83 0.04 0 0.835 0.04 0 0.84 0.04 0 0.845 0.04 0 0.85 0.04 0 0.855 0.04 0 0.86 0.04 0 0.865 0.04 0 0.87 0.04 0 0.875 0.04 0 0.88 0.04 0 0.885 0.04 0 0.89 0.04 0 0.895 0.04 0 0.9 0.04 0 0.905 0.04 0 0.91 0.04 0 0.915 0.04 0 0.92 0.04 0 0.925 0.04 0 0.93 0.04 0 0.935 0.04 0 0.94 0.04 0 0.945 0.04 0 0.95 0.04 0 0.955 0.04 0 0.96 0.04 0 0.965 0.04 0 0.97 0.04 0 0.975 0.04 0 0.98 0.04 0 0.985 0.04 0 0.99 0.04 0 0.995 0.04 0 1 0.04 0 0 0.06 0 0.005 0.06 0 0.01 0.06 0 0.015 0.06 0 0.02 0.06 0 0.025 0.06 0 0.03 0.06 0 0.035 0.06 0 0.04 0.06 0 0.045 0.06 0 0.05 0.06 0 0.055 0.06 0 0.06 0.06 0 0.065 0.06 0 0.07 0.06 0 0.075 0.06 0 0.08 0.06 0 0.085 0.06 0 0.09 0.06 0 0.095 0.06 0 0.1 0.06 0 0.105 0.06 0 0.11 0.06 0 0.115 0.06 0 0.12 0.06 0 0.125 0.06 0 0.13 0.06 0 0.135 0.06 0 0.14 0.06 0 0.145 0.06 0 0.15 0.06 0 0.155 0.06 0 0.16 0.06 0 0.165 0.06 0 0.17 0.06 0 0.175 0.06 0 0.18 0.06 0 0.185 0.06 0 0.19 0.06 0 0.195 0.06 0 0.2 0.06 0 0.205 0.06 0 0.21 0.06 0 0.215 0.06 0 0.22 0.06 0 0.225 0.06 0 0.23 0.06 0 0.235 0.06 0 0.24 0.06 0 0.245 0.06 0 0.25 0.06 0 0.255 0.06 0 0.26 0.06 0 0.265 0.06 0 0.27 0.06 0 0.275 0.06 0 0.28 0.06 0 0.285 0.06 0 0.29 0.06 0 0.295 0.06 0 0.3 0.06 0 0.305 0.06 0 0.31 0.06 0 0.315 0.06 0 0.32 0.06 0 0.325 0.06 0 0.33 0.06 0 0.335 0.06 0 0.34 0.06 0 0.345 0.06 0 0.35 0.06 0 0.355 0.06 0 0.36 0.06 0 0.365 0.06 0 0.37 0.06 0 0.375 0.06 0 0.38 0.06 0 0.385 0.06 0 0.39 0.06 0 0.395 0.06 0 0.4 0.06 0 0.405 0.06 0 0.41 0.06 0 0.415 0.06 0 0.42 0.06 0 0.425 0.06 0 0.43 0.06 0 0.435 0.06 0 0.44 0.06 0 0.445 0.06 0 0.45 0.06 0 0.455 0.06 0 0.46 0.06 0 0.465 0.06 0 0.47 0.06 0 0.475 0.06 0 0.48 0.06 0 0.485 0.06 0 0.49 0.06 0 0.495 0.06 0 0.5 0.06 0 0.505 0.06 0 0.51 0.06 0 0.515 0.06 0 0.52 0.06 0 0.525 0.06 0 0.53 0.06 0 0.535 0.06 0 0.54 0.06 0 0.545 0.06 0 0.55 0.06 0 0.555 0.06 0 0.56 0.06 0 0.565 0.06 0 0.57 0.06 0 0.575 0.06 0 0.58 0.06 0 0.585 0.06 0 0.59 0.06 0 0.595 0.06 0 0.6 0.06 0 0.605 0.06 0 0.61 0.06 0 0.615 0.06 0 0.62 0.06 0 0.625 0.06 0 0.63 0.06 0 0.635 0.06 0 0.64 0.06 0 0.645 0.06 0 0.65 0.06 0 0.655 0.06 0 0.66 0.06 0 0.665 0.06 0 0.67 0.06 0 0.675 0.06 0 0.68 0.06 0 0.685 0.06 0 0.69 0.06 0 0.695 0.06 0 0.7 0.06 0 0.705 0.06 0 0.71 0.06 0 0.715 0.06 0 0.72 0.06 0 0.725 0.06 0 0.73 0.06 0 0.735 0.06 0 0.74 0.06 0 0.745 0.06 0 0.75 0.06 0 0.755 0.06 0 0.76 0.06 0 0.765 0.06 0 0.77 0.06 0 0.775 0.06 0 0.78 0.06 0 0.785 0.06 0 0.79 0.06 0 0.795 0.06 0 0.8 0.06 0 0.805 0.06 0 0.81 0.06 0 0.815 0.06 0 0.82 0.06 0 0.825 0.06 0 0.83 0.06 0 0.835 0.06 0 0.84 0.06 0 0.845 0.06 0 0.85 0.06 0 0.855 0.06 0 0.86 0.06 0 0.865 0.06 0 0.87 0.06 0 0.875 0.06 0 0.88 0.06 0 0.885 0.06 0 0.89 0.06 0 0.895 0.06 0 0.9 0.06 0 0.905 0.06 0 0.91 0.06 0 0.915 0.06 0 0.92 0.06 0 0.925 0.06 0 0.93 0.06 0 0.935 0.06 0 0.94 0.06 0 0.945 0.06 0 0.95 0.06 0 0.955 0.06 0 0.96 0.06 0 0.965 0.06 0 0.97 0.06 0 0.975 0.06 0 0.98 0.06 0 0.985 0.06 0 0.99 0.06 0 0.995 0.06 0 1 0.06 0 0 0.08 0 0.005 0.08 0 0.01 0.08 0 0.015 0.08 0 0.02 0.08 0 0.025 0.08 0 0.03 0.08 0 0.035 0.08 0 0.04 0.08 0 0.045 0.08 0 0.05 0.08 0 0.055 0.08 0 0.06 0.08 0 0.065 0.08 0 0.07 0.08 0 0.075 0.08 0 0.08 0.08 0 0.085 0.08 0 0.09 0.08 0 0.095 0.08 0 0.1 0.08 0 0.105 0.08 0 0.11 0.08 0 0.115 0.08 0 0.12 0.08 0 0.125 0.08 0 0.13 0.08 0 0.135 0.08 0 0.14 0.08 0 0.145 0.08 0 0.15 0.08 0 0.155 0.08 0 0.16 0.08 0 0.165 0.08 0
[...]
			<PointData Scalars="VitesseX">
				<DataArray Name="VitesseX" type="Float32" format="ascii">
 0 -1.49286e-14 -1.33084e-14 -2.85127e-14 3.63763e-14 -1.83188e-14 -4.66885e-14 -1.50461e-14 -6.9393e-14 1.76215e-14 -1.19262e-14 -5.18292e-14 -1.03409e-13 -9.86335e-14 -3.25474e-14 -7.05279e-14 -4.85976e-14 -8.89762e-14 4.20152e-15 -8.06607e-14 -9.61193e-14 4.38315e-14 -1.18318e-13 -9.63084e-14 -1.53803e-13 -1.56094e-13 6.53357e-14 -1.88666e-13 -6.23156e-14 -1.37816e-13 3.05017e-14 1.1493e-13 -1.83717e-13 8.22837e-14 -4.44665e-13 -2.7897e-14 -1.47027e-13 -2.06876e-13 -3.70111e-14 -4.10645e-13 8.04896e-14 -3.01078e-13 -2.18842e-13 6.61235e-14 -1.43348e-13 -8.36449e-14 2.55567e-13 -2.00848e-13 6.44599e-14 7.92303e-14 1.41316e-13 -1.29682e-13 -1.08768e-13 -2.594e-13 -4.473e-13 -3.13071e-13 -1.10291e-13 -3.29112e-13 3.92327e-12 2.64933e-11 1.98246e-10 1.39262e-09 9.12445e-09 5.55854e-08 3.1361e-07 1.63147e-06 7.78501e-06 3.38662e-05 0.000133335 0.000471052 0.00147885 0.00408533 0.00985526 0.0207248 0.0381674 0.0623255 0.0919566 0.125244 0.160651 0.19718 0.234288 0.27171 0.309226 0.346702 0.384083 0.42132 0.458369 0.495189 0.531737 0.567965 0.603822 0.639245 0.674165 0.708503 0.74217 0.775068 0.807102 0.838202 0.868422 0.898143 0.927702 0.940585 0.93969 0.938526 0.937251 0.936004 0.934748 0.933504 0.932333 0.931327 0.930454 0.929832 0.929358 0.928851 0.928454 0.928082 0.928009 0.927802 0.930383 0.925841 0.90826 0.902897 0.92649 0.92825 0.928456 0.928309 0.92815 0.928173 0.928449 0.92925 0.929431 0.929496 0.930171 0.930374 0.929787 0.924175 0.906099 0.864628 0.791829 0.686841 0.555619 0.411275 0.272434 0.157894 0.0791452 0.0347769 0.0139871 0.00536454 0.00200936 0.000743318 0.000272722 9.93613e-05 3.59473e-05 1.29084e-05 4.59811e-06 1.6237e-06 5.68044e-07 1.96767e-07 6.74497e-08 2.28695e-08 7.66632e-09 2.53947e-09 8.30918e-10 2.6837e-10 8.51918e-11 2.62459e-11 8.28292e-12 2.20559e-12 7.60687e-13 -9.17074e-13 3.22724e-13 -9.72503e-13 2.23118e-13 1.614e-13 1.22462e-13 -1.12311e-12 3.15086e-13 -1.24483e-14 6.38099e-13 -5.89787e-13 1.9003e-13 -2.07419e-13 -2.38206e-13 -9.00222e-15 2.30184e-13 -7.27315e-13 -1.68077e-13 -5.96774e-13 3.8644e-13 -1.31647e-13 1.68452e-13 -1.52703e-13 1.73197e-13 3.46149e-13 3.98266e-13 2.35062e-13 1.18306e-12 -3.1546e-13 1.88484e-13 -2.63735e-13 0 0 -2.63586e-16 -1.15671e-14 9.12055e-15 -3.08959e-14 9.91717e-17 4.80644e-14 -2.1048e-14 -6.50786e-15 -4.69254e-14 -4.5705e-14 -7.35603e-14 -1.54865e-14 -2.79082e-14 -9.93139e-14 -6.01588e-14 -9.08188e-14 -3.784e-14 -1.22657e-13 -5.90075e-14 -2.92229e-14 -1.06153e-13 -4.51692e-14 -1.55734e-13 1.89986e-14 -4.35565e-14 -2.10308e-13 -2.59326e-14 -1.94131e-13 6.56526e-14 -6.39592e-14 -8.56499e-14 6.38568e-14 -2.18748e-13 1.06703e-13 -3.07495e-13 -6.91192e-14 -7.58288e-14 -3.27873e-13 -1.77416e-13 -2.56325e-13 -6.78051e-14 -5.80422e-14 5.96874e-14 -6.86562e-14 -2.55466e-14 -2.90637e-13 1.26332e-13 1.53817e-13 6.00489e-14 1.90645e-14 -2.4047e-13 -3.12218e-13 -1.53876e-13 -7.80319e-14 -3.52244e-13 -3.72584e-13 5.9563e-13 3.10762e-12 2.65423e-11 1.98542e-10 1.39292e-09 9.12472e-09 5.55844e-08 3.13611e-07 1.63147e-06 7.78501e-06 3.38662e-05 0.000133335 0.000471052 0.00147885 0.00408533 0.00985526 0.0207248 0.0381674 0.0623255 0.0919566 0.125244 0.160651 0.19718 0.234288 0.27171 0.309226 0.346702 0.384083 0.42132 0.458369 0.495189 0.531737 0.567965 0.603822 0.639245 0.674165 0.708503 0.74217 0.775068 0.807102 0.838202 0.868422 0.898143 0.927702 0.940585 0.93969 0.938526 0.937251 0.936004 0.934748 0.933504 0.932333 0.931327 0.930454 0.929832 0.929358 0.928851 0.928454 0.928082 0.928009 0.927802 0.930383 0.925841 0.90826 0.902897 0.92649 0.92825 0.928456 0.928309 0.92815 0.928173 0.928449 0.92925 0.929431 0.929496 0.930171 0.930374 0.929787 0.924175 0.906099 0.864628 0.791829 0.686841 0.555619 0.411275 0.272434 0.157894 0.0791452 0.0347769 0.0139871 0.00536454 0.00200936 0.000743318 0.000272722 9.93613e-05 3.59473e-05 1.29084e-05 4.59811e-06 1.6237e-06 5.68044e-07 1.96767e-07 6.74501e-08 2.28695e-08 7.66608e-09 2.53956e-09 8.31196e-10 2.68369e-10 8.52573e-11 2.64362e-11 7.70506e-12 2.49161e-12 -5.30144e-15 3.09093e-13 -7.53177e-13 4.51763e-13 -4.04205e-13 -2.35779e-13 -8.53097e-13 7.07518e-13 -2.78798e-13 3.81346e-13 -4.58279e-13 -6.19962e-14 -4.22651e-13 2.96467e-13 1.3705e-13 -3.86471e-13 -2.45786e-13 -2.44243e-13 -4.3354e-13 -1.60909e-13 -7.28772e-13 6.07221e-13 -2.23605e-13 -5.04217e-13 5.34245e-13 1.53452e-13 3.79996e-13 8.01537e-13 -2.15869e-13 4.04077e-13 1.47426e-13 3.11336e-13 0 0 7.31619e-15 4.04562e-14 3.84598e-14 7.63999e-15 1.73421e-14 1.8495e-14 1.11297e-14 1.52014e-14 2.17496e-14 -7.77227e-14 -1.46333e-14 -6.25438e-14 -4.80542e-14 -3.3928e-14 -1.32407e-13 -9.59874e-14 -1.4121e-13 3.14056e-14 -5.8746e-14 -1.82619e-13 9.02452e-14 -2.3699e-13 -3.456e-14 -1.01877e-13 -5.80872e-14 4.93339e-14 -1.67308e-13 -6.6086e-14 -7.24432e-14 -1.71914e-14 4.03626e-14 -7.80747e-14 -8.35666e-14 -1.66117e-13 -3.19682e-14 -1.48126e-13 -1.25626e-13 -2.58897e-13 -2.78994e-13 -3.00525e-13 1.00154e-13 4.17745e-14 -6.99759e-14 -4.27892e-14 -9.91234e-14 9.1326e-14 -2.34606e-13 -1.09782e-13 -7.77974e-14 -1.67666e-14 2.73238e-14 2.27302e-14 -2.55378e-13 -2.11821e-13 -1.37189e-13 -3.60198e-14 2.45919e-14 3.66497e-12 2.63956e-11 1.9863e-10 1.39307e-09 9.12497e-09 5.55844e-08 3.1361e-07 1.63147e-06 7.78501e-06 3.38662e-05 0.000133335 0.000471052 0.00147885 0.00408533 0.00985526 0.0207248 0.0381674 0.0623255 0.0919566 0.125244 0.160651 0.19718 0.234288 0.27171 0.309226 0.346702 0.384083 0.42132 0.458369 0.495189 0.531737 0.567965 0.603822 0.639245 0.674165 0.708503 0.74217 0.775068 0.807102 0.838202 0.868422 0.898143 0.927702 0.940585 0.93969 0.938526 0.937251 0.936004 0.934748 0.933504 0.932333 0.931327 0.930454 0.929832 0.929358 0.928851 0.928454 0.928082 0.928009 0.927802 0.930383 0.925841 0.90826 0.902897 0.92649 0.92825 0.928456 0.928309 0.92815 0.928173 0.928449 0.92925 0.929431 0.929496 0.930171 0.930374 0.929787 0.924175 0.906099 0.864628 0.791829 0.686841 0.555619 0.411275 0.272434 0.157894 0.0791452 0.0347769 0.0139871 0.00536454 0.00200936 0.000743318 0.000272722 9.93613e-05 3.59473e-05 1.29084e-05 4.59811e-06 1.6237e-06 5.68044e-07 1.96767e-07 6.74499e-08 2.28695e-08 7.66616e-09 2.53987e-09 8.31033e-10 2.6842e-10 8.55819e-11 2.64773e-11 8.02715e-12 2.32413e-12 4.61118e-13 -4.19063e-13 -1.61978e-13 -2.47792e-13 5.44441e-14 -5.62781e-13 1.45058e-13 -2.24101e-13 -7.60035e-14 1.01688e-13 -2.32682e-13 -2.46174e-13 -2.51006e-13 -9.93087e-14 5.31184e-14 -4.28649e-13 -8.76391e-13 -2.79784e-13 9.00312e-14 -2.16416e-13 5.16597e-14 -9.73488e-13 -5.49946e-14 7.64133e-13 2.18076e-13 2.25944e-13 -4.7942e-13 4.46712e-13 -4.22051e-15 -2.36469e-13 2.74071e-13 -2.53679e-13 0 0 2.4147e-14 3.17067e-14 6.29795e-14 7.36208e-14 5.37345e-14 -7.66721e-15 -6.97407e-15 -2.42809e-14 2.54139e-15 4.96165e-15 -1.21027e-14 -1.97362e-14 -9.11495e-14 -1.10595e-13 -7.02131e-14 -3.58796e-14 -3.70809e-14 -1.51104e-13 -2.14015e-14 -5.71238e-14 -6.55981e-14 3.57419e-14 -2.0745e-13 -7.80913e-14 -1.26508e-13 6.33252e-14 -2.54423e-13 9.36562e-14 6.6374e-14 3.03793e-14 -5.89899e-14 -3.03202e-13 -6.41741e-14 -1.91033e-13 -4.08854e-14 -9.4115e-14 -1.52356e-13 -1.34589e-13 -2.94953e-13 -2.6797e-13 -1.29751e-13 -2.64745e-14 -1.69873e-13 1.86385e-13 -2.44784e-13 -1.33786e-13 1.54615e-13 -1.21979e-13 -6.8399e-14 2.94501e-14 -1.47572e-13 1.20434e-13 -1.22197e-13 -1.40577e-13 -1.32295e-13 -1.49282e-13 1.82449e-13 3.75487e-12 2.6184e-11 1.98634e-10 1.39326e-09 9.12505e-09 5.55846e-08 3.1361e-07 1.63147e-06 7.78501e-06 3.38662e-05 0.000133335 0.000471052 0.00147885 0.00408533 0.00985526 0.0207248 0.0381674 0.0623255 0.0919566 0.125244 0.160651 0.19718 0.234288 0.27171 0.309226 0.346702 0.384083 0.42132 0.458369 0.495189 0.531737 0.567965 0.603822 0.639245 0.674165 0.708503 0.74217 0.775068 0.807102 0.838202 0.868422 0.898143 0.927702 0.940585 0.93969 0.938526 0.937251 0.936004 0.934748 0.933504 0.932333 0.931327 0.930454 0.929832 0.929358 0.928851 0.928454 0.928082 0.928009 0.927802 0.930383 0.925841 0.90826 0.902897 0.92649 0.92825 0.928456 0.928308 0.92815 0.928173 0.928449 0.92925 0.929431 0.929496 0.930171 0.930374 0.929787 0.924175 0.906099 0.864628 0.791829 0.686841 0.555619 0.411275 0.272434 0.157894 0.0791452 0.0347769 0.0139871 0.00536454 0.00200936 0.000743318 0.000272722 9.93613e-05 3.59473e-05 1.29084e-05 4.59811e-06 1.6237e-06 5.68044e-07 1.96767e-07 6.74502e-08 2.28693e-08 7.66626e-09 2.53969e-09 8.31059e-10 2.68655e-10 8.54516e-11 2.68565e-11 7.92038e-12 2.29162e-12 6.66385e-13 -3.57219e-13 9.33764e-14 -7.48004e-13 -1.92393e-13 4.14577e-13 -1.24108e-13 -5.2641e-13 2.74409e-13 -4.38216e-13 -5.08132e-13 5.02407e-13 -3.35585e-13 -2.40701e-13 -2.62682e-13 -7.4445e-13 -2.32531e-13 7.4311e-14 -9.91607e-13 7.53077e-13 3.62014e-13 -7.12798e-14 -3.41984e-13 -1.32418e-13 2.50067e-13 2.48263e-13 -2.59392e-13 -2.20713e-13 6.32116e-13 1.87046e-13 -2.99869e-13 3.55519e-13 0 0 2.62909e-14 2.27917e-14 5.59228e-14 2.86335e-14 6.7926e-14 3.89602e-14 1.88495e-14 1.00513e-14 -2.35546e-14 -4.39968e-14 -7.31636e-14 1.42162e-14 -5.69332e-14 -1.75023e-13 -2.0164e-14 -9.46604e-14 7.35597e-14 -1.3083e-13 -3.60069e-14 4.69593e-14 -2.77662e-13 1.34629e-13 -2.07871e-13 1.16422e-13 -9.7987e-15 -1.88868e-13 -7.81019e-14 -2.22459e-13 1.82059e-13 -1.24378e-13 -1.53571e-13 -6.02563e-14 -2.13582e-13 1.48787e-13 -2.29404e-13 -7.94545e-14 7.46642e-14 -3.18307e-13 -1.41588e-13 -3.05125e-13 -2.99458e-13 5.96918e-14 1.99868e-13 1.55791e-13 -1.44141e-13 -4.61697e-13 3.3832e-13 2.2099e-14 7.42794e-14 -9.0775e-14 -3.51213e-13 -3.26101e-13 -1.97521e-13 5.62679e-14 -1.28498e-13 -1.25079e-13 9.18702e-13 3.14043e-12 2.62547e-11 1.98424e-10 1.39299e-09 9.12527e-09 5.55844e-08 3.1361e-07 1.63147e-06 7.78501e-06 3.38662e-05 0.000133335 0.000471052 0.00147885 0.00408533 0.00985526 0.0207248 0.0381674 0.0623255 0.0919566 0.125244 0.160651 0.19718 0.234288 0.27171 0.309226 0.346702 0.384083 0.42132 0.458369 0.495189 0.531737 0.567965 0.603822 0.639245 0.674165 0.708503 0.74217 0.775068 0.807102 0.838202 0.868422 0.898143 0.927702 0.940585 0.93969 0.938526 0.937251 0.936004 0.934748 0.933504 0.932333 0.931327 0.930454 0.929832 0.929358 0.928851 0.928454 0.928082 0.928009 0.927802 0.930383 0.925841 0.90826 0.902897 0.92649 0.92825 0.928456 0.928308 0.92815 0.928173 0.928449 0.92925 0.929431 0.929496 0.930171 0.930374 0.929787 0.924175 0.906099 0.864628 0.791829 0.686841 0.555619 0.411275 0.272434 0.157894 0.0791452 0.0347769 0.0139871 0.00536454 0.00200936 0.000743318 0.000272722 9.93613e-05 3.59473e-05 1.29084e-05 4.59811e-06 1.6237e-06 5.68044e-07 1.96767e-07 6.74504e-08 2.28692e-08 7.66613e-09 2.53933e-09 8.31175e-10 2.68609e-10 8.5415e-11 2.66019e-11 7.60916e-12 2.47442e-12 2.98117e-13 3.946e-13 -7.53678e-13 2.21187e-13 -5.74317e-13 6.03082e-13 -6.03067e-13 6.02512e-13 -2.93114e-13 -2.50074e-13 -3.80394e-13 7.73032e-14 -5.20472e-13 -1.07964e-13 3.63758e-14 -4.18711e-13 -1.80471e-13 -1.36687e-13 -8.55188e-13 8.10852e-13 -7.1301e-13 1.16784e-12 -1.01003e-13 -7.38726e-13 6.02542e-13 7.10203e-14 2.71092e-13 -7.51231e-14 -4.10433e-13 1.39767e-13 -2.07446e-13 7.05415e-13 0 0 4.51887e-15 7.29081e-14 1.60523e-14 2.34734e-14 4.455e-14 -1.25723e-14 1.00956e-13 4.26899e-14 1.02779e-13 -1.73879e-13 -5.60969e-14 -1.29619e-13 -7.04929e-14 -3.06316e-14 -1.14926e-13 -1.76496e-13 -7.44342e-14 3.52875e-13 -1.09348e-13 -1.94744e-13 1.24993e-14 -3.04186e-13 1.45197e-13 -6.52576e-15 4.82625e-14 8.0232e-14 -1.18773e-13 -4.38456e-13 -1.82637e-13 -1.85477e-13 1.77792e-13 1.83107e-14 5.3831e-14 -3.10665e-13 1.46119e-13 -2.75719e-13 1.47572e-13 -2.66497e-13 -3.0707e-13 -8.2222e-14 -3.04572e-13 1.53124e-13 5.46279e-13 -1.52802e-13 -2.95129e-14 3.63672e-13 -5.55313e-13 -1.74582e-13 8.88944e-14 -1.70796e-13 -1.37738e-15 -3.31942e-13 -6.13053e-13 -3.21187e-13 1.24632e-13 6.11244e-13 1.31761e-15 3.80908e-12 2.63413e-11 1.98001e-10 1.39238e-09 9.12539e-09 5.55852e-08 3.1361e-07 1.63147e-06 7.78501e-06 3.38662e-05 0.000133335 0.000471052 0.00147885 0.00408533 0.00985526 0.0207248 0.0381674 0.0623255 0.0919566 0.125244 0.160651 0.19718 0.234288 0.27171 0.309226 0.346702 0.384083 0.42132 0.458369 0.495189 0.531737 0.567965 0.603822 0.639245 0.674165 0.708503 0.74217 0.775068 0.807102 0.838202 0.868422 0.898143 0.927702 0.940585 0.93969 0.938526 0.937251 0.936004 0.934748 0.933504 0.932333 0.931327 0.930454 0.929832 0.929358 0.928851 0.928454 0.928082 0.928009 0.927801 0.930383 0.925841 0.90826 0.902897 0.92649 0.92825 0.928456 0.928309 0.92815 0.928173 0.928449 0.92925 0.929431 0.929496 0.930171 0.930374 0.929787 0.924175 0.906099 0.864628 0.791829 0.686841 0.555619 0.411275 0.272434 0.157894 0.0791452 0.0347769 0.0139871 0.00536454 0.00200936 0.000743318 0.000272722 9.93613e-05 3.59473e-05 1.29084e-05 4.59811e-06 1.6237e-06 5.68044e-07 1.96768e-07 6.74496e-08 2.28695e-08 7.6662e-09 2.53937e-09 8.30823e-10 2.68379e-10 8.57676e-11 2.58188e-11 8.30466e-12 2.23625e-12 9.5699e-13 -8.69748e-13 -1.88987e-13 -4.33231e-13 3.76568e-13 -1.15593e-13 1.16086e-12 -7.28504e-13 -4.14371e-13 -1.95479e-13 1.34477e-12 -1.80835e-12 1.63545e-13 -7.33496e-13 1.92046e-13 5.5812e-13 -9.26907e-13 -1.22039e-12 1.1519e-12 -5.92238e-13 -2.02743e-13 -8.14832e-13 9.87634e-13 1.17138e-12 2.4581e-13 1.3665e-13 -2.59597e-13 -1.83407e-13 -4.78736e-13 -1.69111e-12 6.26621e-13 -6.93973e-13 0
				</DataArray>
				<DataArray Name="VitesseY" type="Float32" format="ascii">