<?xml version="1.0"?>
<VTKFile type="PolyData">
	<PolyData>
		<Piece NumberOfPoints="1206" NumberOfPolys="1000">
			<Points>
				<DataArray type="Float32" NumberOfComponents="3" format="ascii">
 0 0 0 0.005 0 0 0.01 0 0 0.015 0 0 0.02 0 0 0.025 0 0 0.03 0 0 0.035 0 0 0.04 0 0 0.045 0 0 0.05 0 0 0.055 0 0 0.06 0 0 0.065 0 0 0.07 0 0 0.075 0 0 0.08 0 0 0.085 0 0 0.09 0 0 0.095 0 0 0.1 0 0 0.105 0 0 0.11 0 0 0.115 0 0 0.12 0 0 0.125 0 0 0.13 0 0 0.135 0 0 0.14 0 0 0.145 0 0 0.15 0 0 0.155 0 0 0.16 0 0 0.165 0 0 0.17 0 0 0.175 0 0 0.18 0 0 0.185 0 0 0.19 0 0 0.195 0 0 0.2 0 0 0.205 0 0 0.21 0 0 0.215 0 0 0.22 0 0 0.225 0 0 0.23 0 0 0.235 0 0 0.24 0 0 0.245 0 0 0.25 0 0 0.255 0 0 0.26 0 0 0.265 0 0 0.27 0 0 0.275 0 0 0.28 0 0 0.285 0 0 0.29 0 0 0.295 0 0 0.3 0 0 0.305 0 0 0.31 0 0 0.315 0 0 0.32 0 0 0.325 0 0 0.33 0 0 0.335 0 0 0.34 0 0 0.345 0 0 0.35 0 0 0.355 0 0 0.36 0 0 0.365 0 0 0.37 0 0 0.375 0 0 0.38 0 0 0.385 0 0 0.39 0 0 0.395 0 0 0.4 0 0 0.405 0 0 0.41 0 0 0.415 0 0 0.42 0 0 0.425 0 0 0.43 0 0 0.435 0 0 0.44 0 0 0.445 0 0 0.45 0 0 0.455 0 0 0.46 0 0 0.465 0 0 0.47 0 0 0.475 0 0 0.48 0 0 0.485 0 0 0.49 0 0 0.495 0 0 0.5 0 0 0.505 0 0 0.51 0 0 0.515 0 0 0.52 0 0 0.525 0 0 0.53 0 0 0.535 0 0 0.54 0 0 0.545 0 0 0.55 0 0 0.555 0 0 0.56 0 0 0.565 0 0 0.57 0 0 0.575 0 0 0.58 0 0 0.585 0 0 0.59 0 0 0.595 0 0 0.6 0 0 0.605 0 0 0.61 0 0 0.615 0 0 0.62 0 0 0.625 0 0 0.63 0 0 0.635 0 0 0.64 0 0 0.645 0 0 0.65 0 0 0.655 0 0 0.66 0 0 0.665 0 0 0.67 0 0 0.675 0 0 0.68 0 0 0.685 0 0 0.69 0 0 0.695 0 0 0.7 0 0 0.705 0 0 0.71 0 0 0.715 0 0 0.72 0 0 0.725 0 0 0.73 0 0 0.735 0 0 0.74 0 0 0.745 0 0 0.75 0 0 0.755 0 0 0.76 0 0 0.765 0 0 0.77 0 0 0.775 0 0 0.78 0 0 0.785 0 0 0.79 0 0 0.795 0 0 0.8 0 0 0.805 0 0 0.81 0 0 0.815 0 0 0.82 0 0 0.825 0 0 0.83 0 0 0.835 0 0 0.84 0 0 0.845 0 0 0.85 0 0 0.855 0 0 0.86 0 0 0.865 0 0 0.87 0 0 0.875 0 0 0.88 0 0 0.885 0 0 0.89 0 0 0.895 0 0 0.9 0 0 0.905 0 0 0.91 0 0 0.915 0 0 0.92 0 0 0.925 0 0 0.93 0 0 0.935 0 0 0.94 0 0 0.945 0 0 0.95 0 0 0.955 0 0 0.96 0 0 0.965 0 0 0.97 0 0 0.975 0 0 0.98 0 0 0.985 0 0 0.99 0 0 0.995 0 0 1 0 0 0 0.02 0 0.005 0.02 0 0.01 0.02 0 0.015 0.02 0 0.02 0.02 0 0.025 0.02 0 0.03 0.02 0 0.035 0.02 0 0.04 0.02 0 0.045 0.02 0 0.05 0.02 0 0.055 0.02 0 0.06 0.02 0 0.065 0.02 0 0.07 0.02 0 0.075 0.02 0 0.08 0.02 0 0.085 0.02 0 0.09 0.02 0 0.095 0.02 0 0.1 0.02 0 0.105 0.02 0 0.11 0.02 0 0.115 0.02 0 0.12 0.02 0 0.125 0.02 0 0.13 0.02 0 0.135 0.02 0 0.14 0.02 0 0.145 0.02 0 0.15 0.02 0 0.155 0.02 0 0.16 0.02 0 0.165 0.02 0 0.17 0.02 0 0.175 0.02 0 0.18 0.02 0 0.185 0.02 0 0.19 0.02 0 0.195 0.02 0 0.2 0.02 0 0.205 0.02 0 0.21 0.02 0 0.215 0.02 0 0.22 0.02 0 0.225 0.02 0 0.23 0.02 0 0.235 0.02 0 0.24 0.02 0 0.245 0.02 0 0.25 0.02 0 0.255 0.02 0 0.26 0.02 0 0.265 0.02 0 0.27 0.02 0 0.275 0.02 0 0.28 0.02 0 0.285 0.02 0 0.29 0.02 0 0.295 0.02 0 0.3 0.02 0 0.305 0.02 0 0.31 0.02 0 0.315 0.02 0 0.32 0.02 0 0.325 0.02 0 0.33 0.02 0 0.335 0.02 0 0.34 0.02 0 0.345 0.02 0 0.35 0.02 0 0.355 0.02 0 0.36 0.02 0 0.365 0.02 0 0.37 0.02 0 0.375 0.02 0 0.38 0.02 0 0.385 0.02 0 0.39 0.02 0 0.395 0.02 0 0.4 0.02 0 0.405 0.02 0 0.41 0.02 0 0.415 0.02 0 0.42 0.02 0 0.425 0.02 0 0.43 0.02 0 0.435 0.02 0 0.44 0.02 0 0.445 0.02 0 0.45 0.02 0 0.455 0.02 0 0.46 0.02 0 0.465 0.02 0 0.47 0.02 0 0.475 0.02 0 0.48 0.02 0 0.485 0.02 0 0.49 0.02 0 0.495 0.02 0 0.5 0.02 0 0.505 0.02 0 0.51 0.02 0 0.515 0.02 0 0.52 0.02 0 0.525 0.02 0 0.53 0.02 0 0.535 0.02 0 0.54 0.02 0 0.545 0.02 0 0.55 0.02 0 0.555 0.02 0 0.56 0.02 0 0.565 0.02 0 0.57 0.02 0 0.575 0.02 0 0.58 0.02 0 0.585 0.02 0 0.59 0.02 0 0.595 0.02 0 0.6 0.02 0 0.605 0.02 0 0.61 0.02 0 0.615 0.02 0 0.62 0.02 0 0.625 0.02 0 0.63 0.02 0 0.635 0.02 0 0.64 0.02 0 0.645 0.02 0 0.65 0.02 0 0.655 0.02 0 0.66 0.02 0 0.665 0.02 0 0.67 0.02 0 0.675 0.02 0 0.68 0.02 0 0.685 0.02 0 0.69 0.02 0 0.695 0.02 0 0.7 0.02 0 0.705 0.02 0 0.71 0.02 0 0.715 0.02 0 0.72 0.02 0 0.725 0.02 0 0.73 0.02 0 0.735 0.02 0 0.74 0.02 0 0.745 0.02 0 0.75 0.02 0 0.755 0.02 0 0.76 0.02 0 0.765 0.02 0 0.77 0.02 0 0.775 0.02 0 0.78 0.02 0 0.785 0.02 0 0.79 0.02 0 0.795 0.02 0 0.8 0.02 0 0.805 0.02 0 0.81 0.02 0 0.815 0.02 0 0.82 0.02 0 0.825 0.02 0 0.83 0.02 0 0.835 0.02 0 0.84 0.02 0 0.845 0.02 0 0.85 0.02 0 0.855 0.02 0 0.86 0.02 0 0.865 0.02 0 0.87 0.02 0 0.875 0.02 0 0.88 0.02 0 0.885 0.02 0 0.89 0.02 0 0.895 0.02 0 0.9 0.02 0 0.905 0.02 0 0.91 0.02 0 0.915 0.02 0 0.92 0.02 0 0.925 0.02 0 0.93 0.02 0 0.935 0.02 0 0.94 0.02 0 0.945 0.02 0 0.95 0.02 0 0.955 0.02 0 0.96 0.02 0 0.965 0.02 0 0.97 0.02 0 0.975 0.02 0 0.98 0.02 0 0.985 0.02 0 0.99 0.02 0 0.995 0.02 0 1 0.02 0 0 0.04 0 0.005 0.04 0 0.01 0.04 0 0.015 0.04 0 0.02 0.04 0 0.025 0.04 0 0.03 0.04 0 0.035 0.04 0 0.04 0.04 0 0.045 0.04 0 0.05 0.04 0 0.055 0.04 0 0.06 0.04 0 0.065 0.04 0 0.07 0.04 0 0.075 0.04 0 0.08 0.04 0 0.085 0.04 0 0.09 0.04 0 0.095 0.04 0 0.1 0.04 0 0.105 0.04 0 0.11 0.04 0 0.115 0.04 0 0.12 0.04 0 0.125 0.04 0 0.13 0.04 0 0.135 0.04 0 0.14 0.04 0 0.145 0.04 0 0.15 0.04 0 0.155 0.04 0 0.16 0.04 0 0.165 0.04 0 0.17 0.04 0 0.175 0.04 0 0.18 0.04 0 0.185 0.04 0 0.19 0.04 0 0.195 0.04 0 0.2 0.04 0 0.205 0.04 0 0.21 0.04 0 0.215 0.04 0 0.22 0.04 0 0.225 0.04 0 0.23 0.04 0 0.235 0.04 0 0.24 0.04 0 0.245 0.04 0 0.25 0.04 0 0.255 0.04 0 0.26 0.04 0 0.265 0.04 0 0.27 0.04 0 0.275 0.04 0 0.28 0.04 0 0.285 0.04 0 0.29 0.04 0 0.295 0.04 0 0.3 0.04 0 0.305 0.04 0 0.31 0.04 0 0.315 0.04 0 0.32 0.04 0 0.325 0.04 0 0.33 0.04 0 0.335 0.04 0 0.34 0.04 0 0.345 0.04 0 0.35 0.04 0 0.355 0.04 0 0.36 0.04 0 0.365 0.04 0 0.37 0.04 0 0.375 0.04 0 0.38 0.04 0 0.385 0.04 0 0.39 0.04 0 0.395 0.04 0 0.4 0.04 0 0.405 0.04 0 0.41 0.04 0 0.415 0.04 0 0.42 0.04 0 0.425 0.04 0 0.43 0.04 0 0.435 0.04 0 0.44 0.04 0 0.445 0.04 0 0.45 0.04 0 0.455 0.04 0 0.46 0.04 0 0.465 0.04 0 0.47 0.04 0 0.475 0.04 0 0.48 0.04 0 0.485 0.04 0 0.49 0.04 0 0.495 0.04 0 0.5 0.04 0 0.505 0.04 0 0.51 0.04 0 0.515 0.04 0 0.52 0.04 0 0.525 0.04 0 0.53 0.04 0 0.535 0.04 0 0.54 0.04 0 0.545 0.04 0 0.55 0.04 0 0.555 0.04 0 0.56 0.04 0 0.565 0.04 0 0.57 0.04 0 0.575 0.04 0 0.58 0.04 0 0.585 0.04 0 0.59 0.04 0 0.595 0.04 0 0.6 0.04 0 0.605 0.04 0 0.61 0.04 0 0.615 0.04 0 0.62 0.04 0 0.625 0.04 0 0.63 0.04 0 0.635 0.04 0 0.64 0.04 0 0.645 0.04 0 0.65 0.04 0 0.655 0.04 0 0.66 0.04 0 0.665 0.04 0 0.67 0.04 0 0.675 0.04 0 0.68 0.04 0 0.685 0.04 0 0.69 0.04 0 0.695 0.04 0 0.7 0.04 0 0.705 0.04 0 0.71 0.04 0 0.715 0.04 0 0.72 0.04 0 0.725 0.04 0 0.73 0.04 0 0.735 0.04 0 0.74 0.04 0 0.745 0.04 0 0.75 0.04 0 0.755 0.04 0 0.76 0.04 0 0.765 0.04 0 0.77 0.04 0 0.775 0.04 0 0.78 0.04 0 0.785 0.04 0 0.79 0.04 0 0.795 0.04 0 0.8 0.04 0 0.805 0.04 0 0.81 0.04 0 0.815 0.04 0 0.82 0.04 0 0.825 0.04 0 0.83 0.04 0 0.835 0.04 0 0.84 0.04 0 0.845 0.04 0 0.85 0.04 0 0.855 0.04 0 0.86 0.04 0 0.865 0.04 0 0.87 0.04 0 0.875 0.04 0 0.88 0.04 0 0.885 0.04 0 0.89 0.04 0 0.895 0.04 0 0.9 0.04 0 0.905 0.04 0 0.91 0.04 0 0.915 0.04 0 0.92 0.04 0 0.925 0.04 0 0.93 0.04 0 0.935 0.04 0 0.94 0.04 0 0.945 0.04 0 0.95 0.04 0 0.955 0.04 0 0.96 0.04 0 0.965 0.04 0 0.97 0.04 0 0.975 0.04 0 0.98 0.04 0 0.985 0.04 0 0.99 0.04 0 0.995 0.04 0 1 0.04 0 0 0.06 0 0.005 0.06 0 0.01 0.06 0 0.015 0.06 0 0.02 0.06 0 0.025 0.06 0 0.03 0.06 0 0.035 0.06 0 0.04 0.06 0 0.045 0.06 0 0.05 0.06 0 0.055 0.06 0 0.06 0.06 0 0.065 0.06 0 0.07 0.06 0 0.075 0.06 0 0.08 0.06 0 0.085 0.06 0 0.09 0.06 0 0.095 0.06 0 0.1 0.06 0 0.105 0.06 0 0.11 0.06 0 0.115 0.06 0 0.12 0.06 0 0.125 0.06 0 0.13 0.06 0 0.135 0.06 0 0.14 0.06 0 0.145 0.06 0 0.15 0.06 0 0.155 0.06 0 0.16 0.06 0 0.165 0.06 0 0.17 0.06 0 0.175 0.06 0 0.18 0.06 0 0.185 0.06 0 0.19 0.06 0 0.195 0.06 0 0.2 0.06 0 0.205 0.06 0 0.21 0.06 0 0.215 0.06 0 0.22 0.06 0 0.225 0.06 0 0.23 0.06 0 0.235 0.06 0 0.24 0.06 0 0.245 0.06 0 0.25 0.06 0 0.255 0.06 0 0.26 0.06 0 0.265 0.06 0 0.27 0.06 0 0.275 0.06 0 0.28 0.06 0 0.285 0.06 0 0.29 0.06 0 0.295 0.06 0 0.3 0.06 0 0.305 0.06 0 0.31 0.06 0 0.315 0.06 0 0.32 0.06 0 0.325 0.06 0 0.33 0.06 0 0.335 0.06 0 0.34 0.06 0 0.345 0.06 0 0.35 0.06 0 0.355 0.06 0 0.36 0.06 0 0.365 0.06 0 0.37 0.06 0 0.375 0.06 0 0.38 0.06 0 0.385 0.06 0 0.39 0.06 0 0.395 0.06 0 0.4 0.06 0 0.405 0.06 0 0.41 0.06 0 0.415 0.06 0 0.42 0.06 0 0.425 0.06 0 0.43 0.06 0 0.435 0.06 0 0.44 0.06 0 0.445 0.06 0 0.45 0.06 0 0.455 0.06 0 0.46 0.06 0 0.465 0.06 0 0.47 0.06 0 0.475 0.06 0 0.48 0.06 0 0.485 0.06 0 0.49 0.06 0 0.495 0.06 0 0.5 0.06 0 0.505 0.06 0 0.51 0.06 0 0.515 0.06 0 0.52 0.06 0 0.525 0.06 0 0.53 0.06 0 0.535 0.06 0 0.54 0.06 0 0.545 0.06 0 0.55 0.06 0 0.555 0.06 0 0.56 0.06 0 0.565 0.06 0 0.57 0.06 0 0.575 0.06 0 0.58 0.06 0 0.585 0.06 0 0.59 0.06 0 0.595 0.06 0 0.6 0.06 0 0.605 0.06 0 0.61 0.06 0 0.615 0.06 0 0.62 0.06 0 0.625 0.06 0 0.63 0.06 0 0.635 0.06 0 0.64 0.06 0 0.645 0.06 0 0.65 0.06 0 0.655 0.06 0 0.66 0.06 0 0.665 0.06 0 0.67 0.06 0 0.675 0.06 0 0.68 0.06 0 0.685 0.06 0 0.69 0.06 0 0.695 0.06 0 0.7 0.06 0 0.705 0.06 0 0.71 0.06 0 0.715 0.06 0 0.72 0.06 0 0.725 0.06 0 0.73 0.06 0 0.735 0.06 0 0.74 0.06 0 0.745 0.06 0 0.75 0.06 0 0.755 0.06 0 0.76 0.06 0 0.765 0.06 0 0.77 0.06 0 0.775 0.06 0 0.78 0.06 0 0.785 0.06 0 0.79 0.06 0 0.795 0.06 0 0.8 0.06 0 0.805 0.06 0 0.81 0.06 0 0.815 0.06 0 0.82 0.06 0 0.825 0.06 0 0.83 0.06 0 0.835 0.06 0 0.84 0.06 0 0.845 0.06 0 0.85 0.06 0 0.855 0.06 0 0.86 0.06 0 0.865 0.06 0 0.87 0.06 0 0.875 0.06 0 0.88 0.06 0 0.885 0.06 0 0.89 0.06 0 0.895 0.06 0 0.9 0.06 0 0.905 0.06 0 0.91 0.06 0 0.915 0.06 0 0.92 0.06 0 0.925 0.06 0 0.93 0.06 0 0.935 0.06 0 0.94 0.06 0 0.945 0.06 0 0.95 0.06 0 0.955 0.06 0 0.96 0.06 0 0.965 0.06 0 0.97 0.06 0 0.975 0.06 0 0.98 0.06 0 0.985 0.06 0 0.99 0.06 0 0.995 0.06 0 1 0.06 0 0 0.08 0 0.005 0.08 0 0.01 0.08 0 0.015 0.08 0 0.02 0.08 0 0.025 0.08 0 0.03 0.08 0 0.035 0.08 0 0.04 0.08 0 0.045 0.08 0 0.05 0.08 0 0.055 0.08 0 0.06 0.08 0 0.065 0.08 0 0.07 0.08 0 0.075 0.08 0 0.08 0.08 0 0.085 0.08 0 0.09 0.08 0 0.095 0.08 0 0.1 0.08 0 0.105 0.08 0 0.11 0.08 0 0.115 0.08 0 0.12 0.08 0 0.125 0.08 0 0.13 0.08 0 0.135 0.08 0 0.14 0.08 0 0.145 0.08 0 0.15 0.08 0 0.155 0.08 0 0.16 0.08 0 0.165 0.08 0
[...]
			<PointData Scalars="VitesseX">
				<DataArray Name="VitesseX" type="Float32" format="ascii">
 0 2.40266e-14 2.3535e-14 3.97255e-14 -2.66876e-14 -5.31112e-15 3.10958e-14 1.14227e-14 -4.47205e-14 6.28963e-14 -2.60519e-14 -5.24767e-14 3.87032e-15 3.15613e-14 -4.29545e-14 -2.80853e-14 -2.9715e-14 -9.35425e-14 1.59373e-14 -2.19361e-13 -9.18386e-14 -7.75057e-14 -1.64891e-13 -2.29635e-14 -1.18214e-13 4.89626e-14 -3.17055e-13 -7.41349e-14 -8.5007e-14 -1.85029e-13 -3.91503e-14 -8.67589e-14 -8.8935e-14 -2.54452e-14 -3.79286e-13 -2.46751e-13 -7.45684e-14 -1.22377e-14 -3.55814e-13 -9.4052e-14 2.82659e-13 -2.79561e-13 2.61632e-13 1.52539e-13 8.97465e-14 -1.7138e-13 2.7176e-13 5.229e-12 3.33215e-11 2.0629e-10 1.20167e-09 6.60604e-09 3.42028e-08 1.66299e-07 7.56931e-07 3.21363e-06 1.26734e-05 4.61994e-05 0.000154795 0.000473598 0.00131356 0.00327907 0.0073269 0.0146227 0.0261244 0.0421164 0.0620689 0.0849544 0.109728 0.13562 0.162156 0.189068 0.216237 0.243574 0.271007 0.298482 0.325951 0.353395 0.380795 0.408137 0.435406 0.462589 0.489671 0.516637 0.543471 0.570154 0.596668 0.622988 0.649091 0.674949 0.700533 0.72581 0.750748 0.775315 0.799481 0.823228 0.84655 0.869476 0.892083 0.914498 0.937261 0.940163 0.939872 0.939059 0.937943 0.936645 0.935328 0.934061 0.932853 0.931738 0.930746 0.929928 0.929357 0.928938 0.928601 0.928334 0.928152 0.927966 0.927915 0.927845 0.927748 0.927676 0.927489 0.927558 0.927477 0.928145 0.909043 0.937162 0.926082 0.926061 0.927011 0.92851 0.929065 0.929164 0.929172 0.929145 0.929064 0.929015 0.929054 0.929209 0.929337 0.929358 0.929354 0.92933 0.929282 0.929241 0.929144 0.929032 0.927929 0.922752 0.907418 0.872044 0.807509 0.711274 0.587202 0.446313 0.305971 0.184838 0.096998 0.0444683 0.0184657 0.00726256 0.00278178 0.0010528 0.000396094 0.000148476 5.54896e-05 2.06768e-05 7.68034e-06 2.84288e-06 1.04822e-06 3.84848e-07 1.4063e-07 5.11258e-08 1.84833e-08 6.64192e-09 2.37183e-09 8.40779e-10 2.95903e-10 1.03148e-10 3.5069e-11 1.17763e-11 3.60442e-12 1.6095e-12 -3.32396e-13 -1.62987e-13 -4.61791e-13 7.41122e-13 2.50429e-13 -1.68766e-14 7.33726e-13 -1.13467e-13 7.09944e-13 -5.41236e-13 1.35368e-12 -3.42053e-13 -5.111e-14 9.13148e-13 -2.50111e-13 -2.91381e-13 0 0 7.30422e-15 1.89796e-14 -6.53677e-15 3.41781e-14 4.43578e-14 -6.99472e-15 -2.96317e-14 2.15923e-14 -6.20605e-14 -4.64171e-14 4.73637e-14 5.13605e-16 -8.17696e-14 -1.82222e-14 1.61029e-14 -1.01997e-14 -6.10838e-14 -1.3132e-13 4.84575e-14 -1.16756e-13 -1.54134e-13 -3.2927e-14 -2.14212e-13 -2.97455e-14 -1.44806e-13 6.44378e-14 -2.02092e-13 -1.81609e-13 -6.10717e-14 -1.14263e-13 -1.60139e-13 -7.46225e-14 -2.34964e-13 -7.31502e-14 -1.75545e-13 -1.68423e-13 -1.88859e-13 7.25204e-14 5.00576e-14 -3.11027e-13 1.79408e-13 9.70642e-14 -6.29694e-14 -1.21422e-13 9.54797e-14 4.61812e-13 4.59255e-12 3.33667e-11 2.06609e-10 1.20167e-09 6.60618e-09 3.4203e-08 1.66298e-07 7.56931e-07 3.21363e-06 1.26734e-05 4.61994e-05 0.000154795 0.000473598 0.00131356 0.00327907 0.0073269 0.0146227 0.0261244 0.0421164 0.0620689 0.0849544 0.109728 0.13562 0.162156 0.189068 0.216237 0.243574 0.271007 0.298482 0.325951 0.353395 0.380795 0.408137 0.435406 0.462589 0.489671 0.516637 0.543471 0.570154 0.596668 0.622988 0.649091 0.674949 0.700533 0.72581 0.750748 0.775315 0.799481 0.823228 0.84655 0.869476 0.892083 0.914498 0.93726 0.940163 0.939872 0.939059 0.937943 0.936645 0.935328 0.934061 0.932853 0.931739 0.930746 0.929928 0.929357 0.928938 0.928601 0.928334 0.928152 0.927966 0.927915 0.927845 0.927748 0.927676 0.927489 0.927558 0.927477 0.928145 0.909043 0.937162 0.926082 0.926061 0.927011 0.92851 0.929065 0.929164 0.929172 0.929145 0.929064 0.929015 0.929054 0.929209 0.929337 0.929358 0.929354 0.92933 0.929282 0.929241 0.929144 0.929032 0.927929 0.922752 0.907418 0.872044 0.807509 0.711274 0.587202 0.446313 0.305971 0.184838 0.096998 0.0444683 0.0184657 0.00726256 0.00278178 0.0010528 0.000396094 0.000148476 5.54896e-05 2.06768e-05 7.68034e-06 2.84288e-06 1.04822e-06 3.84848e-07 1.40631e-07 5.11257e-08 1.84832e-08 6.64223e-09 2.37144e-09 8.40933e-10 2.95924e-10 1.02976e-10 3.55894e-11 1.18478e-11 3.75262e-12 7.0781e-13 6.05686e-13 -5.35483e-13 3.04874e-13 -1.74237e-13 -1.33202e-13 5.67334e-13 1.06852e-13 1.66258e-13 7.78421e-14 7.16075e-13 -3.60166e-13 6.86713e-13 5.16715e-13 2.50861e-13 -1.5019e-13 2.47481e-13 0 0 -7.47443e-15 -1.19416e-14 2.11844e-14 2.24607e-14 4.12916e-15 3.67181e-14 2.95071e-15 -1.16245e-14 3.48591e-14 -4.06009e-14 -9.22286e-14 5.13749e-14 2.34184e-14 -6.35198e-14 -2.89137e-14 -1.20628e-13 -1.00478e-14 1.00332e-13 -1.56984e-13 -3.11747e-15 -2.90973e-14 -2.00101e-13 7.85182e-14 -2.17801e-13 -5.30803e-14 -3.03331e-13 -6.12491e-14 -1.77962e-13 -1.24939e-13 -2.12887e-14 -1.05813e-13 -7.81217e-14 -2.13754e-13 -1.88074e-13 -5.89411e-14 8.17864e-14 -6.01342e-14 -1.75013e-13 -1.66074e-13 -2.52795e-15 4.09967e-14 -6.43057e-14 -6.54154e-14 -5.52772e-14 -8.42505e-14 4.31768e-13 5.08467e-12 3.33223e-11 2.06717e-10 1.20161e-09 6.60617e-09 3.42029e-08 1.66299e-07 7.56931e-07 3.21363e-06 1.26734e-05 4.61994e-05 0.000154795 0.000473598 0.00131356 0.00327907 0.0073269 0.0146227 0.0261244 0.0421164 0.0620689 0.0849544 0.109728 0.13562 0.162156 0.189068 0.216237 0.243574 0.271007 0.298482 0.325951 0.353395 0.380795 0.408137 0.435406 0.462589 0.489671 0.516637 0.543471 0.570154 0.596668 0.622988 0.649091 0.674949 0.700533 0.72581 0.750748 0.775315 0.799481 0.823227 0.84655 0.869476 0.892083 0.914498 0.937259 0.940163 0.939872 0.939059 0.937944 0.936645 0.935328 0.934061 0.932853 0.931739 0.930746 0.929928 0.929357 0.928938 0.928601 0.928334 0.928152 0.927966 0.927915 0.927845 0.927748 0.927676 0.927489 0.927558 0.927477 0.928145 0.909043 0.937162 0.926082 0.926061 0.927011 0.92851 0.929065 0.929164 0.929172 0.929145 0.929064 0.929015 0.929054 0.929209 0.929337 0.929358 0.929354 0.92933 0.929282 0.929241 0.929144 0.929032 0.927929 0.922752 0.907418 0.872044 0.807509 0.711274 0.587202 0.446313 0.305971 0.184838 0.096998 0.0444683 0.0184657 0.00726256 0.00278178 0.0010528 0.000396094 0.000148476 5.54896e-05 2.06768e-05 7.68034e-06 2.84288e-06 1.04822e-06 3.84848e-07 1.40631e-07 5.11257e-08 1.84833e-08 6.64216e-09 2.37162e-09 8.40743e-10 2.95795e-10 1.03267e-10 3.5764e-11 1.185e-11 4.03583e-12 1.084e-12 2.29653e-13 -1.8967e-14 -2.73483e-13 -2.44034e-13 6.15698e-14 1.89471e-13 -2.45238e-13 5.34487e-13 1.17045e-13 3.45355e-13 2.4685e-13 3.587e-13 -1.56074e-14 1.84045e-13 4.67374e-13 2.50356e-13 0 0 -8.56817e-15 -1.69513e-14 2.58228e-14 -1.4546e-14 -8.34625e-15 4.31873e-14 -1.83398e-14 -3.39734e-14 3.35647e-14 -1.3724e-14 2.16402e-14 7.92411e-14 1.09463e-14 -1.00651e-13 -2.37279e-14 -1.19535e-13 -4.40201e-14 2.89822e-14 -1.02411e-13 -1.42501e-13 5.11285e-14 8.95447e-14 -1.36359e-13 -3.25865e-14 -1.30286e-13 -2.99718e-13 -2.24195e-13 -6.52504e-14 -1.30687e-13 5.83948e-14 -1.71531e-13 -2.51142e-13 6.28399e-14 -1.41203e-13 -5.55737e-14 6.78279e-14 -6.47775e-14 -1.98568e-13 -2.62846e-13 8.42917e-14 -1.8291e-13 -3.93071e-14 6.39345e-14 -1.83449e-13 -1.11327e-13 6.49679e-13 5.29695e-12 3.35536e-11 2.0643e-10 1.20185e-09 6.60616e-09 3.42029e-08 1.66299e-07 7.56932e-07 3.21363e-06 1.26734e-05 4.61994e-05 0.000154795 0.000473598 0.00131356 0.00327907 0.0073269 0.0146227 0.0261244 0.0421164 0.0620689 0.0849544 0.109728 0.13562 0.162156 0.189068 0.216237 0.243574 0.271007 0.298482 0.325951 0.353395 0.380795 0.408137 0.435406 0.462589 0.489671 0.516637 0.543471 0.570154 0.596668 0.622988 0.649091 0.674949 0.700533 0.72581 0.750748 0.775315 0.799481 0.823227 0.84655 0.869476 0.892083 0.914498 0.93726 0.940163 0.939872 0.939059 0.937943 0.936645 0.935328 0.934061 0.932853 0.931739 0.930746 0.929928 0.929357 0.928938 0.928601 0.928334 0.928152 0.927966 0.927915 0.927845 0.927748 0.927676 0.927489 0.927558 0.927477 0.928145 0.909043 0.937162 0.926082 0.92606 0.927011 0.92851 0.929065 0.929164 0.929172 0.929145 0.929064 0.929015 0.929054 0.929209 0.929337 0.929358 0.929354 0.92933 0.929282 0.929241 0.929144 0.929032 0.927929 0.922752 0.907418 0.872044 0.807509 0.711274 0.587202 0.446313 0.305971 0.184838 0.096998 0.0444683 0.0184657 0.00726256 0.00278178 0.0010528 0.000396094 0.000148476 5.54896e-05 2.06768e-05 7.68034e-06 2.84288e-06 1.04822e-06 3.84848e-07 1.4063e-07 5.11257e-08 1.84835e-08 6.64188e-09 2.37157e-09 8.40983e-10 2.95911e-10 1.03293e-10 3.55545e-11 1.21843e-11 3.65568e-12 1.03682e-12 5.85216e-13 1.83077e-13 -8.59709e-14 -2.86818e-13 2.04008e-13 3.45392e-15 -2.3911e-13 -2.61734e-13 1.57981e-13 -8.87535e-14 6.98226e-13 -1.25895e-13 -8.66473e-14 7.07938e-13 -9.70397e-14 -4.3626e-13 0 0 -1.20854e-14 -1.13915e-14 -4.15202e-14 -2.40928e-14 7.30941e-15 -2.45795e-14 -4.62126e-14 1.91969e-14 -1.39396e-14 -1.2957e-14 8.78146e-14 7.08996e-15 -3.04089e-14 8.39152e-15 -9.08135e-15 2.76914e-14 -2.09717e-14 -1.07247e-13 9.27372e-14 -1.5075e-13 -8.87771e-14 1.30073e-13 -3.35708e-13 1.06477e-13 -2.14312e-13 1.77822e-13 -2.99353e-13 -2.84497e-13 -6.87217e-14 -1.89541e-13 -1.85607e-13 -1.74265e-13 4.14153e-14 1.43859e-13 -1.58136e-14 -4.81945e-14 -4.7945e-14 7.27767e-14 -6.20861e-14 -3.01963e-13 -1.25005e-13 -4.51121e-14 -1.4201e-13 -2.75782e-13 1.3891e-13 7.03176e-13 4.79303e-12 3.37922e-11 2.06654e-10 1.20166e-09 6.60629e-09 3.42033e-08 1.66299e-07 7.56931e-07 3.21363e-06 1.26734e-05 4.61994e-05 0.000154795 0.000473598 0.00131356 0.00327907 0.0073269 0.0146227 0.0261244 0.0421164 0.0620689 0.0849544 0.109728 0.13562 0.162156 0.189068 0.216237 0.243574 0.271007 0.298482 0.325951 0.353395 0.380795 0.408137 0.435406 0.462589 0.489671 0.516637 0.543471 0.570154 0.596668 0.622988 0.649091 0.674949 0.700533 0.72581 0.750748 0.775315 0.799481 0.823227 0.84655 0.869476 0.892083 0.914498 0.93726 0.940163 0.939872 0.939059 0.937943 0.936645 0.935328 0.934061 0.932853 0.931739 0.930746 0.929928 0.929357 0.928938 0.928601 0.928334 0.928152 0.927966 0.927915 0.927845 0.927748 0.927676 0.927489 0.927558 0.927477 0.928145 0.909043 0.937162 0.926082 0.92606 0.927011 0.92851 0.929065 0.929164 0.929172 0.929145 0.929064 0.929015 0.929054 0.929209 0.929337 0.929358 0.929354 0.92933 0.929282 0.929241 0.929144 0.929032 0.927929 0.922752 0.907418 0.872044 0.807509 0.711274 0.587202 0.446313 0.305971 0.184838 0.096998 0.0444683 0.0184657 0.00726256 0.00278178 0.0010528 0.000396094 0.000148476 5.54896e-05 2.06768e-05 7.68034e-06 2.84288e-06 1.04822e-06 3.84848e-07 1.4063e-07 5.11256e-08 1.84832e-08 6.64236e-09 2.37114e-09 8.40906e-10 2.95992e-10 1.0344e-10 3.53901e-11 1.23306e-11 3.62408e-12 5.82967e-13 9.05061e-13 -2.22995e-13 6.05112e-13 -2.09709e-13 -4.87592e-13 6.43232e-14 -1.29748e-13 -3.68817e-13 -6.59972e-14 6.75634e-13 -7.03245e-13 1.14832e-13 5.33179e-14 2.78411e-13 -3.29848e-13 -1.27264e-13 0 0 -1.25651e-14 -2.71876e-14 -3.95183e-14 -6.92159e-14 -5.44571e-14 -1.70121e-14 2.08419e-14 -4.81318e-15 1.61727e-13 -1.28857e-14 -1.99313e-13 -3.87094e-14 1.59227e-13 8.45354e-14 -8.88256e-14 4.38809e-14 5.46262e-14 2.06783e-13 -2.39948e-13 1.18941e-13 -1.07243e-13 -4.18184e-13 1.63799e-13 -2.16198e-13 6.43632e-14 -9.7511e-14 5.72346e-14 -5.16206e-13 -1.88835e-13 -3.49074e-13 -6.26033e-15 5.78194e-14 -2.58746e-14 -3.90101e-14 6.59772e-14 1.93805e-13 2.78876e-13 -3.08192e-13 -1.24795e-13 1.27148e-13 -4.40573e-13 -7.27177e-14 -2.64242e-13 3.73685e-14 -3.03667e-14 3.18663e-13 5.20541e-12 3.37099e-11 2.06953e-10 1.20116e-09 6.60626e-09 3.42032e-08 1.66299e-07 7.56932e-07 3.21363e-06 1.26734e-05 4.61994e-05 0.000154795 0.000473598 0.00131356 0.00327907 0.0073269 0.0146227 0.0261244 0.0421164 0.0620689 0.0849544 0.109728 0.13562 0.162156 0.189068 0.216237 0.243574 0.271007 0.298482 0.325951 0.353395 0.380795 0.408137 0.435406 0.462589 0.489671 0.516637 0.543471 0.570154 0.596668 0.622988 0.649091 0.674949 0.700533 0.72581 0.750748 0.775315 0.799481 0.823227 0.84655 0.869476 0.892083 0.914498 0.937259 0.940163 0.939872 0.939059 0.937944 0.936645 0.935328 0.934061 0.932853 0.931739 0.930746 0.929928 0.929357 0.928938 0.928601 0.928334 0.928152 0.927966 0.927915 0.927845 0.927748 0.927676 0.927489 0.927558 0.927477 0.928145 0.909043 0.937162 0.926082 0.926061 0.927011 0.92851 0.929065 0.929164 0.929172 0.929145 0.929064 0.929015 0.929053 0.929209 0.929337 0.929358 0.929354 0.92933 0.929282 0.929241 0.929144 0.929032 0.927929 0.922752 0.907418 0.872044 0.807509 0.711274 0.587202 0.446313 0.305971 0.184838 0.096998 0.0444683 0.0184657 0.00726256 0.00278178 0.0010528 0.000396094 0.000148476 5.54896e-05 2.06768e-05 7.68034e-06 2.84288e-06 1.04822e-06 3.84848e-07 1.40631e-07 5.11255e-08 1.84828e-08 6.64274e-09 2.37135e-09 8.40246e-10 2.95807e-10 1.04025e-10 3.50895e-11 1.20732e-11 4.10763e-12 1.45417e-12 -4.44772e-13 5.79017e-14 -2.36339e-13 7.55746e-13 -7.43228e-13 -6.50862e-13 2.48271e-13 4.08826e-13 3.40393e-13 2.46102e-13 -2.35226e-13 -5.16626e-13 -8.35825e-13 -7.95376e-14 5.19401e-13 3.32361e-13 0
				</DataArray>
				<DataArray Name="VitesseY" type="Float32" format="ascii">