<?xml version="1.0"?>
<VTKFile type="PolyData">
	<PolyData>
		<Piece NumberOfPoints="1206" NumberOfPolys="1000">
			<Points>
				<DataArray type="Float32" NumberOfComponents="3" format="ascii">
 0 0 0 0.005 0 0 0.01 0 0 0.015 0 0 0.02 0 0 0.025 0 0 0.03 0 0 0.035 0 0 0.04 0 0 0.045 0 0 0.05 0 0 0.055 0 0 0.06 0 0 0.065 0 0 0.07 0 0 0.075 0 0 0.08 0 0 0.085 0 0 0.09 0 0 0.095 0 0 0.1 0 0 0.105 0 0 0.11 0 0 0.115 0 0 0.12 0 0 0.125 0 0 0.13 0 0 0.135 0 0 0.14 0 0 0.145 0 0 0.15 0 0 0.155 0 0 0.16 0 0 0.165 0 0 0.17 0 0 0.175 0 0 0.18 0 0 0.185 0 0 0.19 0 0 0.195 0 0 0.2 0 0 0.205 0 0 0.21 0 0 0.215 0 0 0.22 0 0 0.225 0 0 0.23 0 0 0.235 0 0 0.24 0 0 0.245 0 0 0.25 0 0 0.255 0 0 0.26 0 0 0.265 0 0 0.27 0 0 0.275 0 0 0.28 0 0 0.285 0 0 0.29 0 0 0.295 0 0 0.3 0 0 0.305 0 0 0.31 0 0 0.315 0 0 0.32 0 0 0.325 0 0 0.33 0 0 0.335 0 0 0.34 0 0 0.345 0 0 0.35 0 0 0.355 0 0 0.36 0 0 0.365 0 0 0.37 0 0 0.375 0 0 0.38 0 0 0.385 0 0 0.39 0 0 0.395 0 0 0.4 0 0 0.405 0 0 0.41 0 0 0.415 0 0 0.42 0 0 0.425 0 0 0.43 0 0 0.435 0 0 0.44 0 0 0.445 0 0 0.45 0 0 0.455 0 0 0.46 0 0 0.465 0 0 0.47 0 0 0.475 0 0 0.48 0 0 0.485 0 0 0.49 0 0 0.495 0 0 0.5 0 0 0.505 0 0 0.51 0 0 0.515 0 0 0.52 0 0 0.525 0 0 0.53 0 0 0.535 0 0 0.54 0 0 0.545 0 0 0.55 0 0 0.555 0 0 0.56 0 0 0.565 0 0 0.57 0 0 0.575 0 0 0.58 0 0 0.585 0 0 0.59 0 0 0.595 0 0 0.6 0 0 0.605 0 0 0.61 0 0 0.615 0 0 0.62 0 0 0.625 0 0 0.63 0 0 0.635 0 0 0.64 0 0 0.645 0 0 0.65 0 0 0.655 0 0 0.66 0 0 0.665 0 0 0.67 0 0 0.675 0 0 0.68 0 0 0.685 0 0 0.69 0 0 0.695 0 0 0.7 0 0 0.705 0 0 0.71 0 0 0.715 0 0 0.72 0 0 0.725 0 0 0.73 0 0 0.735 0 0 0.74 0 0 0.745 0 0 0.75 0 0 0.755 0 0 0.76 0 0 0.765 0 0 0.77 0 0 0.775 0 0 0.78 0 0 0.785 0 0 0.79 0 0 0.795 0 0 0.8 0 0 0.805 0 0 0.81 0 0 0.815 0 0 0.82 0 0 0.825 0 0 0.83 0 0 0.835 0 0 0.84 0 0 0.845 0 0 0.85 0 0 0.855 0 0 0.86 0 0 0.865 0 0 0.87 0 0 0.875 0 0 0.88 0 0 0.885 0 0 0.89 0 0 0.895 0 0 0.9 0 0 0.905 0 0 0.91 0 0 0.915 0 0 0.92 0 0 0.925 0 0 0.93 0 0 0.935 0 0 0.94 0 0 0.945 0 0 0.95 0 0 0.955 0 0 0.96 0 0 0.965 0 0 0.97 0 0 0.975 0 0 0.98 0 0 0.985 0 0 0.99 0 0 0.995 0 0 1 0 0 0 0.02 0 0.005 0.02 0 0.01 0.02 0 0.015 0.02 0 0.02 0.02 0 0.025 0.02 0 0.03 0.02 0 0.035 0.02 0 0.04 0.02 0 0.045 0.02 0 0.05 0.02 0 0.055 0.02 0 0.06 0.02 0 0.065 0.02 0 0.07 0.02 0 0.075 0.02 0 0.08 0.02 0 0.085 0.02 0 0.09 0.02 0 0.095 0.02 0 0.1 0.02 0 0.105 0.02 0 0.11 0.02 0 0.115 0.02 0 0.12 0.02 0 0.125 0.02 0 0.13 0.02 0 0.135 0.02 0 0.14 0.02 0 0.145 0.02 0 0.15 0.02 0 0.155 0.02 0 0.16 0.02 0 0.165 0.02 0 0.17 0.02 0 0.175 0.02 0 0.18 0.02 0 0.185 0.02 0 0.19 0.02 0 0.195 0.02 0 0.2 0.02 0 0.205 0.02 0 0.21 0.02 0 0.215 0.02 0 0.22 0.02 0 0.225 0.02 0 0.23 0.02 0 0.235 0.02 0 0.24 0.02 0 0.245 0.02 0 0.25 0.02 0 0.255 0.02 0 0.26 0.02 0 0.265 0.02 0 0.27 0.02 0 0.275 0.02 0 0.28 0.02 0 0.285 0.02 0 0.29 0.02 0 0.295 0.02 0 0.3 0.02 0 0.305 0.02 0 0.31 0.02 0 0.315 0.02 0 0.32 0.02 0 0.325 0.02 0 0.33 0.02 0 0.335 0.02 0 0.34 0.02 0 0.345 0.02 0 0.35 0.02 0 0.355 0.02 0 0.36 0.02 0 0.365 0.02 0 0.37 0.02 0 0.375 0.02 0 0.38 0.02 0 0.385 0.02 0 0.39 0.02 0 0.395 0.02 0 0.4 0.02 0 0.405 0.02 0 0.41 0.02 0 0.415 0.02 0 0.42 0.02 0 0.425 0.02 0 0.43 0.02 0 0.435 0.02 0 0.44 0.02 0 0.445 0.02 0 0.45 0.02 0 0.455 0.02 0 0.46 0.02 0 0.465 0.02 0 0.47 0.02 0 0.475 0.02 0 0.48 0.02 0 0.485 0.02 0 0.49 0.02 0 0.495 0.02 0 0.5 0.02 0 0.505 0.02 0 0.51 0.02 0 0.515 0.02 0 0.52 0.02 0 0.525 0.02 0 0.53 0.02 0 0.535 0.02 0 0.54 0.02 0 0.545 0.02 0 0.55 0.02 0 0.555 0.02 0 0.56 0.02 0 0.565 0.02 0 0.57 0.02 0 0.575 0.02 0 0.58 0.02 0 0.585 0.02 0 0.59 0.02 0 0.595 0.02 0 0.6 0.02 0 0.605 0.02 0 0.61 0.02 0 0.615 0.02 0 0.62 0.02 0 0.625 0.02 0 0.63 0.02 0 0.635 0.02 0 0.64 0.02 0 0.645 0.02 0 0.65 0.02 0 0.655 0.02 0 0.66 0.02 0 0.665 0.02 0 0.67 0.02 0 0.675 0.02 0 0.68 0.02 0 0.685 0.02 0 0.69 0.02 0 0.695 0.02 0 0.7 0.02 0 0.705 0.02 0 0.71 0.02 0 0.715 0.02 0 0.72 0.02 0 0.725 0.02 0 0.73 0.02 0 0.735 0.02 0 0.74 0.02 0 0.745 0.02 0 0.75 0.02 0 0.755 0.02 0 0.76 0.02 0 0.765 0.02 0 0.77 0.02 0 0.775 0.02 0 0.78 0.02 0 0.785 0.02 0 0.79 0.02 0 0.795 0.02 0 0.8 0.02 0 0.805 0.02 0 0.81 0.02 0 0.815 0.02 0 0.82 0.02 0 0.825 0.02 0 0.83 0.02 0 0.835 0.02 0 0.84 0.02 0 0.845 0.02 0 0.85 0.02 0 0.855 0.02 0 0.86 0.02 0 0.865 0.02 0 0.87 0.02 0 0.875 0.02 0 0.88 0.02 0 0.885 0.02 0 0.89 0.02 0 0.895 0.02 0 0.9 0.02 0 0.905 0.02 0 0.91 0.02 0 0.915 0.02 0 0.92 0.02 0 0.925 0.02 0 0.93 0.02 0 0.935 0.02 0 0.94 0.02 0 0.945 0.02 0 0.95 0.02 0 0.955 0.02 0 0.96 0.02 0 0.965 0.02 0 0.97 0.02 0 0.975 0.02 0 0.98 0.02 0 0.985 0.02 0 0.99 0.02 0 0.995 0.02 0 1 0.02 0 0 0.04 0 0.005 0.04 0 0.01 0.04 0 0.015 0.04 0 0.02 0.04 0 0.025 0.04 0 0.03 0.04 0 0.035 0.04 0 0.04 0.04 0 0.045 0.04 0 0.05 0.04 0 0.055 0.04 0 0.06 0.04 0 0.065 0.04 0 0.07 0.04 0 0.075 0.04 0 0.08 0.04 0 0.085 0.04 0 0.09 0.04 0 0.095 0.04 0 0.1 0.04 0 0.105 0.04 0 0.11 0.04 0 0.115 0.04 0 0.12 0.04 0 0.125 0.04 0 0.13 0.04 0 0.135 0.04 0 0.14 0.04 0 0.145 0.04 0 0.15 0.04 0 0.155 0.04 0 0.16 0.04 0 0.165 0.04 0 0.17 0.04 0 0.175 0.04 0 0.18 0.04 0 0.185 0.04 0 0.19 0.04 0 0.195 0.04 0 0.2 0.04 0 0.205 0.04 0 0.21 0.04 0 0.215 0.04 0 0.22 0.04 0 0.225 0.04 0 0.23 0.04 0 0.235 0.04 0 0.24 0.04 0 0.245 0.04 0 0.25 0.04 0 0.255 0.04 0 0.26 0.04 0 0.265 0.04 0 0.27 0.04 0 0.275 0.04 0 0.28 0.04 0 0.285 0.04 0 0.29 0.04 0 0.295 0.04 0 0.3 0.04 0 0.305 0.04 0 0.31 0.04 0 0.315 0.04 0 0.32 0.04 0 0.325 0.04 0 0.33 0.04 0 0.335 0.04 0 0.34 0.04 0 0.345 0.04 0 0.35 0.04 0 0.355 0.04 0 0.36 0.04 0 0.365 0.04 0 0.37 0.04 0 0.375 0.04 0 0.38 0.04 0 0.385 0.04 0 0.39 0.04 0 0.395 0.04 0 0.4 0.04 0 0.405 0.04 0 0.41 0.04 0 0.415 0.04 0 0.42 0.04 0 0.425 0.04 0 0.43 0.04 0 0.435 0.04 0 0.44 0.04 0 0.445 0.04 0 0.45 0.04 0 0.455 0.04 0 0.46 0.04 0 0.465 0.04 0 0.47 0.04 0 0.475 0.04 0 0.48 0.04 0 0.485 0.04 0 0.49 0.04 0 0.495 0.04 0 0.5 0.04 0 0.505 0.04 0 0.51 0.04 0 0.515 0.04 0 0.52 0.04 0 0.525 0.04 0 0.53 0.04 0 0.535 0.04 0 0.54 0.04 0 0.545 0.04 0 0.55 0.04 0 0.555 0.04 0 0.56 0.04 0 0.565 0.04 0 0.57 0.04 0 0.575 0.04 0 0.58 0.04 0 0.585 0.04 0 0.59 0.04 0 0.595 0.04 0 0.6 0.04 0 0.605 0.04 0 0.61 0.04 0 0.615 0.04 0 0.62 0.04 0 0.625 0.04 0 0.63 0.04 0 0.635 0.04 0 0.64 0.04 0 0.645 0.04 0 0.65 0.04 0 0.655 0.04 0 0.66 0.04 0 0.665 0.04 0 0.67 0.04 0 0.675 0.04 0 0.68 0.04 0 0.685 0.04 0 0.69 0.04 0 0.695 0.04 0 0.7 0.04 0 0.705 0.04 0 0.71 0.04 0 0.715 0.04 0 0.72 0.04 0 0.725 0.04 0 0.73 0.04 0 0.735 0.04 0 0.74 0.04 0 0.745 0.04 0 0.75 0.04 0 0.755 0.04 0 0.76 0.04 0 0.765 0.04 0 0.77 0.04 0 0.775 0.04 0 0.78 0.04 0 0.785 0.04 0 0.79 0.04 0 0.795 0.04 0 0.8 0.04 0 0.805 0.04 0 0.81 0.04 0 0.815 0.04 0 0.82 0.04 0 0.825 0.04 0 0.83 0.04 0 0.835 0.04 0 0.84 0.04 0 0.845 0.04 0 0.85 0.04 0 0.855 0.04 0 0.86 0.04 0 0.865 0.04 0 0.87 0.04 0 0.875 0.04 0 0.88 0.04 0 0.885 0.04 0 0.89 0.04 0 0.895 0.04 0 0.9 0.04 0 0.905 0.04 0 0.91 0.04 0 0.915 0.04 0 0.92 0.04 0 0.925 0.04 0 0.93 0.04 0 0.935 0.04 0 0.94 0.04 0 0.945 0.04 0 0.95 0.04 0 0.955 0.04 0 0.96 0.04 0 0.965 0.04 0 0.97 0.04 0 0.975 0.04 0 0.98 0.04 0 0.985 0.04 0 0.99 0.04 0 0.995 0.04 0 1 0.04 0 0 0.06 0 0.005 0.06 0 0.01 0.06 0 0.015 0.06 0 0.02 0.06 0 0.025 0.06 0 0.03 0.06 0 0.035 0.06 0 0.04 0.06 0 0.045 0.06 0 0.05 0.06 0 0.055 0.06 0 0.06 0.06 0 0.065 0.06 0 0.07 0.06 0 0.075 0.06 0 0.08 0.06 0 0.085 0.06 0 0.09 0.06 0 0.095 0.06 0 0.1 0.06 0 0.105 0.06 0 0.11 0.06 0 0.115 0.06 0 0.12 0.06 0 0.125 0.06 0 0.13 0.06 0 0.135 0.06 0 0.14 0.06 0 0.145 0.06 0 0.15 0.06 0 0.155 0.06 0 0.16 0.06 0 0.165 0.06 0 0.17 0.06 0 0.175 0.06 0 0.18 0.06 0 0.185 0.06 0 0.19 0.06 0 0.195 0.06 0 0.2 0.06 0 0.205 0.06 0 0.21 0.06 0 0.215 0.06 0 0.22 0.06 0 0.225 0.06 0 0.23 0.06 0 0.235 0.06 0 0.24 0.06 0 0.245 0.06 0 0.25 0.06 0 0.255 0.06 0 0.26 0.06 0 0.265 0.06 0 0.27 0.06 0 0.275 0.06 0 0.28 0.06 0 0.285 0.06 0 0.29 0.06 0 0.295 0.06 0 0.3 0.06 0 0.305 0.06 0 0.31 0.06 0 0.315 0.06 0 0.32 0.06 0 0.325 0.06 0 0.33 0.06 0 0.335 0.06 0 0.34 0.06 0 0.345 0.06 0 0.35 0.06 0 0.355 0.06 0 0.36 0.06 0 0.365 0.06 0 0.37 0.06 0 0.375 0.06 0 0.38 0.06 0 0.385 0.06 0 0.39 0.06 0 0.395 0.06 0 0.4 0.06 0 0.405 0.06 0 0.41 0.06 0 0.415 0.06 0 0.42 0.06 0 0.425 0.06 0 0.43 0.06 0 0.435 0.06 0 0.44 0.06 0 0.445 0.06 0 0.45 0.06 0 0.455 0.06 0 0.46 0.06 0 0.465 0.06 0 0.47 0.06 0 0.475 0.06 0 0.48 0.06 0 0.485 0.06 0 0.49 0.06 0 0.495 0.06 0 0.5 0.06 0 0.505 0.06 0 0.51 0.06 0 0.515 0.06 0 0.52 0.06 0 0.525 0.06 0 0.53 0.06 0 0.535 0.06 0 0.54 0.06 0 0.545 0.06 0 0.55 0.06 0 0.555 0.06 0 0.56 0.06 0 0.565 0.06 0 0.57 0.06 0 0.575 0.06 0 0.58 0.06 0 0.585 0.06 0 0.59 0.06 0 0.595 0.06 0 0.6 0.06 0 0.605 0.06 0 0.61 0.06 0 0.615 0.06 0 0.62 0.06 0 0.625 0.06 0 0.63 0.06 0 0.635 0.06 0 0.64 0.06 0 0.645 0.06 0 0.65 0.06 0 0.655 0.06 0 0.66 0.06 0 0.665 0.06 0 0.67 0.06 0 0.675 0.06 0 0.68 0.06 0 0.685 0.06 0 0.69 0.06 0 0.695 0.06 0 0.7 0.06 0 0.705 0.06 0 0.71 0.06 0 0.715 0.06 0 0.72 0.06 0 0.725 0.06 0 0.73 0.06 0 0.735 0.06 0 0.74 0.06 0 0.745 0.06 0 0.75 0.06 0 0.755 0.06 0 0.76 0.06 0 0.765 0.06 0 0.77 0.06 0 0.775 0.06 0 0.78 0.06 0 0.785 0.06 0 0.79 0.06 0 0.795 0.06 0 0.8 0.06 0 0.805 0.06 0 0.81 0.06 0 0.815 0.06 0 0.82 0.06 0 0.825 0.06 0 0.83 0.06 0 0.835 0.06 0 0.84 0.06 0 0.845 0.06 0 0.85 0.06 0 0.855 0.06 0 0.86 0.06 0 0.865 0.06 0 0.87 0.06 0 0.875 0.06 0 0.88 0.06 0 0.885 0.06 0 0.89 0.06 0 0.895 0.06 0 0.9 0.06 0 0.905 0.06 0 0.91 0.06 0 0.915 0.06 0 0.92 0.06 0 0.925 0.06 0 0.93 0.06 0 0.935 0.06 0 0.94 0.06 0 0.945 0.06 0 0.95 0.06 0 0.955 0.06 0 0.96 0.06 0 0.965 0.06 0 0.97 0.06 0 0.975 0.06 0 0.98 0.06 0 0.985 0.06 0 0.99 0.06 0 0.995 0.06 0 1 0.06 0 0 0.08 0 0.005 0.08 0 0.01 0.08 0 0.015 0.08 0 0.02 0.08 0 0.025 0.08 0 0.03 0.08 0 0.035 0.08 0 0.04 0.08 0 0.045 0.08 0 0.05 0.08 0 0.055 0.08 0 0.06 0.08 0 0.065 0.08 0 0.07 0.08 0 0.075 0.08 0 0.08 0.08 0 0.085 0.08 0 0.09 0.08 0 0.095 0.08 0 0.1 0.08 0 0.105 0.08 0 0.11 0.08 0 0.115 0.08 0 0.12 0.08 0 0.125 0.08 0 0.13 0.08 0 0.135 0.08 0 0.14 0.08 0 0.145 0.08 0 0.15 0.08 0 0.155 0.08 0 0.16 0.08 0 0.165 0.08 0
[...]
			<PointData Scalars="VitesseX">
				<DataArray Name="VitesseX" type="Float32" format="ascii">
 0 -2.17004e-15 -1.07918e-14 -1.17081e-14 1.15242e-14 -2.8924e-14 4.74919e-14 -5.38985e-14 3.36722e-14 -3.42032e-14 1.57259e-14 1.39198e-14 6.0299e-14 6.83016e-14 -1.55136e-13 -6.66942e-15 -3.2061e-14 -7.40463e-14 3.04023e-14 -1.86503e-13 -1.7939e-14 7.7814e-15 -1.64055e-13 -5.16717e-14 -2.20118e-13 -3.05532e-14 -1.01071e-13 -1.98341e-13 -1.51624e-13 -2.86795e-13 1.49408e-13 -3.92649e-13 -9.1036e-14 -2.35495e-13 -9.9001e-14 -1.78803e-13 1.58025e-13 9.48739e-14 1.37927e-12 7.78868e-12 4.57689e-11 2.52265e-10 1.31986e-09 6.55222e-09 3.08252e-08 1.37111e-07 5.75094e-07 2.26784e-06 8.37955e-06 2.88977e-05 9.2591e-05 0.000274199 0.000746123 0.00185411 0.00418458 0.00854689 0.0157869 0.0264655 0.0405976 0.0576615 0.076867 0.0974649 0.11891 0.140864 0.163127 0.185602 0.208231 0.230967 0.253775 0.276626 0.299495 0.322358 0.345209 0.368036 0.390834 0.413594 0.436311 0.458977 0.481585 0.504128 0.526599 0.548988 0.571287 0.593486 0.615573 0.637535 0.659361 0.681034 0.702539 0.723861 0.74498 0.765882 0.786549 0.80697 0.827138 0.847055 0.866734 0.886197 0.905414 0.925414 0.939411 0.93951 0.939158 0.938417 0.937491 0.936441 0.935304 0.934111 0.932937 0.931836 0.930852 0.930009 0.929332 0.928803 0.928366 0.928027 0.927788 0.927638 0.927496 0.927386 0.927296 0.927231 0.927193 0.927173 0.927166 0.927147 0.927125 0.927106 0.92704 0.927293 0.927069 0.927322 0.913489 0.934368 0.923339 0.928604 0.928575 0.928821 0.929041 0.929041 0.928997 0.928908 0.928791 0.928701 0.928677 0.928752 0.92885 0.928884 0.928901 0.928895 0.928889 0.928926 0.928977 0.929129 0.929129 0.929189 0.929164 0.929147 0.928917 0.926896 0.919413 0.8995 0.856497 0.783485 0.67922 0.549623 0.407479 0.270861 0.157997 0.0800359 0.0356956 0.0146171 0.00572389 0.00219532 0.000834413 0.000315829 0.000119262 4.49566e-05 1.6919e-05 6.3563e-06 2.38348e-06 8.91865e-07 3.32937e-07 1.2396e-07 4.60191e-08 1.70294e-08 6.27962e-09 2.30612e-09 8.43419e-10 3.07458e-10 1.10577e-10 4.00698e-11 1.46246e-11 5.32716e-12 1.45166e-12 1.49675e-12 1.83986e-13 -4.23789e-13 5.39051e-13 -2.22279e-13 0 0 -9.34794e-15 -5.26074e-15 9.89261e-15 -3.03647e-14 9.22867e-15 -3.09283e-14 1.54672e-14 -2.79176e-14 1.3997e-14 2.05239e-14 7.59557e-14 4.89288e-15 -1.37999e-13 6.72513e-14 1.76609e-14 4.59167e-15 -6.99343e-14 -1.15628e-13 3.20168e-14 -1.90781e-13 -1.17499e-13 -2.62469e-14 -2.13615e-13 9.29227e-14 -2.54557e-13 -8.75384e-14 -1.22765e-13 -1.90529e-13 5.31707e-14 -2.33672e-13 -3.51601e-14 -3.06281e-13 -6.98504e-14 -1.37429e-13 -6.58573e-14 -1.41102e-13 1.55151e-13 1.28159e-12 7.93505e-12 4.56852e-11 2.5232e-10 1.31981e-09 6.5522e-09 3.08253e-08 1.37111e-07 5.75094e-07 2.26784e-06 8.37955e-06 2.88977e-05 9.2591e-05 0.000274199 0.000746123 0.00185411 0.00418458 0.00854689 0.0157869 0.0264655 0.0405976 0.0576615 0.076867 0.0974649 0.11891 0.140864 0.163127 0.185602 0.208231 0.230967 0.253775 0.276626 0.299495 0.322358 0.345209 0.368036 0.390834 0.413594 0.436311 0.458977 0.481585 0.504128 0.526599 0.548988 0.571287 0.593486 0.615573 0.637535 0.659361 0.681034 0.702539 0.723861 0.74498 0.765882 0.786549 0.80697 0.827138 0.847055 0.866734 0.886197 0.905415 0.925412 0.939411 0.939511 0.939158 0.938417 0.93749 0.936441 0.935304 0.934111 0.932937 0.931837 0.930852 0.930009 0.929332 0.928803 0.928366 0.928027 0.927788 0.927638 0.927496 0.927386 0.927296 0.927231 0.927193 0.927173 0.927166 0.927147 0.927125 0.927106 0.927041 0.927293 0.927069 0.927322 0.913489 0.934368 0.923339 0.928603 0.928575 0.928821 0.929042 0.929041 0.928997 0.928908 0.928791 0.928701 0.928677 0.928752 0.92885 0.928884 0.928901 0.928895 0.928889 0.928926 0.928977 0.929129 0.929129 0.929189 0.929164 0.929147 0.928917 0.926896 0.919413 0.8995 0.856497 0.783485 0.67922 0.549623 0.407479 0.270861 0.157997 0.0800359 0.0356956 0.0146171 0.00572389 0.00219532 0.000834413 0.000315829 0.000119262 4.49566e-05 1.6919e-05 6.3563e-06 2.38348e-06 8.91865e-07 3.32937e-07 1.2396e-07 4.60192e-08 1.70292e-08 6.2793e-09 2.30663e-09 8.43578e-10 3.069e-10 1.1144e-10 4.00409e-11 1.42345e-11 5.19441e-12 2.23295e-12 1.40789e-13 7.41319e-13 2.83316e-13 -3.0907e-13 2.54987e-13 0 0 -3.62223e-15 -3.92109e-15 -1.85274e-14 -3.70902e-14 -5.47725e-14 1.82924e-14 -2.41428e-14 3.6407e-14 5.03246e-14 -2.35308e-14 -1.62999e-14 3.73507e-14 3.04487e-14 4.89647e-15 3.59821e-14 -7.73517e-14 2.94272e-14 5.21845e-14 -1.36599e-13 -6.10501e-14 -9.52823e-14 -2.10855e-13 -2.81139e-14 -2.64394e-13 -7.67894e-14 -9.72342e-14 -1.68198e-13 -1.05644e-13 -9.63258e-15 -1.02273e-14 -7.53259e-14 -4.64724e-14 -1.62665e-13 -1.93079e-13 -2.45578e-13 2.23831e-13 6.75318e-15 1.11752e-12 7.8332e-12 4.57707e-11 2.52505e-10 1.31992e-09 6.55204e-09 3.08253e-08 1.37112e-07 5.75094e-07 2.26784e-06 8.37955e-06 2.88977e-05 9.2591e-05 0.000274199 0.000746123 0.00185411 0.00418458 0.00854689 0.0157869 0.0264655 0.0405976 0.0576615 0.076867 0.0974649 0.11891 0.140864 0.163127 0.185602 0.208231 0.230967 0.253775 0.276626 0.299495 0.322358 0.345209 0.368036 0.390834 0.413594 0.436311 0.458977 0.481585 0.504128 0.526599 0.548988 0.571287 0.593486 0.615573 0.637535 0.659361 0.681034 0.702539 0.723861 0.74498 0.765882 0.786549 0.80697 0.827138 0.847055 0.866734 0.886197 0.905415 0.925412 0.939411 0.939511 0.939158 0.938417 0.93749 0.93644 0.935303 0.934111 0.932937 0.931837 0.930852 0.930009 0.929333 0.928803 0.928366 0.928027 0.927788 0.927638 0.927496 0.927386 0.927296 0.927231 0.927193 0.927173 0.927166 0.927147 0.927125 0.927106 0.92704 0.927293 0.927069 0.927322 0.913489 0.934368 0.923339 0.928604 0.928575 0.928821 0.929041 0.929041 0.928997 0.928908 0.928791 0.928701 0.928677 0.928752 0.92885 0.928884 0.928901 0.928895 0.928889 0.928926 0.928977 0.929129 0.929129 0.929189 0.929164 0.929147 0.928917 0.926896 0.919413 0.8995 0.856497 0.783485 0.67922 0.549623 0.407479 0.270861 0.157997 0.0800359 0.0356956 0.0146171 0.00572389 0.00219532 0.000834413 0.000315829 0.000119262 4.49566e-05 1.6919e-05 6.3563e-06 2.38348e-06 8.91866e-07 3.32937e-07 1.2396e-07 4.60191e-08 1.70295e-08 6.27971e-09 2.30659e-09 8.43711e-10 3.07156e-10 1.11206e-10 3.97727e-11 1.42522e-11 5.38397e-12 1.90634e-12 8.05055e-13 1.98372e-13 -6.1834e-13 3.9585e-13 2.45685e-13 0 0 -2.7267e-16 -1.91039e-14 -1.27698e-14 -1.05705e-14 -6.9151e-14 3.6755e-14 -4.68249e-14 -4.2213e-15 -1.7202e-14 -1.23312e-15 4.5573e-14 1.04134e-13 2.90692e-14 -6.50906e-14 -2.86131e-14 2.99165e-14 -2.47351e-14 1.13729e-14 -7.5472e-14 -1.38488e-14 2.83892e-14 -8.47921e-14 -2.78581e-13 -1.63166e-13 -9.3169e-14 -1.67711e-13 -9.01686e-14 -7.41912e-14 -4.73186e-14 5.40576e-14 -1.42621e-13 -1.84e-13 8.74893e-15 -1.75578e-13 -7.28683e-14 5.4454e-14 4.21488e-14 1.12326e-12 7.80961e-12 4.59267e-11 2.52427e-10 1.32006e-09 6.55221e-09 3.08253e-08 1.37111e-07 5.75094e-07 2.26784e-06 8.37955e-06 2.88977e-05 9.2591e-05 0.000274199 0.000746123 0.00185411 0.00418458 0.00854689 0.0157869 0.0264655 0.0405976 0.0576615 0.076867 0.0974649 0.11891 0.140864 0.163127 0.185602 0.208231 0.230967 0.253775 0.276626 0.299495 0.322358 0.345209 0.368036 0.390834 0.413594 0.436311 0.458977 0.481585 0.504128 0.526599 0.548988 0.571287 0.593486 0.615573 0.637535 0.659361 0.681034 0.702539 0.723861 0.74498 0.765882 0.786549 0.80697 0.827138 0.847055 0.866734 0.886197 0.905414 0.925413 0.939411 0.93951 0.939158 0.938417 0.937491 0.936441 0.935304 0.934111 0.932937 0.931836 0.930852 0.930009 0.929332 0.928803 0.928366 0.928027 0.927788 0.927638 0.927496 0.927386 0.927296 0.927231 0.927193 0.927173 0.927166 0.927147 0.927125 0.927106 0.92704 0.927293 0.927069 0.927322 0.913489 0.934368 0.923339 0.928603 0.928575 0.928821 0.929041 0.929041 0.928997 0.928908 0.928791 0.928701 0.928677 0.928752 0.92885 0.928884 0.928901 0.928895 0.928889 0.928926 0.928977 0.929129 0.929129 0.929189 0.929164 0.929147 0.928917 0.926896 0.919413 0.8995 0.856497 0.783485 0.67922 0.549623 0.407479 0.270861 0.157997 0.0800359 0.0356956 0.0146171 0.00572389 0.00219532 0.000834413 0.000315829 0.000119262 4.49566e-05 1.6919e-05 6.3563e-06 2.38348e-06 8.91866e-07 3.32937e-07 1.23961e-07 4.6019e-08 1.70296e-08 6.2794e-09 2.30659e-09 8.4384e-10 3.07226e-10 1.10918e-10 3.99842e-11 1.4453e-11 4.86362e-12 1.9451e-12 4.72966e-13 1.53253e-13 -4.5398e-13 2.30966e-13 -2.3211e-13 0 0 -1.23534e-14 -1.08084e-14 1.44922e-14 -2.89148e-14 -1.17907e-14 -3.77478e-14 1.17697e-14 -4.18677e-14 -3.74558e-15 1.27126e-14 5.03176e-14 1.89517e-14 -1.05544e-13 3.6276e-14 -2.86898e-14 1.13529e-13 -5.71301e-14 -5.66576e-14 9.70922e-14 -1.43041e-13 -7.7381e-14 4.86593e-14 -2.83572e-13 1.7144e-13 -2.30782e-13 -7.34714e-14 -4.90914e-14 -2.81269e-13 -5.39082e-14 -2.07601e-13 1.93596e-14 -3.03439e-13 1.95126e-13 -3.75683e-14 1.62133e-13 -1.85232e-13 2.34496e-13 9.15601e-13 7.8329e-12 4.58652e-11 2.52437e-10 1.32003e-09 6.55234e-09 3.08253e-08 1.37111e-07 5.75094e-07 2.26784e-06 8.37955e-06 2.88977e-05 9.2591e-05 0.000274199 0.000746123 0.00185411 0.00418458 0.00854689 0.0157869 0.0264655 0.0405976 0.0576615 0.076867 0.0974649 0.11891 0.140864 0.163127 0.185602 0.208231 0.230967 0.253775 0.276626 0.299495 0.322358 0.345209 0.368036 0.390834 0.413594 0.436311 0.458977 0.481585 0.504128 0.526599 0.548988 0.571287 0.593486 0.615573 0.637535 0.659361 0.681034 0.702539 0.723861 0.74498 0.765882 0.786549 0.80697 0.827138 0.847055 0.866734 0.886197 0.905414 0.925413 0.939411 0.939511 0.939158 0.938417 0.937491 0.936441 0.935304 0.934111 0.932937 0.931836 0.930852 0.930009 0.929332 0.928803 0.928366 0.928027 0.927788 0.927638 0.927496 0.927386 0.927296 0.927231 0.927193 0.927173 0.927166 0.927147 0.927125 0.927106 0.927041 0.927293 0.927069 0.927322 0.913489 0.934368 0.923339 0.928603 0.928575 0.928821 0.929041 0.929041 0.928997 0.928908 0.928791 0.928701 0.928677 0.928752 0.92885 0.928884 0.928901 0.928895 0.928889 0.928926 0.928977 0.929129 0.929129 0.929189 0.929164 0.929147 0.928917 0.926896 0.919413 0.8995 0.856497 0.783485 0.67922 0.549623 0.407479 0.270861 0.157997 0.0800359 0.0356956 0.0146171 0.00572389 0.00219532 0.000834413 0.000315829 0.000119262 4.49566e-05 1.6919e-05 6.3563e-06 2.38348e-06 8.91865e-07 3.32937e-07 1.2396e-07 4.60194e-08 1.70294e-08 6.27904e-09 2.30675e-09 8.43705e-10 3.06719e-10 1.11224e-10 4.00802e-11 1.40456e-11 4.73323e-12 1.6531e-12 -2.11607e-13 5.78756e-13 5.11378e-13 -4.15681e-13 -1.84828e-13 0 0 -1.48802e-14 8.47845e-15 -1.4024e-14 -3.86156e-14 -4.22058e-14 -3.07219e-15 -1.59292e-14 8.70286e-14 6.53649e-14 -4.44922e-14 -1.61102e-13 -4.51507e-14 1.35971e-13 -7.71124e-14 2.98196e-14 -2.87221e-14 5.98869e-14 2.29966e-13 -1.78606e-13 -1.68615e-14 -1.59326e-13 -2.66369e-13 3.09348e-13 -2.65539e-13 4.97567e-14 6.80156e-14 -2.07053e-13 -3.9601e-13 -4.2558e-13 7.29817e-14 -1.4902e-13 1.89703e-13 -4.83704e-14 6.57196e-14 -6.82419e-14 4.0852e-13 1.82774e-13 6.35817e-13 7.63156e-12 4.58169e-11 2.52656e-10 1.32001e-09 6.55218e-09 3.0825e-08 1.37112e-07 5.75094e-07 2.26784e-06 8.37955e-06 2.88977e-05 9.2591e-05 0.000274199 0.000746123 0.00185411 0.00418458 0.00854689 0.0157869 0.0264655 0.0405976 0.0576615 0.076867 0.0974649 0.11891 0.140864 0.163127 0.185602 0.208231 0.230967 0.253775 0.276626 0.299495 0.322358 0.345209 0.368036 0.390834 0.413594 0.436311 0.458977 0.481585 0.504128 0.526599 0.548988 0.571287 0.593486 0.615573 0.637535 0.659361 0.681034 0.702539 0.723861 0.74498 0.765882 0.786549 0.80697 0.827138 0.847055 0.866734 0.886197 0.905415 0.925411 0.939411 0.939511 0.939158 0.938416 0.93749 0.93644 0.935303 0.934111 0.932937 0.931837 0.930852 0.930009 0.929333 0.928803 0.928366 0.928027 0.927788 0.927638 0.927496 0.927386 0.927295 0.927231 0.927193 0.927173 0.927166 0.927147 0.927125 0.927106 0.92704 0.927293 0.927069 0.927322 0.913489 0.934368 0.923339 0.928604 0.928575 0.928821 0.929041 0.929041 0.928997 0.928908 0.928791 0.928701 0.928677 0.928752 0.92885 0.928884 0.928901 0.928895 0.928889 0.928926 0.928977 0.929129 0.929129 0.929189 0.929164 0.929147 0.928917 0.926896 0.919413 0.8995 0.856497 0.783485 0.67922 0.549623 0.407479 0.270861 0.157997 0.0800359 0.0356956 0.0146171 0.00572389 0.00219532 0.000834413 0.000315829 0.000119262 4.49566e-05 1.6919e-05 6.3563e-06 2.38348e-06 8.91866e-07 3.32937e-07 1.2396e-07 4.60197e-08 1.70294e-08 6.27972e-09 2.30636e-09 8.43416e-10 3.06957e-10 1.10719e-10 3.97255e-11 1.38451e-11 5.44551e-12 2.14432e-13 1.45614e-12 -5.09001e-14 -2.96385e-13 6.55598e-13 -1.46318e-13 0
				</DataArray>
				<DataArray Name="VitesseY" type="Float32" format="ascii">