<?xml version="1.0"?>
<VTKFile type="PolyData">
	<PolyData>
		<Piece NumberOfPoints="1206" NumberOfPolys="1000">
			<Points>
				<DataArray type="Float32" NumberOfComponents="3" format="ascii">
 0 0 0 0.005 0 0 0.01 0 0 0.015 0 0 0.02 0 0 0.025 0 0 0.03 0 0 0.035 0 0 0.04 0 0 0.045 0 0 0.05 0 0 0.055 0 0 0.06 0 0 0.065 0 0 0.07 0 0 0.075 0 0 0.08 0 0 0.085 0 0 0.09 0 0 0.095 0 0 0.1 0 0 0.105 0 0 0.11 0 0 0.115 0 0 0.12 0 0 0.125 0 0 0.13 0 0 0.135 0 0 0.14 0 0 0.145 0 0 0.15 0 0 0.155 0 0 0.16 0 0 0.165 0 0 0.17 0 0 0.175 0 0 0.18 0 0 0.185 0 0 0.19 0 0 0.195 0 0 0.2 0 0 0.205 0 0 0.21 0 0 0.215 0 0 0.22 0 0 0.225 0 0 0.23 0 0 0.235 0 0 0.24 0 0 0.245 0 0 0.25 0 0 0.255 0 0 0.26 0 0 0.265 0 0 0.27 0 0 0.275 0 0 0.28 0 0 0.285 0 0 0.29 0 0 0.295 0 0 0.3 0 0 0.305 0 0 0.31 0 0 0.315 0 0 0.32 0 0 0.325 0 0 0.33 0 0 0.335 0 0 0.34 0 0 0.345 0 0 0.35 0 0 0.355 0 0 0.36 0 0 0.365 0 0 0.37 0 0 0.375 0 0 0.38 0 0 0.385 0 0 0.39 0 0 0.395 0 0 0.4 0 0 0.405 0 0 0.41 0 0 0.415 0 0 0.42 0 0 0.425 0 0 0.43 0 0 0.435 0 0 0.44 0 0 0.445 0 0 0.45 0 0 0.455 0 0 0.46 0 0 0.465 0 0 0.47 0 0 0.475 0 0 0.48 0 0 0.485 0 0 0.49 0 0 0.495 0 0 0.5 0 0 0.505 0 0 0.51 0 0 0.515 0 0 0.52 0 0 0.525 0 0 0.53 0 0 0.535 0 0 0.54 0 0 0.545 0 0 0.55 0 0 0.555 0 0 0.56 0 0 0.565 0 0 0.57 0 0 0.575 0 0 0.58 0 0 0.585 0 0 0.59 0 0 0.595 0 0 0.6 0 0 0.605 0 0 0.61 0 0 0.615 0 0 0.62 0 0 0.625 0 0 0.63 0 0 0.635 0 0 0.64 0 0 0.645 0 0 0.65 0 0 0.655 0 0 0.66 0 0 0.665 0 0 0.67 0 0 0.675 0 0 0.68 0 0 0.685 0 0 0.69 0 0 0.695 0 0 0.7 0 0 0.705 0 0 0.71 0 0 0.715 0 0 0.72 0 0 0.725 0 0 0.73 0 0 0.735 0 0 0.74 0 0 0.745 0 0 0.75 0 0 0.755 0 0 0.76 0 0 0.765 0 0 0.77 0 0 0.775 0 0 0.78 0 0 0.785 0 0 0.79 0 0 0.795 0 0 0.8 0 0 0.805 0 0 0.81 0 0 0.815 0 0 0.82 0 0 0.825 0 0 0.83 0 0 0.835 0 0 0.84 0 0 0.845 0 0 0.85 0 0 0.855 0 0 0.86 0 0 0.865 0 0 0.87 0 0 0.875 0 0 0.88 0 0 0.885 0 0 0.89 0 0 0.895 0 0 0.9 0 0 0.905 0 0 0.91 0 0 0.915 0 0 0.92 0 0 0.925 0 0 0.93 0 0 0.935 0 0 0.94 0 0 0.945 0 0 0.95 0 0 0.955 0 0 0.96 0 0 0.965 0 0 0.97 0 0 0.975 0 0 0.98 0 0 0.985 0 0 0.99 0 0 0.995 0 0 1 0 0 0 0.02 0 0.005 0.02 0 0.01 0.02 0 0.015 0.02 0 0.02 0.02 0 0.025 0.02 0 0.03 0.02 0 0.035 0.02 0 0.04 0.02 0 0.045 0.02 0 0.05 0.02 0 0.055 0.02 0 0.06 0.02 0 0.065 0.02 0 0.07 0.02 0 0.075 0.02 0 0.08 0.02 0 0.085 0.02 0 0.09 0.02 0 0.095 0.02 0 0.1 0.02 0 0.105 0.02 0 0.11 0.02 0 0.115 0.02 0 0.12 0.02 0 0.125 0.02 0 0.13 0.02 0 0.135 0.02 0 0.14 0.02 0 0.145 0.02 0 0.15 0.02 0 0.155 0.02 0 0.16 0.02 0 0.165 0.02 0 0.17 0.02 0 0.175 0.02 0 0.18 0.02 0 0.185 0.02 0 0.19 0.02 0 0.195 0.02 0 0.2 0.02 0 0.205 0.02 0 0.21 0.02 0 0.215 0.02 0 0.22 0.02 0 0.225 0.02 0 0.23 0.02 0 0.235 0.02 0 0.24 0.02 0 0.245 0.02 0 0.25 0.02 0 0.255 0.02 0 0.26 0.02 0 0.265 0.02 0 0.27 0.02 0 0.275 0.02 0 0.28 0.02 0 0.285 0.02 0 0.29 0.02 0 0.295 0.02 0 0.3 0.02 0 0.305 0.02 0 0.31 0.02 0 0.315 0.02 0 0.32 0.02 0 0.325 0.02 0 0.33 0.02 0 0.335 0.02 0 0.34 0.02 0 0.345 0.02 0 0.35 0.02 0 0.355 0.02 0 0.36 0.02 0 0.365 0.02 0 0.37 0.02 0 0.375 0.02 0 0.38 0.02 0 0.385 0.02 0 0.39 0.02 0 0.395 0.02 0 0.4 0.02 0 0.405 0.02 0 0.41 0.02 0 0.415 0.02 0 0.42 0.02 0 0.425 0.02 0 0.43 0.02 0 0.435 0.02 0 0.44 0.02 0 0.445 0.02 0 0.45 0.02 0 0.455 0.02 0 0.46 0.02 0 0.465 0.02 0 0.47 0.02 0 0.475 0.02 0 0.48 0.02 0 0.485 0.02 0 0.49 0.02 0 0.495 0.02 0 0.5 0.02 0 0.505 0.02 0 0.51 0.02 0 0.515 0.02 0 0.52 0.02 0 0.525 0.02 0 0.53 0.02 0 0.535 0.02 0 0.54 0.02 0 0.545 0.02 0 0.55 0.02 0 0.555 0.02 0 0.56 0.02 0 0.565 0.02 0 0.57 0.02 0 0.575 0.02 0 0.58 0.02 0 0.585 0.02 0 0.59 0.02 0 0.595 0.02 0 0.6 0.02 0 0.605 0.02 0 0.61 0.02 0 0.615 0.02 0 0.62 0.02 0 0.625 0.02 0 0.63 0.02 0 0.635 0.02 0 0.64 0.02 0 0.645 0.02 0 0.65 0.02 0 0.655 0.02 0 0.66 0.02 0 0.665 0.02 0 0.67 0.02 0 0.675 0.02 0 0.68 0.02 0 0.685 0.02 0 0.69 0.02 0 0.695 0.02 0 0.7 0.02 0 0.705 0.02 0 0.71 0.02 0 0.715 0.02 0 0.72 0.02 0 0.725 0.02 0 0.73 0.02 0 0.735 0.02 0 0.74 0.02 0 0.745 0.02 0 0.75 0.02 0 0.755 0.02 0 0.76 0.02 0 0.765 0.02 0 0.77 0.02 0 0.775 0.02 0 0.78 0.02 0 0.785 0.02 0 0.79 0.02 0 0.795 0.02 0 0.8 0.02 0 0.805 0.02 0 0.81 0.02 0 0.815 0.02 0 0.82 0.02 0 0.825 0.02 0 0.83 0.02 0 0.835 0.02 0 0.84 0.02 0 0.845 0.02 0 0.85 0.02 0 0.855 0.02 0 0.86 0.02 0 0.865 0.02 0 0.87 0.02 0 0.875 0.02 0 0.88 0.02 0 0.885 0.02 0 0.89 0.02 0 0.895 0.02 0 0.9 0.02 0 0.905 0.02 0 0.91 0.02 0 0.915 0.02 0 0.92 0.02 0 0.925 0.02 0 0.93 0.02 0 0.935 0.02 0 0.94 0.02 0 0.945 0.02 0 0.95 0.02 0 0.955 0.02 0 0.96 0.02 0 0.965 0.02 0 0.97 0.02 0 0.975 0.02 0 0.98 0.02 0 0.985 0.02 0 0.99 0.02 0 0.995 0.02 0 1 0.02 0 0 0.04 0 0.005 0.04 0 0.01 0.04 0 0.015 0.04 0 0.02 0.04 0 0.025 0.04 0 0.03 0.04 0 0.035 0.04 0 0.04 0.04 0 0.045 0.04 0 0.05 0.04 0 0.055 0.04 0 0.06 0.04 0 0.065 0.04 0 0.07 0.04 0 0.075 0.04 0 0.08 0.04 0 0.085 0.04 0 0.09 0.04 0 0.095 0.04 0 0.1 0.04 0 0.105 0.04 0 0.11 0.04 0 0.115 0.04 0 0.12 0.04 0 0.125 0.04 0 0.13 0.04 0 0.135 0.04 0 0.14 0.04 0 0.145 0.04 0 0.15 0.04 0 0.155 0.04 0 0.16 0.04 0 0.165 0.04 0 0.17 0.04 0 0.175 0.04 0 0.18 0.04 0 0.185 0.04 0 0.19 0.04 0 0.195 0.04 0 0.2 0.04 0 0.205 0.04 0 0.21 0.04 0 0.215 0.04 0 0.22 0.04 0 0.225 0.04 0 0.23 0.04 0 0.235 0.04 0 0.24 0.04 0 0.245 0.04 0 0.25 0.04 0 0.255 0.04 0 0.26 0.04 0 0.265 0.04 0 0.27 0.04 0 0.275 0.04 0 0.28 0.04 0 0.285 0.04 0 0.29 0.04 0 0.295 0.04 0 0.3 0.04 0 0.305 0.04 0 0.31 0.04 0 0.315 0.04 0 0.32 0.04 0 0.325 0.04 0 0.33 0.04 0 0.335 0.04 0 0.34 0.04 0 0.345 0.04 0 0.35 0.04 0 0.355 0.04 0 0.36 0.04 0 0.365 0.04 0 0.37 0.04 0 0.375 0.04 0 0.38 0.04 0 0.385 0.04 0 0.39 0.04 0 0.395 0.04 0 0.4 0.04 0 0.405 0.04 0 0.41 0.04 0 0.415 0.04 0 0.42 0.04 0 0.425 0.04 0 0.43 0.04 0 0.435 0.04 0 0.44 0.04 0 0.445 0.04 0 0.45 0.04 0 0.455 0.04 0 0.46 0.04 0 0.465 0.04 0 0.47 0.04 0 0.475 0.04 0 0.48 0.04 0 0.485 0.04 0 0.49 0.04 0 0.495 0.04 0 0.5 0.04 0 0.505 0.04 0 0.51 0.04 0 0.515 0.04 0 0.52 0.04 0 0.525 0.04 0 0.53 0.04 0 0.535 0.04 0 0.54 0.04 0 0.545 0.04 0 0.55 0.04 0 0.555 0.04 0 0.56 0.04 0 0.565 0.04 0 0.57 0.04 0 0.575 0.04 0 0.58 0.04 0 0.585 0.04 0 0.59 0.04 0 0.595 0.04 0 0.6 0.04 0 0.605 0.04 0 0.61 0.04 0 0.615 0.04 0 0.62 0.04 0 0.625 0.04 0 0.63 0.04 0 0.635 0.04 0 0.64 0.04 0 0.645 0.04 0 0.65 0.04 0 0.655 0.04 0 0.66 0.04 0 0.665 0.04 0 0.67 0.04 0 0.675 0.04 0 0.68 0.04 0 0.685 0.04 0 0.69 0.04 0 0.695 0.04 0 0.7 0.04 0 0.705 0.04 0 0.71 0.04 0 0.715 0.04 0 0.72 0.04 0 0.725 0.04 0 0.73 0.04 0 0.735 0.04 0 0.74 0.04 0 0.745 0.04 0 0.75 0.04 0 0.755 0.04 0 0.76 0.04 0 0.765 0.04 0 0.77 0.04 0 0.775 0.04 0 0.78 0.04 0 0.785 0.04 0 0.79 0.04 0 0.795 0.04 0 0.8 0.04 0 0.805 0.04 0 0.81 0.04 0 0.815 0.04 0 0.82 0.04 0 0.825 0.04 0 0.83 0.04 0 0.835 0.04 0 0.84 0.04 0 0.845 0.04 0 0.85 0.04 0 0.855 0.04 0 0.86 0.04 0 0.865 0.04 0 0.87 0.04 0 0.875 0.04 0 0.88 0.04 0 0.885 0.04 0 0.89 0.04 0 0.895 0.04 0 0.9 0.04 0 0.905 0.04 0 0.91 0.04 0 0.915 0.04 0 0.92 0.04 0 0.925 0.04 0 0.93 0.04 0 0.935 0.04 0 0.94 0.04 0 0.945 0.04 0 0.95 0.04 0 0.955 0.04 0 0.96 0.04 0 0.965 0.04 0 0.97 0.04 0 0.975 0.04 0 0.98 0.04 0 0.985 0.04 0 0.99 0.04 0 0.995 0.04 0 1 0.04 0 0 0.06 0 0.005 0.06 0 0.01 0.06 0 0.015 0.06 0 0.02 0.06 0 0.025 0.06 0 0.03 0.06 0 0.035 0.06 0 0.04 0.06 0 0.045 0.06 0 0.05 0.06 0 0.055 0.06 0 0.06 0.06 0 0.065 0.06 0 0.07 0.06 0 0.075 0.06 0 0.08 0.06 0 0.085 0.06 0 0.09 0.06 0 0.095 0.06 0 0.1 0.06 0 0.105 0.06 0 0.11 0.06 0 0.115 0.06 0 0.12 0.06 0 0.125 0.06 0 0.13 0.06 0 0.135 0.06 0 0.14 0.06 0 0.145 0.06 0 0.15 0.06 0 0.155 0.06 0 0.16 0.06 0 0.165 0.06 0 0.17 0.06 0 0.175 0.06 0 0.18 0.06 0 0.185 0.06 0 0.19 0.06 0 0.195 0.06 0 0.2 0.06 0 0.205 0.06 0 0.21 0.06 0 0.215 0.06 0 0.22 0.06 0 0.225 0.06 0 0.23 0.06 0 0.235 0.06 0 0.24 0.06 0 0.245 0.06 0 0.25 0.06 0 0.255 0.06 0 0.26 0.06 0 0.265 0.06 0 0.27 0.06 0 0.275 0.06 0 0.28 0.06 0 0.285 0.06 0 0.29 0.06 0 0.295 0.06 0 0.3 0.06 0 0.305 0.06 0 0.31 0.06 0 0.315 0.06 0 0.32 0.06 0 0.325 0.06 0 0.33 0.06 0 0.335 0.06 0 0.34 0.06 0 0.345 0.06 0 0.35 0.06 0 0.355 0.06 0 0.36 0.06 0 0.365 0.06 0 0.37 0.06 0 0.375 0.06 0 0.38 0.06 0 0.385 0.06 0 0.39 0.06 0 0.395 0.06 0 0.4 0.06 0 0.405 0.06 0 0.41 0.06 0 0.415 0.06 0 0.42 0.06 0 0.425 0.06 0 0.43 0.06 0 0.435 0.06 0 0.44 0.06 0 0.445 0.06 0 0.45 0.06 0 0.455 0.06 0 0.46 0.06 0 0.465 0.06 0 0.47 0.06 0 0.475 0.06 0 0.48 0.06 0 0.485 0.06 0 0.49 0.06 0 0.495 0.06 0 0.5 0.06 0 0.505 0.06 0 0.51 0.06 0 0.515 0.06 0 0.52 0.06 0 0.525 0.06 0 0.53 0.06 0 0.535 0.06 0 0.54 0.06 0 0.545 0.06 0 0.55 0.06 0 0.555 0.06 0 0.56 0.06 0 0.565 0.06 0 0.57 0.06 0 0.575 0.06 0 0.58 0.06 0 0.585 0.06 0 0.59 0.06 0 0.595 0.06 0 0.6 0.06 0 0.605 0.06 0 0.61 0.06 0 0.615 0.06 0 0.62 0.06 0 0.625 0.06 0 0.63 0.06 0 0.635 0.06 0 0.64 0.06 0 0.645 0.06 0 0.65 0.06 0 0.655 0.06 0 0.66 0.06 0 0.665 0.06 0 0.67 0.06 0 0.675 0.06 0 0.68 0.06 0 0.685 0.06 0 0.69 0.06 0 0.695 0.06 0 0.7 0.06 0 0.705 0.06 0 0.71 0.06 0 0.715 0.06 0 0.72 0.06 0 0.725 0.06 0 0.73 0.06 0 0.735 0.06 0 0.74 0.06 0 0.745 0.06 0 0.75 0.06 0 0.755 0.06 0 0.76 0.06 0 0.765 0.06 0 0.77 0.06 0 0.775 0.06 0 0.78 0.06 0 0.785 0.06 0 0.79 0.06 0 0.795 0.06 0 0.8 0.06 0 0.805 0.06 0 0.81 0.06 0 0.815 0.06 0 0.82 0.06 0 0.825 0.06 0 0.83 0.06 0 0.835 0.06 0 0.84 0.06 0 0.845 0.06 0 0.85 0.06 0 0.855 0.06 0 0.86 0.06 0 0.865 0.06 0 0.87 0.06 0 0.875 0.06 0 0.88 0.06 0 0.885 0.06 0 0.89 0.06 0 0.895 0.06 0 0.9 0.06 0 0.905 0.06 0 0.91 0.06 0 0.915 0.06 0 0.92 0.06 0 0.925 0.06 0 0.93 0.06 0 0.935 0.06 0 0.94 0.06 0 0.945 0.06 0 0.95 0.06 0 0.955 0.06 0 0.96 0.06 0 0.965 0.06 0 0.97 0.06 0 0.975 0.06 0 0.98 0.06 0 0.985 0.06 0 0.99 0.06 0 0.995 0.06 0 1 0.06 0 0 0.08 0 0.005 0.08 0 0.01 0.08 0 0.015 0.08 0 0.02 0.08 0 0.025 0.08 0 0.03 0.08 0 0.035 0.08 0 0.04 0.08 0 0.045 0.08 0 0.05 0.08 0 0.055 0.08 0 0.06 0.08 0 0.065 0.08 0 0.07 0.08 0 0.075 0.08 0 0.08 0.08 0 0.085 0.08 0 0.09 0.08 0 0.095 0.08 0 0.1 0.08 0 0.105 0.08 0 0.11 0.08 0 0.115 0.08 0 0.12 0.08 0 0.125 0.08 0 0.13 0.08 0 0.135 0.08 0 0.14 0.08 0 0.145 0.08 0 0.15 0.08 0 0.155 0.08 0 0.16 0.08 0 0.165 0.08 0
[...]
			<PointData Scalars="VitesseX">
				<DataArray Name="VitesseX" type="Float32" format="ascii">
 0 1.05624e-14 1.31387e-14 6.03379e-14 -6.01821e-15 -5.26369e-14 2.11094e-14 8.24491e-15 -1.87317e-14 4.27059e-14 -3.35275e-14 -1.90495e-14 -1.6015e-13 3.53046e-14 -7.73459e-14 1.39808e-14 -5.15736e-14 -3.37819e-14 -9.41662e-14 -9.44382e-14 -9.23838e-14 -8.79261e-14 -2.42554e-13 6.39947e-14 -2.03619e-13 -7.6806e-14 -1.99169e-13 5.02805e-14 -1.74025e-13 1.05226e-13 -1.72956e-13 4.74167e-14 -6.50897e-14 -3.57043e-14 -4.24016e-13 -1.74937e-13 -6.47714e-14 -2.67537e-13 -6.36595e-14 -3.72477e-13 -2.43414e-14 -1.67972e-13 -1.52711e-13 2.98031e-13 2.13783e-13 -1.70052e-13 -6.52209e-14 -2.61986e-13 3.55334e-13 -3.58567e-14 -6.24576e-14 -2.1408e-13 1.39297e-12 1.19117e-11 8.28619e-11 5.42066e-10 3.32276e-09 1.91064e-08 1.02709e-07 5.14395e-07 2.39058e-06 1.02617e-05 4.04661e-05 0.000145664 0.000475085 0.00139235 0.00363638 0.00840927 0.0171853 0.0311343 0.0504994 0.0744764 0.101714 0.130951 0.161325 0.19232 0.223691 0.255295 0.28701 0.318745 0.350447 0.382085 0.413635 0.445069 0.476364 0.507493 0.53843 0.569144 0.599601 0.629763 0.659586 0.689025 0.718027 0.746538 0.774505 0.801879 0.828628 0.854745 0.880268 0.905336 0.930668 0.940899 0.94066 0.939895 0.938847 0.937532 0.936049 0.934552 0.933164 0.931937 0.930908 0.930098 0.929496 0.929004 0.928764 0.928512 0.928262 0.928045 0.927784 0.927655 0.927732 0.927079 0.913523 0.931776 0.926032 0.929099 0.926913 0.928778 0.929239 0.929317 0.929445 0.929566 0.929589 0.929587 0.929566 0.929518 0.929429 0.929319 0.929201 0.92911 0.928926 0.92784 0.922073 0.904863 0.865693 0.796219 0.69485 0.566723 0.424067 0.284949 0.16808 0.0859468 0.0384958 0.0157276 0.0061155 0.00232152 0.000871215 0.000324844 0.000120547 4.45366e-05 1.63783e-05 5.99285e-06 2.18069e-06 7.88715e-07 2.83388e-07 1.011e-07 3.5794e-08 1.257e-08 4.37701e-09 1.50985e-09 5.16046e-10 1.7479e-10 5.79303e-11 1.90101e-11 5.95855e-12 1.92266e-12 4.06641e-14 -2.19665e-13 -2.4598e-13 3.98443e-13 -3.14913e-13 7.40906e-14 -4.71912e-13 1.44755e-13 1.48857e-13 -5.95056e-14 3.90881e-13 -8.92652e-13 3.72959e-13 1.78533e-13 5.59862e-13 2.29571e-13 -1.66787e-13 6.75326e-13 3.97108e-13 3.41626e-13 1.57624e-13 -6.69067e-13 1.07974e-12 1.98885e-14 0 0 1.4775e-14 1.90834e-14 1.09902e-14 2.71708e-14 4.29942e-14 4.44758e-15 -1.52046e-14 1.86558e-14 -7.7124e-14 -2.32989e-14 -4.03044e-14 7.90106e-14 -1.78989e-13 -3.70906e-14 -4.02441e-14 4.32845e-15 -1.4435e-13 2.0953e-14 -6.52985e-14 -9.11605e-14 -1.00662e-13 -1.85874e-14 -2.98608e-13 5.35802e-14 -1.57387e-13 2.31371e-14 -1.94264e-13 -7.69382e-14 -8.15685e-14 6.09536e-14 -1.80469e-13 -5.62202e-14 -1.93439e-13 -6.09754e-14 -2.55197e-13 -1.84399e-13 -6.4533e-14 -1.92669e-13 2.77858e-14 -3.75679e-13 -4.60642e-14 1.87324e-13 -1.42856e-13 -9.72306e-14 9.17348e-14 -3.8052e-14 9.84889e-14 -4.25652e-13 1.82191e-14 -5.90842e-14 -9.49677e-14 1.19566e-12 1.2123e-11 8.32937e-11 5.4173e-10 3.32298e-09 1.9106e-08 1.0271e-07 5.14394e-07 2.39058e-06 1.02617e-05 4.04661e-05 0.000145664 0.000475085 0.00139235 0.00363638 0.00840927 0.0171853 0.0311343 0.0504994 0.0744764 0.101714 0.130951 0.161325 0.19232 0.223691 0.255295 0.28701 0.318745 0.350447 0.382085 0.413635 0.445069 0.476364 0.507493 0.53843 0.569144 0.599601 0.629763 0.659586 0.689025 0.718027 0.746538 0.774505 0.801879 0.828628 0.854745 0.880268 0.905336 0.930667 0.940899 0.940661 0.939895 0.938847 0.937532 0.936049 0.934552 0.933164 0.931937 0.930908 0.930098 0.929496 0.929004 0.928765 0.928512 0.928262 0.928045 0.927784 0.927655 0.927732 0.927079 0.913523 0.931776 0.926032 0.929099 0.926913 0.928778 0.929239 0.929317 0.929445 0.929566 0.929589 0.929587 0.929566 0.929518 0.929429 0.929319 0.929201 0.92911 0.928926 0.92784 0.922073 0.904863 0.865693 0.796219 0.69485 0.566723 0.424067 0.284949 0.16808 0.0859468 0.0384958 0.0157276 0.0061155 0.00232152 0.000871215 0.000324844 0.000120547 4.45366e-05 1.63783e-05 5.99285e-06 2.18069e-06 7.88715e-07 2.83388e-07 1.011e-07 3.57936e-08 1.25707e-08 4.37655e-09 1.51041e-09 5.15967e-10 1.74381e-10 5.83746e-11 1.90735e-11 5.88267e-12 1.80476e-12 3.53896e-13 -2.22041e-13 1.94647e-13 -2.71189e-13 -2.01903e-13 -3.99446e-13 2.52917e-13 -3.89961e-13 -1.98561e-13 3.212e-13 -2.38321e-13 2.40003e-13 -4.71707e-13 2.44637e-13 -1.50337e-13 5.01953e-13 4.33023e-13 -2.45979e-13 5.14404e-13 2.40864e-13 9.33645e-14 7.63367e-13 -2.07119e-13 -1.41036e-13 0 0 8.30661e-15 3.68023e-14 5.76754e-14 3.83769e-14 3.45705e-14 3.02256e-14 -1.53037e-14 -3.11817e-14 6.72509e-14 -4.5783e-14 -7.55241e-14 -7.14954e-14 6.18393e-14 -5.5126e-14 -1.00251e-13 -8.17833e-14 -9.76109e-14 5.43273e-14 -7.456e-14 -6.39525e-14 -2.44969e-14 -1.43655e-13 9.29136e-14 -2.07677e-13 -5.38181e-15 -1.99374e-13 -1.76567e-13 -1.91136e-13 -2.95518e-15 -1.65094e-14 -4.67633e-14 -1.70467e-13 -1.79266e-15 -3.62124e-13 -1.69055e-13 -5.37049e-14 4.74142e-14 -2.11676e-13 -1.2855e-13 1.66884e-14 -2.79157e-13 7.59512e-14 -4.41664e-15 1.01764e-13 -1.84666e-13 -1.54659e-13 -2.27403e-13 1.28753e-13 -3.10409e-13 -1.04333e-13 -7.71212e-14 1.44285e-12 1.22449e-11 8.33848e-11 5.41597e-10 3.32284e-09 1.91067e-08 1.02709e-07 5.14395e-07 2.39058e-06 1.02617e-05 4.04661e-05 0.000145664 0.000475085 0.00139235 0.00363638 0.00840927 0.0171853 0.0311343 0.0504994 0.0744764 0.101714 0.130951 0.161325 0.19232 0.223691 0.255295 0.28701 0.318745 0.350447 0.382085 0.413635 0.445069 0.476364 0.507493 0.53843 0.569144 0.599601 0.629763 0.659586 0.689025 0.718027 0.746538 0.774505 0.801879 0.828628 0.854745 0.880268 0.905336 0.930666 0.9409 0.940661 0.939896 0.938847 0.937532 0.936049 0.934552 0.933164 0.931937 0.930908 0.930098 0.929496 0.929004 0.928765 0.928512 0.928262 0.928045 0.927784 0.927655 0.927732 0.927079 0.913523 0.931776 0.926032 0.929099 0.926913 0.928778 0.929239 0.929317 0.929445 0.929566 0.929589 0.929587 0.929566 0.929518 0.929429 0.929319 0.929201 0.92911 0.928926 0.92784 0.922073 0.904863 0.865693 0.796219 0.69485 0.566723 0.424067 0.284949 0.16808 0.0859468 0.0384958 0.0157276 0.0061155 0.00232152 0.000871215 0.000324844 0.000120547 4.45366e-05 1.63783e-05 5.99285e-06 2.18069e-06 7.88715e-07 2.83388e-07 1.011e-07 3.57939e-08 1.25704e-08 4.37711e-09 1.51026e-09 5.16346e-10 1.74591e-10 5.83736e-11 1.9e-11 6.25914e-12 1.99205e-12 4.75692e-14 2.66249e-13 1.07557e-13 -2.6913e-13 -6.86941e-13 -5.29231e-13 2.50064e-13 -2.24489e-13 -3.59275e-13 -7.06592e-13 4.88247e-14 2.31766e-13 -2.38129e-14 -3.80101e-13 2.39484e-13 -1.83378e-13 2.69194e-13 6.40434e-13 1.30076e-13 -2.39454e-13 4.83706e-13 6.58865e-13 2.75545e-13 2.48963e-13 0 0 1.7696e-14 3.95621e-14 4.8278e-14 3.51698e-14 5.45716e-15 5.24754e-14 -3.43406e-14 4.00463e-15 -1.36176e-14 1.41892e-14 1.33894e-14 -5.21622e-14 2.91419e-14 -6.70235e-14 -1.49884e-14 -6.89367e-14 -1.10602e-13 -1.55165e-13 -4.21981e-15 -7.11972e-14 -5.08555e-14 1.3813e-14 2.66608e-14 -8.7171e-14 -5.09593e-14 -1.29833e-13 -1.87433e-13 -1.48989e-13 -1.97219e-13 -3.00918e-14 6.66468e-14 -3.05045e-13 -1.8457e-13 -1.69909e-13 4.83174e-14 -1.69218e-13 -1.66161e-13 1.23595e-14 4.27029e-14 -1.81345e-13 -2.30611e-13 -1.03981e-13 1.88422e-13 -2.07061e-14 -1.18964e-13 7.55411e-15 -4.82803e-13 3.64472e-13 2.00363e-13 -2.87005e-13 -3.31959e-13 1.56081e-12 1.22493e-11 8.30914e-11 5.41859e-10 3.32313e-09 1.91067e-08 1.02709e-07 5.14395e-07 2.39058e-06 1.02617e-05 4.04661e-05 0.000145664 0.000475085 0.00139235 0.00363638 0.00840927 0.0171853 0.0311343 0.0504994 0.0744764 0.101714 0.130951 0.161325 0.19232 0.223691 0.255295 0.28701 0.318745 0.350447 0.382085 0.413635 0.445069 0.476364 0.507493 0.53843 0.569144 0.599601 0.629763 0.659586 0.689025 0.718027 0.746538 0.774505 0.801879 0.828628 0.854745 0.880268 0.905336 0.930668 0.940899 0.94066 0.939895 0.938847 0.937532 0.936049 0.934552 0.933164 0.931937 0.930908 0.930098 0.929496 0.929004 0.928764 0.928512 0.928262 0.928045 0.927784 0.927655 0.927732 0.927079 0.913523 0.931776 0.926032 0.929099 0.926913 0.928778 0.929239 0.929317 0.929445 0.929566 0.929589 0.929587 0.929566 0.929518 0.929429 0.929319 0.929201 0.92911 0.928926 0.92784 0.922073 0.904863 0.865693 0.796219 0.69485 0.566723 0.424067 0.284949 0.16808 0.0859468 0.0384958 0.0157276 0.0061155 0.00232152 0.000871215 0.000324844 0.000120547 4.45366e-05 1.63783e-05 5.99285e-06 2.18069e-06 7.88715e-07 2.83388e-07 1.011e-07 3.57939e-08 1.25706e-08 4.37687e-09 1.51047e-09 5.16327e-10 1.75044e-10 5.83178e-11 1.93065e-11 6.32679e-12 1.61321e-12 2.31649e-13 -5.0355e-14 -2.45935e-13 3.41581e-13 -7.16984e-13 -4.4865e-13 -4.58875e-13 1.46782e-13 -3.22694e-13 -2.06399e-13 -8.57416e-13 2.25407e-13 3.14547e-13 -4.52953e-13 4.34961e-14 2.46846e-13 3.06398e-13 2.72591e-13 -2.79218e-13 3.31903e-13 5.32537e-13 -1.61699e-13 2.3588e-13 3.37617e-15 0 0 1.57367e-14 1.54984e-14 -1.39022e-14 2.2706e-14 2.15285e-14 3.35176e-15 -4.45641e-14 5.04579e-14 -6.13352e-14 -3.97898e-14 4.73307e-14 1.10903e-13 -1.51088e-13 -2.36543e-15 -3.86019e-15 2.30494e-14 -8.92089e-14 -4.28304e-14 -2.48476e-14 -1.50884e-13 -1.60297e-14 1.06195e-13 -2.88253e-13 1.50345e-13 -1.99331e-13 -4.73684e-14 -1.89675e-13 -1.0387e-13 -2.01032e-13 -6.53008e-14 -1.22423e-13 -1.19142e-13 -2.67416e-13 1.8794e-13 2.59977e-14 -1.27106e-13 -7.22531e-14 -2.52646e-14 5.71017e-14 -4.61007e-13 -1.13614e-13 5.90716e-14 -1.94113e-13 -1.73498e-13 1.76861e-13 5.58183e-14 -1.27483e-13 -3.06255e-13 3.05019e-13 -2.57219e-13 4.58877e-15 1.54821e-12 1.23109e-11 8.31609e-11 5.41932e-10 3.32332e-09 1.91062e-08 1.0271e-07 5.14394e-07 2.39058e-06 1.02617e-05 4.04661e-05 0.000145664 0.000475085 0.00139235 0.00363638 0.00840927 0.0171853 0.0311343 0.0504994 0.0744764 0.101714 0.130951 0.161325 0.19232 0.223691 0.255295 0.28701 0.318745 0.350447 0.382085 0.413635 0.445069 0.476364 0.507493 0.53843 0.569144 0.599601 0.629763 0.659586 0.689025 0.718027 0.746538 0.774505 0.801879 0.828628 0.854745 0.880268 0.905336 0.930667 0.940899 0.94066 0.939895 0.938847 0.937532 0.936049 0.934552 0.933164 0.931937 0.930908 0.930098 0.929496 0.929004 0.928764 0.928512 0.928262 0.928045 0.927784 0.927655 0.927732 0.927079 0.913523 0.931776 0.926032 0.929099 0.926913 0.928778 0.929239 0.929317 0.929445 0.929566 0.929589 0.929587 0.929566 0.929518 0.929429 0.929319 0.929201 0.92911 0.928926 0.92784 0.922073 0.904863 0.865693 0.796219 0.69485 0.566723 0.424067 0.284949 0.16808 0.0859468 0.0384958 0.0157276 0.0061155 0.00232152 0.000871215 0.000324844 0.000120547 4.45366e-05 1.63783e-05 5.99285e-06 2.18069e-06 7.88715e-07 2.83388e-07 1.011e-07 3.57937e-08 1.25708e-08 4.37676e-09 1.51046e-09 5.16248e-10 1.74594e-10 5.88763e-11 1.9529e-11 6.35427e-12 1.46098e-12 3.08194e-13 -3.89294e-13 -2.05009e-13 -2.36435e-13 -2.75923e-13 -3.16221e-13 -1.68188e-13 -4.11566e-13 -2.56052e-13 6.39369e-13 -7.92886e-13 2.37924e-13 -4.7394e-13 2.07389e-14 -1.78729e-13 4.41839e-13 3.12416e-13 -5.73885e-13 2.81504e-13 5.48218e-13 1.77484e-13 1.83503e-13 -2.35596e-13 -2.82052e-13 0 0 -6.29326e-15 4.49248e-16 2.9348e-14 -8.5335e-15 -3.73416e-14 -2.5582e-14 -1.24002e-14 -2.55001e-14 2.3602e-13 -1.86454e-13 -2.16063e-14 -1.35032e-13 1.56501e-13 1.58996e-14 -8.37774e-14 -3.98249e-14 1.02483e-13 1.97251e-13 -1.54217e-13 -1.97341e-13 1.34056e-13 -3.07926e-13 2.17209e-13 -2.511e-13 -6.95377e-14 -4.79262e-13 8.11918e-14 -3.12182e-13 2.54826e-13 -3.983e-13 -6.33129e-14 7.82212e-14 1.81896e-13 -3.10615e-13 -4.72936e-14 2.80839e-13 1.44173e-13 -1.76922e-13 -6.56351e-13 2.01069e-13 -4.00161e-13 -4.93513e-14 -1.90159e-13 3.06189e-13 -1.31203e-13 -2.01907e-13 -2.03131e-13 1.2269e-13 -4.83801e-13 -9.33828e-14 4.94707e-13 1.86215e-12 1.22788e-11 8.31833e-11 5.41947e-10 3.32288e-09 1.91068e-08 1.02709e-07 5.14395e-07 2.39058e-06 1.02617e-05 4.04661e-05 0.000145664 0.000475085 0.00139235 0.00363638 0.00840927 0.0171853 0.0311343 0.0504994 0.0744764 0.101714 0.130951 0.161325 0.19232 0.223691 0.255295 0.28701 0.318745 0.350447 0.382085 0.413635 0.445069 0.476364 0.507493 0.53843 0.569144 0.599601 0.629763 0.659586 0.689025 0.718027 0.746538 0.774505 0.801879 0.828628 0.854745 0.880268 0.905336 0.930666 0.9409 0.940661 0.939896 0.938847 0.937532 0.936049 0.934552 0.933164 0.931937 0.930908 0.930098 0.929496 0.929004 0.928765 0.928512 0.928262 0.928045 0.927784 0.927655 0.927732 0.927079 0.913523 0.931776 0.926032 0.929099 0.926913 0.928778 0.929239 0.929317 0.929445 0.929566 0.929589 0.929587 0.929566 0.929518 0.929429 0.929319 0.929201 0.92911 0.928926 0.92784 0.922073 0.904863 0.865693 0.796219 0.69485 0.566723 0.424067 0.284949 0.16808 0.0859468 0.0384958 0.0157276 0.0061155 0.00232152 0.000871215 0.000324844 0.000120547 4.45366e-05 1.63783e-05 5.99285e-06 2.18069e-06 7.88715e-07 2.83388e-07 1.011e-07 3.57943e-08 1.25698e-08 4.3779e-09 1.50952e-09 5.16646e-10 1.74309e-10 5.90453e-11 1.93082e-11 6.76644e-12 1.99277e-12 -4.18898e-13 7.90372e-14 -3.38309e-13 -7.53471e-13 -4.02867e-13 7.93791e-14 1.03756e-13 -6.40996e-13 -3.92838e-14 -4.23552e-13 1.09423e-12 -8.84095e-13 -3.08225e-13 -1.23559e-13 8.95055e-13 -7.51105e-13 -4.82407e-13 7.55198e-13 7.49897e-13 -1.8638e-13 2.28202e-13 -1.87666e-13 1.10211e-12 2.2903e-13 0
				</DataArray>
				<DataArray Name="VitesseY" type="Float32" format="ascii">