<?xml version="1.0"?>
<VTKFile type="PolyData">
	<PolyData>
		<Piece NumberOfPoints="1206" NumberOfPolys="1000">
			<Points>
				<DataArray type="Float32" NumberOfComponents="3" format="ascii">
 0 0 0 0.005 0 0 0.01 0 0 0.015 0 0 0.02 0 0 0.025 0 0 0.03 0 0 0.035 0 0 0.04 0 0 0.045 0 0 0.05 0 0 0.055 0 0 0.06 0 0 0.065 0 0 0.07 0 0 0.075 0 0 0.08 0 0 0.085 0 0 0.09 0 0 0.095 0 0 0.1 0 0 0.105 0 0 0.11 0 0 0.115 0 0 0.12 0 0 0.125 0 0 0.13 0 0 0.135 0 0 0.14 0 0 0.145 0 0 0.15 0 0 0.155 0 0 0.16 0 0 0.165 0 0 0.17 0 0 0.175 0 0 0.18 0 0 0.185 0 0 0.19 0 0 0.195 0 0 0.2 0 0 0.205 0 0 0.21 0 0 0.215 0 0 0.22 0 0 0.225 0 0 0.23 0 0 0.235 0 0 0.24 0 0 0.245 0 0 0.25 0 0 0.255 0 0 0.26 0 0 0.265 0 0 0.27 0 0 0.275 0 0 0.28 0 0 0.285 0 0 0.29 0 0 0.295 0 0 0.3 0 0 0.305 0 0 0.31 0 0 0.315 0 0 0.32 0 0 0.325 0 0 0.33 0 0 0.335 0 0 0.34 0 0 0.345 0 0 0.35 0 0 0.355 0 0 0.36 0 0 0.365 0 0 0.37 0 0 0.375 0 0 0.38 0 0 0.385 0 0 0.39 0 0 0.395 0 0 0.4 0 0 0.405 0 0 0.41 0 0 0.415 0 0 0.42 0 0 0.425 0 0 0.43 0 0 0.435 0 0 0.44 0 0 0.445 0 0 0.45 0 0 0.455 0 0 0.46 0 0 0.465 0 0 0.47 0 0 0.475 0 0 0.48 0 0 0.485 0 0 0.49 0 0 0.495 0 0 0.5 0 0 0.505 0 0 0.51 0 0 0.515 0 0 0.52 0 0 0.525 0 0 0.53 0 0 0.535 0 0 0.54 0 0 0.545 0 0 0.55 0 0 0.555 0 0 0.56 0 0 0.565 0 0 0.57 0 0 0.575 0 0 0.58 0 0 0.585 0 0 0.59 0 0 0.595 0 0 0.6 0 0 0.605 0 0 0.61 0 0 0.615 0 0 0.62 0 0 0.625 0 0 0.63 0 0 0.635 0 0 0.64 0 0 0.645 0 0 0.65 0 0 0.655 0 0 0.66 0 0 0.665 0 0 0.67 0 0 0.675 0 0 0.68 0 0 0.685 0 0 0.69 0 0 0.695 0 0 0.7 0 0 0.705 0 0 0.71 0 0 0.715 0 0 0.72 0 0 0.725 0 0 0.73 0 0 0.735 0 0 0.74 0 0 0.745 0 0 0.75 0 0 0.755 0 0 0.76 0 0 0.765 0 0 0.77 0 0 0.775 0 0 0.78 0 0 0.785 0 0 0.79 0 0 0.795 0 0 0.8 0 0 0.805 0 0 0.81 0 0 0.815 0 0 0.82 0 0 0.825 0 0 0.83 0 0 0.835 0 0 0.84 0 0 0.845 0 0 0.85 0 0 0.855 0 0 0.86 0 0 0.865 0 0 0.87 0 0 0.875 0 0 0.88 0 0 0.885 0 0 0.89 0 0 0.895 0 0 0.9 0 0 0.905 0 0 0.91 0 0 0.915 0 0 0.92 0 0 0.925 0 0 0.93 0 0 0.935 0 0 0.94 0 0 0.945 0 0 0.95 0 0 0.955 0 0 0.96 0 0 0.965 0 0 0.97 0 0 0.975 0 0 0.98 0 0 0.985 0 0 0.99 0 0 0.995 0 0 1 0 0 0 0.02 0 0.005 0.02 0 0.01 0.02 0 0.015 0.02 0 0.02 0.02 0 0.025 0.02 0 0.03 0.02 0 0.035 0.02 0 0.04 0.02 0 0.045 0.02 0 0.05 0.02 0 0.055 0.02 0 0.06 0.02 0 0.065 0.02 0 0.07 0.02 0 0.075 0.02 0 0.08 0.02 0 0.085 0.02 0 0.09 0.02 0 0.095 0.02 0 0.1 0.02 0 0.105 0.02 0 0.11 0.02 0 0.115 0.02 0 0.12 0.02 0 0.125 0.02 0 0.13 0.02 0 0.135 0.02 0 0.14 0.02 0 0.145 0.02 0 0.15 0.02 0 0.155 0.02 0 0.16 0.02 0 0.165 0.02 0 0.17 0.02 0 0.175 0.02 0 0.18 0.02 0 0.185 0.02 0 0.19 0.02 0 0.195 0.02 0 0.2 0.02 0 0.205 0.02 0 0.21 0.02 0 0.215 0.02 0 0.22 0.02 0 0.225 0.02 0 0.23 0.02 0 0.235 0.02 0 0.24 0.02 0 0.245 0.02 0 0.25 0.02 0 0.255 0.02 0 0.26 0.02 0 0.265 0.02 0 0.27 0.02 0 0.275 0.02 0 0.28 0.02 0 0.285 0.02 0 0.29 0.02 0 0.295 0.02 0 0.3 0.02 0 0.305 0.02 0 0.31 0.02 0 0.315 0.02 0 0.32 0.02 0 0.325 0.02 0 0.33 0.02 0 0.335 0.02 0 0.34 0.02 0 0.345 0.02 0 0.35 0.02 0 0.355 0.02 0 0.36 0.02 0 0.365 0.02 0 0.37 0.02 0 0.375 0.02 0 0.38 0.02 0 0.385 0.02 0 0.39 0.02 0 0.395 0.02 0 0.4 0.02 0 0.405 0.02 0 0.41 0.02 0 0.415 0.02 0 0.42 0.02 0 0.425 0.02 0 0.43 0.02 0 0.435 0.02 0 0.44 0.02 0 0.445 0.02 0 0.45 0.02 0 0.455 0.02 0 0.46 0.02 0 0.465 0.02 0 0.47 0.02 0 0.475 0.02 0 0.48 0.02 0 0.485 0.02 0 0.49 0.02 0 0.495 0.02 0 0.5 0.02 0 0.505 0.02 0 0.51 0.02 0 0.515 0.02 0 0.52 0.02 0 0.525 0.02 0 0.53 0.02 0 0.535 0.02 0 0.54 0.02 0 0.545 0.02 0 0.55 0.02 0 0.555 0.02 0 0.56 0.02 0 0.565 0.02 0 0.57 0.02 0 0.575 0.02 0 0.58 0.02 0 0.585 0.02 0 0.59 0.02 0 0.595 0.02 0 0.6 0.02 0 0.605 0.02 0 0.61 0.02 0 0.615 0.02 0 0.62 0.02 0 0.625 0.02 0 0.63 0.02 0 0.635 0.02 0 0.64 0.02 0 0.645 0.02 0 0.65 0.02 0 0.655 0.02 0 0.66 0.02 0 0.665 0.02 0 0.67 0.02 0 0.675 0.02 0 0.68 0.02 0 0.685 0.02 0 0.69 0.02 0 0.695 0.02 0 0.7 0.02 0 0.705 0.02 0 0.71 0.02 0 0.715 0.02 0 0.72 0.02 0 0.725 0.02 0 0.73 0.02 0 0.735 0.02 0 0.74 0.02 0 0.745 0.02 0 0.75 0.02 0 0.755 0.02 0 0.76 0.02 0 0.765 0.02 0 0.77 0.02 0 0.775 0.02 0 0.78 0.02 0 0.785 0.02 0 0.79 0.02 0 0.795 0.02 0 0.8 0.02 0 0.805 0.02 0 0.81 0.02 0 0.815 0.02 0 0.82 0.02 0 0.825 0.02 0 0.83 0.02 0 0.835 0.02 0 0.84 0.02 0 0.845 0.02 0 0.85 0.02 0 0.855 0.02 0 0.86 0.02 0 0.865 0.02 0 0.87 0.02 0 0.875 0.02 0 0.88 0.02 0 0.885 0.02 0 0.89 0.02 0 0.895 0.02 0 0.9 0.02 0 0.905 0.02 0 0.91 0.02 0 0.915 0.02 0 0.92 0.02 0 0.925 0.02 0 0.93 0.02 0 0.935 0.02 0 0.94 0.02 0 0.945 0.02 0 0.95 0.02 0 0.955 0.02 0 0.96 0.02 0 0.965 0.02 0 0.97 0.02 0 0.975 0.02 0 0.98 0.02 0 0.985 0.02 0 0.99 0.02 0 0.995 0.02 0 1 0.02 0 0 0.04 0 0.005 0.04 0 0.01 0.04 0 0.015 0.04 0 0.02 0.04 0 0.025 0.04 0 0.03 0.04 0 0.035 0.04 0 0.04 0.04 0 0.045 0.04 0 0.05 0.04 0 0.055 0.04 0 0.06 0.04 0 0.065 0.04 0 0.07 0.04 0 0.075 0.04 0 0.08 0.04 0 0.085 0.04 0 0.09 0.04 0 0.095 0.04 0 0.1 0.04 0 0.105 0.04 0 0.11 0.04 0 0.115 0.04 0 0.12 0.04 0 0.125 0.04 0 0.13 0.04 0 0.135 0.04 0 0.14 0.04 0 0.145 0.04 0 0.15 0.04 0 0.155 0.04 0 0.16 0.04 0 0.165 0.04 0 0.17 0.04 0 0.175 0.04 0 0.18 0.04 0 0.185 0.04 0 0.19 0.04 0 0.195 0.04 0 0.2 0.04 0 0.205 0.04 0 0.21 0.04 0 0.215 0.04 0 0.22 0.04 0 0.225 0.04 0 0.23 0.04 0 0.235 0.04 0 0.24 0.04 0 0.245 0.04 0 0.25 0.04 0 0.255 0.04 0 0.26 0.04 0 0.265 0.04 0 0.27 0.04 0 0.275 0.04 0 0.28 0.04 0 0.285 0.04 0 0.29 0.04 0 0.295 0.04 0 0.3 0.04 0 0.305 0.04 0 0.31 0.04 0 0.315 0.04 0 0.32 0.04 0 0.325 0.04 0 0.33 0.04 0 0.335 0.04 0 0.34 0.04 0 0.345 0.04 0 0.35 0.04 0 0.355 0.04 0 0.36 0.04 0 0.365 0.04 0 0.37 0.04 0 0.375 0.04 0 0.38 0.04 0 0.385 0.04 0 0.39 0.04 0 0.395 0.04 0 0.4 0.04 0 0.405 0.04 0 0.41 0.04 0 0.415 0.04 0 0.42 0.04 0 0.425 0.04 0 0.43 0.04 0 0.435 0.04 0 0.44 0.04 0 0.445 0.04 0 0.45 0.04 0 0.455 0.04 0 0.46 0.04 0 0.465 0.04 0 0.47 0.04 0 0.475 0.04 0 0.48 0.04 0 0.485 0.04 0 0.49 0.04 0 0.495 0.04 0 0.5 0.04 0 0.505 0.04 0 0.51 0.04 0 0.515 0.04 0 0.52 0.04 0 0.525 0.04 0 0.53 0.04 0 0.535 0.04 0 0.54 0.04 0 0.545 0.04 0 0.55 0.04 0 0.555 0.04 0 0.56 0.04 0 0.565 0.04 0 0.57 0.04 0 0.575 0.04 0 0.58 0.04 0 0.585 0.04 0 0.59 0.04 0 0.595 0.04 0 0.6 0.04 0 0.605 0.04 0 0.61 0.04 0 0.615 0.04 0 0.62 0.04 0 0.625 0.04 0 0.63 0.04 0 0.635 0.04 0 0.64 0.04 0 0.645 0.04 0 0.65 0.04 0 0.655 0.04 0 0.66 0.04 0 0.665 0.04 0 0.67 0.04 0 0.675 0.04 0 0.68 0.04 0 0.685 0.04 0 0.69 0.04 0 0.695 0.04 0 0.7 0.04 0 0.705 0.04 0 0.71 0.04 0 0.715 0.04 0 0.72 0.04 0 0.725 0.04 0 0.73 0.04 0 0.735 0.04 0 0.74 0.04 0 0.745 0.04 0 0.75 0.04 0 0.755 0.04 0 0.76 0.04 0 0.765 0.04 0 0.77 0.04 0 0.775 0.04 0 0.78 0.04 0 0.785 0.04 0 0.79 0.04 0 0.795 0.04 0 0.8 0.04 0 0.805 0.04 0 0.81 0.04 0 0.815 0.04 0 0.82 0.04 0 0.825 0.04 0 0.83 0.04 0 0.835 0.04 0 0.84 0.04 0 0.845 0.04 0 0.85 0.04 0 0.855 0.04 0 0.86 0.04 0 0.865 0.04 0 0.87 0.04 0 0.875 0.04 0 0.88 0.04 0 0.885 0.04 0 0.89 0.04 0 0.895 0.04 0 0.9 0.04 0 0.905 0.04 0 0.91 0.04 0 0.915 0.04 0 0.92 0.04 0 0.925 0.04 0 0.93 0.04 0 0.935 0.04 0 0.94 0.04 0 0.945 0.04 0 0.95 0.04 0 0.955 0.04 0 0.96 0.04 0 0.965 0.04 0 0.97 0.04 0 0.975 0.04 0 0.98 0.04 0 0.985 0.04 0 0.99 0.04 0 0.995 0.04 0 1 0.04 0 0 0.06 0 0.005 0.06 0 0.01 0.06 0 0.015 0.06 0 0.02 0.06 0 0.025 0.06 0 0.03 0.06 0 0.035 0.06 0 0.04 0.06 0 0.045 0.06 0 0.05 0.06 0 0.055 0.06 0 0.06 0.06 0 0.065 0.06 0 0.07 0.06 0 0.075 0.06 0 0.08 0.06 0 0.085 0.06 0 0.09 0.06 0 0.095 0.06 0 0.1 0.06 0 0.105 0.06 0 0.11 0.06 0 0.115 0.06 0 0.12 0.06 0 0.125 0.06 0 0.13 0.06 0 0.135 0.06 0 0.14 0.06 0 0.145 0.06 0 0.15 0.06 0 0.155 0.06 0 0.16 0.06 0 0.165 0.06 0 0.17 0.06 0 0.175 0.06 0 0.18 0.06 0 0.185 0.06 0 0.19 0.06 0 0.195 0.06 0 0.2 0.06 0 0.205 0.06 0 0.21 0.06 0 0.215 0.06 0 0.22 0.06 0 0.225 0.06 0 0.23 0.06 0 0.235 0.06 0 0.24 0.06 0 0.245 0.06 0 0.25 0.06 0 0.255 0.06 0 0.26 0.06 0 0.265 0.06 0 0.27 0.06 0 0.275 0.06 0 0.28 0.06 0 0.285 0.06 0 0.29 0.06 0 0.295 0.06 0 0.3 0.06 0 0.305 0.06 0 0.31 0.06 0 0.315 0.06 0 0.32 0.06 0 0.325 0.06 0 0.33 0.06 0 0.335 0.06 0 0.34 0.06 0 0.345 0.06 0 0.35 0.06 0 0.355 0.06 0 0.36 0.06 0 0.365 0.06 0 0.37 0.06 0 0.375 0.06 0 0.38 0.06 0 0.385 0.06 0 0.39 0.06 0 0.395 0.06 0 0.4 0.06 0 0.405 0.06 0 0.41 0.06 0 0.415 0.06 0 0.42 0.06 0 0.425 0.06 0 0.43 0.06 0 0.435 0.06 0 0.44 0.06 0 0.445 0.06 0 0.45 0.06 0 0.455 0.06 0 0.46 0.06 0 0.465 0.06 0 0.47 0.06 0 0.475 0.06 0 0.48 0.06 0 0.485 0.06 0 0.49 0.06 0 0.495 0.06 0 0.5 0.06 0 0.505 0.06 0 0.51 0.06 0 0.515 0.06 0 0.52 0.06 0 0.525 0.06 0 0.53 0.06 0 0.535 0.06 0 0.54 0.06 0 0.545 0.06 0 0.55 0.06 0 0.555 0.06 0 0.56 0.06 0 0.565 0.06 0 0.57 0.06 0 0.575 0.06 0 0.58 0.06 0 0.585 0.06 0 0.59 0.06 0 0.595 0.06 0 0.6 0.06 0 0.605 0.06 0 0.61 0.06 0 0.615 0.06 0 0.62 0.06 0 0.625 0.06 0 0.63 0.06 0 0.635 0.06 0 0.64 0.06 0 0.645 0.06 0 0.65 0.06 0 0.655 0.06 0 0.66 0.06 0 0.665 0.06 0 0.67 0.06 0 0.675 0.06 0 0.68 0.06 0 0.685 0.06 0 0.69 0.06 0 0.695 0.06 0 0.7 0.06 0 0.705 0.06 0 0.71 0.06 0 0.715 0.06 0 0.72 0.06 0 0.725 0.06 0 0.73 0.06 0 0.735 0.06 0 0.74 0.06 0 0.745 0.06 0 0.75 0.06 0 0.755 0.06 0 0.76 0.06 0 0.765 0.06 0 0.77 0.06 0 0.775 0.06 0 0.78 0.06 0 0.785 0.06 0 0.79 0.06 0 0.795 0.06 0 0.8 0.06 0 0.805 0.06 0 0.81 0.06 0 0.815 0.06 0 0.82 0.06 0 0.825 0.06 0 0.83 0.06 0 0.835 0.06 0 0.84 0.06 0 0.845 0.06 0 0.85 0.06 0 0.855 0.06 0 0.86 0.06 0 0.865 0.06 0 0.87 0.06 0 0.875 0.06 0 0.88 0.06 0 0.885 0.06 0 0.89 0.06 0 0.895 0.06 0 0.9 0.06 0 0.905 0.06 0 0.91 0.06 0 0.915 0.06 0 0.92 0.06 0 0.925 0.06 0 0.93 0.06 0 0.935 0.06 0 0.94 0.06 0 0.945 0.06 0 0.95 0.06 0 0.955 0.06 0 0.96 0.06 0 0.965 0.06 0 0.97 0.06 0 0.975 0.06 0 0.98 0.06 0 0.985 0.06 0 0.99 0.06 0 0.995 0.06 0 1 0.06 0 0 0.08 0 0.005 0.08 0 0.01 0.08 0 0.015 0.08 0 0.02 0.08 0 0.025 0.08 0 0.03 0.08 0 0.035 0.08 0 0.04 0.08 0 0.045 0.08 0 0.05 0.08 0 0.055 0.08 0 0.06 0.08 0 0.065 0.08 0 0.07 0.08 0 0.075 0.08 0 0.08 0.08 0 0.085 0.08 0 0.09 0.08 0 0.095 0.08 0 0.1 0.08 0 0.105 0.08 0 0.11 0.08 0 0.115 0.08 0 0.12 0.08 0 0.125 0.08 0 0.13 0.08 0 0.135 0.08 0 0.14 0.08 0 0.145 0.08 0 0.15 0.08 0 0.155 0.08 0 0.16 0.08 0 0.165 0.08 0
[...]
			<PointData Scalars="VitesseX">
				<DataArray Name="VitesseX" type="Float32" format="ascii">
 0 -1.89159e-15 5.8563e-14 -1.85024e-13 1.2209e-13 5.76952e-15 -7.60458e-14 -1.03009e-13 6.46334e-14 -2.65933e-14 -1.72807e-13 2.24031e-13 -4.20481e-13 4.67713e-13 -4.44529e-13 3.35313e-14 2.71938e-13 -4.54259e-13 4.54144e-13 -2.89868e-13 -2.94214e-14 1.10118e-13 1.6327e-13 -1.9473e-13 -4.99936e-13 -1.74844e-13 1.59489e-13 2.30676e-13 -6.56373e-14 -2.14732e-13 6.86517e-14 -2.67232e-13 3.33104e-13 1.22619e-13 -5.76083e-13 4.18674e-14 -1.02641e-13 3.91591e-13 -4.47784e-13 2.45746e-13 -2.34437e-13 2.81795e-13 5.78444e-14 -7.9114e-13 -1.83208e-13 7.78739e-13 1.0684e-13 -1.10241e-14 -5.08509e-13 -3.32934e-13 6.8701e-14 6.98269e-13 -2.74038e-14 -5.82461e-14 -1.46538e-12 1.36334e-13 1.16974e-12 -4.91068e-13 2.91117e-13 -6.84607e-13 4.0491e-13 3.13962e-13 -1.17875e-13 -7.5827e-14 7.68125e-14 3.70714e-13 -4.29266e-13 -1.09996e-12 7.1347e-13 5.40712e-13 -2.53714e-13 1.85001e-13 -1.74746e-12 1.47567e-12 3.07035e-13 1.32586e-13 -6.27487e-13 -2.36371e-13 8.49452e-13 -2.90116e-13 -4.62002e-14 2.5733e-14 -7.10057e-13 -1.75678e-13 -6.3624e-13 1.37082e-12 3.19158e-12 7.94883e-11 2.27887e-09 5.41835e-08 1.05867e-06 1.66012e-05 0.000202534 0.00184489 0.0119392 0.0525768 0.157317 0.345834 0.547424 0.690796 0.813897 0.874456 0.93098 0.930295 0.966387 0.912734 0.825349 0.675425 0.488964 0.30273 0.152082 0.0589294 0.0178563 0.00457871 0.00105947 0.000227819 4.59791e-05 8.74195e-06 1.56906e-06 2.66303e-07 4.28025e-08 6.52414e-09 9.44636e-10 1.30206e-10 1.72428e-11 1.95164e-12 -7.90645e-13 3.48337e-13 5.33438e-13 8.93252e-14 1.36428e-13 -1.06254e-12 2.58562e-13 5.02663e-13 -5.12869e-14 -6.13865e-13 -1.80857e-12 3.03928e-13 7.4791e-13 3.8125e-13 -1.92835e-13 -5.46407e-13 -7.25024e-13 -1.03789e-13 1.48878e-12 2.10091e-13 -1.80018e-13 2.63146e-13 1.19172e-14 1.27201e-12 -1.1046e-12 -2.75355e-13 3.38656e-13 -1.85721e-13 9.43774e-13 2.33654e-13 -1.26146e-12 -5.07686e-13 1.1464e-12 7.68645e-13 -4.16498e-13 -1.87108e-12 2.62666e-14 1.03388e-12 4.87295e-13 -9.29194e-13 -1.33006e-12 8.09434e-13 2.83203e-13 -5.14519e-13 1.19884e-12 5.11472e-13 -1.79139e-13 -5.50864e-13 -3.8159e-13 1.09531e-12 2.76005e-13 -3.79105e-13 -1.00527e-12 -7.33078e-14 1.11611e-12 4.38939e-13 -3.75685e-13 -9.74818e-13 -2.99126e-13 4.90802e-13 -5.7025e-13 -1.27419e-12 -1.01315e-12 -2.08414e-14 2.16201e-12 -1.07287e-12 -2.5834e-13 -1.82034e-12 2.34842e-12 4.33467e-13 -9.82152e-13 2.99969e-13 4.97232e-13 1.96735e-12 0 0 -1.72273e-14 -7.60081e-14 8.03249e-14 -1.18456e-13 6.91193e-15 6.98147e-14 -4.26621e-14 -1.56671e-13 -9.20799e-14 2.18764e-14 -1.36407e-13 2.69058e-13 -4.80705e-13 2.76062e-13 -8.46965e-14 -3.24591e-13 3.29293e-13 -3.33181e-13 2.6425e-13 1.25036e-13 -8.2101e-14 -1.80524e-13 -2.45244e-14 1.96126e-13 -2.19865e-13 -6.33731e-13 1.82895e-13 3.5127e-13 1.83979e-13 -5.24478e-13 2.99007e-13 -3.4101e-13 -1.89886e-13 5.44742e-13 -6.12414e-14 -4.98646e-13 -1.88434e-13 1.34986e-13 4.95274e-14 2.74066e-13 -1.63437e-13 -3.43193e-13 1.37457e-13 -3.8947e-14 -2.22869e-13 -4.40232e-14 2.27553e-13 -3.66242e-14 -8.28657e-14 5.47798e-14 -3.38302e-13 5.32712e-14 -4.84975e-13 3.20513e-13 -2.12225e-13 -2.8749e-13 4.61382e-13 -1.59422e-13 1.48838e-13 -3.63857e-13 1.69601e-13 4.32426e-13 1.00959e-13 1.7345e-13 -3.79404e-13 -3.84921e-13 3.70735e-13 -3.17112e-13 -4.1388e-13 4.67034e-13 -4.93807e-13 5.42966e-13 -6.27106e-13 1.35601e-13 -4.78331e-14 3.5195e-13 6.33715e-14 -6.17248e-13 6.99563e-13 -5.81613e-13 -3.20548e-13 4.15818e-13 -4.38535e-13 5.72834e-14 4.62252e-13 2.00235e-12 8.13839e-11 2.27951e-09 5.41823e-08 1.05867e-06 1.66012e-05 0.000202534 0.00184489 0.0119392 0.0525768 0.157317 0.345834 0.547424 0.690796 0.813897 0.874456 0.93098 0.930295 0.966387 0.912734 0.825349 0.675425 0.488964 0.30273 0.152082 0.0589294 0.0178563 0.00457871 0.00105947 0.000227819 4.59791e-05 8.74195e-06 1.56906e-06 2.66303e-07 4.28031e-08 6.52427e-09 9.44374e-10 1.29953e-10 1.68614e-11 2.34029e-12 -1.25958e-13 1.6075e-13 7.92742e-14 -1.08728e-13 1.02659e-13 -7.55204e-14 1.0323e-13 -1.17688e-13 -5.17789e-13 -1.9975e-13 -4.32316e-13 -6.40106e-13 4.64825e-13 4.22371e-13 -2.02319e-13 -1.90251e-13 -4.82304e-13 -3.47865e-14 -1.58742e-13 6.96821e-13 9.92441e-13 -4.10315e-13 2.66197e-13 -4.24666e-13 5.265e-13 3.35082e-13 -5.9161e-13 5.29194e-13 -2.75021e-13 2.17368e-13 2.08907e-14 2.53448e-13 -3.15145e-13 -7.71106e-13 7.93837e-13 1.01549e-13 -3.59132e-13 -8.33765e-13 -7.14e-13 6.3199e-13 -1.15288e-13 1.82542e-13 1.93141e-13 -1.74173e-14 2.27362e-14 3.89104e-13 -9.68454e-15 4.91228e-13 -2.08591e-13 -5.44915e-14 -2.51392e-14 -7.41387e-14 8.60263e-13 -6.7761e-13 -1.98124e-13 2.51962e-13 -3.34054e-13 4.46796e-13 -8.86253e-13 -2.17183e-13 -7.49692e-13 -6.36233e-13 1.96224e-13 -5.42533e-14 -8.03952e-13 8.26005e-13 -4.84575e-13 1.96557e-14 -1.12002e-12 2.9401e-14 1.7275e-12 5.1482e-14 1.2091e-12 -1.08057e-12 0 0 1.6609e-14 1.00405e-14 -3.36291e-15 5.03364e-15 -1.07752e-13 -9.70617e-14 -2.84701e-14 -7.99338e-14 -2.55457e-14 -9.81169e-14 -1.39932e-13 -1.14508e-13 5.08266e-14 -1.91711e-13 -6.12099e-14 4.96149e-14 3.5169e-14 9.16525e-14 -1.17493e-13 4.8488e-14 8.48703e-14 1.40781e-13 -2.02299e-13 -2.88258e-13 -1.1787e-13 -3.32636e-15 2.53046e-13 6.57834e-15 -1.96185e-13 -1.35407e-13 -2.26143e-14 1.31882e-13 -2.03855e-13 1.01557e-14 6.51145e-14 7.94672e-14 -5.08255e-13 1.70654e-13 4.62163e-14 -1.26437e-13 -8.15928e-14 -2.39149e-13 -1.10452e-13 2.16085e-13 -1.93173e-13 3.93554e-13 -4.76019e-13 1.48601e-14 -2.02521e-13 -4.78207e-14 -2.44483e-13 -6.86513e-14 1.68021e-13 2.35677e-13 -3.76419e-13 -5.20832e-13 -2.53792e-13 7.47537e-13 2.85403e-13 -4.06219e-13 6.94563e-14 3.345e-13 5.57549e-13 -3.61871e-13 -3.43336e-13 1.70881e-13 -9.46563e-14 1.19041e-13 -5.06282e-13 -6.79459e-13 6.10995e-13 4.2912e-13 -3.89542e-13 -8.28836e-13 1.78158e-13 4.9373e-13 -1.78838e-13 -6.22292e-13 -4.81843e-13 8.08805e-13 -5.37718e-13 2.12432e-13 6.89646e-13 9.99517e-14 -1.24429e-12 2.73956e-12 8.12613e-11 2.27955e-09 5.41832e-08 1.05867e-06 1.66012e-05 0.000202534 0.00184489 0.0119392 0.0525768 0.157317 0.345834 0.547424 0.690796 0.813897 0.874456 0.93098 0.930295 0.966387 0.912734 0.825349 0.675425 0.488964 0.30273 0.152082 0.0589294 0.0178563 0.00457871 0.00105947 0.000227819 4.59791e-05 8.74195e-06 1.56906e-06 2.66303e-07 4.28023e-08 6.52526e-09 9.44325e-10 1.29351e-10 1.69604e-11 1.23993e-12 1.67181e-12 -4.37653e-14 -6.79189e-13 1.97521e-13 -9.29955e-13 1.51993e-12 2.24314e-14 -7.63148e-13 -9.22451e-14 -1.08834e-12 1.0274e-12 -4.26269e-13 -1.07842e-12 4.51197e-13 -5.24459e-14 3.94174e-13 9.39702e-13 -1.28966e-12 -9.50181e-13 1.17431e-12 1.26363e-13 1.17239e-12 -8.34877e-13 -3.55702e-13 5.17484e-13 -3.14747e-13 1.06717e-12 -4.16534e-13 -2.95113e-13 -1.19073e-12 1.71295e-12 7.02129e-13 -5.84105e-13 -6.85458e-13 -4.82593e-13 1.03325e-12 -5.50162e-13 -1.01953e-12 -6.79425e-13 5.33049e-13 8.15766e-13 -5.45031e-13 -7.42532e-13 8.16561e-13 -3.23341e-13 5.56246e-13 9.68376e-13 -6.39388e-13 -1.03281e-13 -7.76727e-13 8.42909e-13 7.09089e-13 -4.67307e-13 -8.93877e-14 -7.24555e-13 4.40154e-13 6.75652e-13 -6.86151e-13 -2.04266e-13 -1.23526e-12 -2.68939e-13 8.89437e-14 -8.43753e-13 8.45147e-13 -1.39569e-12 -6.95733e-14 1.53069e-12 -7.64971e-13 -1.72356e-12 6.0961e-13 1.31504e-12 1.71815e-12 -1.59721e-12 -1.09734e-13 0 0 1.29257e-14 4.28661e-14 -7.79753e-14 -4.1445e-14 -4.0288e-14 -4.887e-14 -5.44651e-14 -1.71501e-13 -1.89426e-13 -2.08305e-13 2.38296e-13 -1.68339e-13 9.39781e-14 -4.00303e-13 -6.29878e-14 1.90243e-13 -2.73655e-13 2.52453e-13 6.6058e-14 9.40108e-15 -7.75726e-14 -8.6757e-14 -2.40598e-14 -2.03689e-13 -1.02225e-13 1.87467e-13 -2.0185e-13 5.41008e-14 -5.60572e-14 -6.09761e-14 -1.41499e-13 8.91522e-14 -1.87327e-13 3.66789e-14 6.64316e-14 1.20401e-13 3.31546e-13 -5.32652e-13 -3.35994e-13 -2.69943e-14 2.82866e-14 -6.85733e-14 -3.09467e-13 -3.13232e-14 5.54257e-13 5.05688e-14 -6.95715e-14 -6.17563e-13 -6.12457e-13 -8.13619e-14 6.27443e-13 3.73637e-13 -5.51044e-13 -4.39212e-13 1.24001e-13 1.74951e-13 2.7648e-13 -9.45583e-14 -4.87167e-13 -2.41746e-13 4.75307e-13 4.02318e-13 5.21971e-13 -2.38069e-13 -5.13139e-13 -3.13268e-13 -4.04011e-13 1.48096e-13 9.24814e-13 -1.32539e-13 -3.87257e-13 -2.92013e-13 2.22168e-14 2.07173e-13 -1.45808e-13 -8.36332e-13 3.28972e-13 -2.7229e-13 -9.17057e-13 -1.41955e-13 6.24555e-13 2.09107e-13 -5.64157e-13 3.84206e-13 1.80807e-13 2.22829e-12 7.96647e-11 2.27908e-09 5.41846e-08 1.05867e-06 1.66012e-05 0.000202534 0.00184489 0.0119392 0.0525768 0.157317 0.345834 0.547424 0.690796 0.813897 0.874456 0.93098 0.930295 0.966387 0.912734 0.825349 0.675425 0.488964 0.30273 0.152082 0.0589294 0.0178563 0.00457871 0.00105947 0.000227819 4.59791e-05 8.74195e-06 1.56906e-06 2.66302e-07 4.28026e-08 6.52446e-09 9.44405e-10 1.30122e-10 1.64045e-11 2.02151e-12 4.28926e-13 2.84799e-13 1.60683e-13 -5.57869e-13 1.67188e-13 -5.27013e-14 1.40616e-13 2.3982e-13 -6.21099e-13 -4.25198e-13 -1.74698e-13 -3.91158e-13 -2.9291e-13 -1.22946e-12 6.50123e-13 1.22902e-12 -3.06615e-13 3.51976e-15 -7.18129e-13 7.68218e-14 3.41554e-13 7.18077e-13 -1.80192e-13 -2.60184e-13 -6.73926e-13 8.77499e-13 1.23796e-12 -3.24577e-13 -4.66652e-13 -7.07649e-13 -3.30251e-13 -2.18065e-13 1.23385e-12 7.16071e-13 -8.50622e-13 -1.13476e-12 -7.56642e-13 1.08042e-12 -6.88678e-13 -1.00668e-12 1.87252e-13 9.80514e-13 2.17111e-13 -1.31235e-12 3.05418e-13 1.20839e-12 2.78167e-13 -9.81036e-13 -4.29009e-13 5.26246e-13 1.00096e-12 3.36036e-13 -9.71179e-13 -9.70588e-13 3.76527e-13 1.72892e-12 -5.68139e-13 -1.14175e-12 -6.41734e-13 -2.24276e-13 2.2223e-13 -1.15472e-12 -1.43185e-12 1.18225e-13 2.93788e-12 -8.38167e-14 -1.97156e-12 -1.39063e-12 1.9624e-13 1.29457e-12 -2.56394e-13 -4.58181e-14 3.07483e-13 9.38029e-13 0 0 -1.72235e-14 -4.51848e-14 4.18992e-14 -1.91081e-13 -6.65688e-14 -4.03413e-15 -1.24305e-13 -1.92304e-13 -1.37603e-13 -2.64137e-14 -5.09278e-14 1.25407e-13 -4.88521e-13 1.99659e-13 -3.04257e-14 -4.11426e-16 2.58669e-13 -3.24638e-13 1.16909e-13 -8.9339e-14 -1.6974e-13 -4.10217e-13 -5.94003e-14 1.28217e-13 -1.19513e-13 -2.60764e-13 -2.10485e-13 2.14357e-13 1.56446e-13 -1.56057e-13 2.60998e-13 -2.98025e-13 -1.02114e-13 7.25238e-13 7.42872e-14 -6.69541e-14 3.81888e-13 -3.33465e-13 -5.41181e-13 9.62118e-14 -4.22601e-13 -4.20508e-13 5.08869e-14 1.27148e-14 2.6135e-13 -2.91271e-13 1.83866e-13 -3.11195e-13 -5.06862e-13 2.42495e-13 1.00376e-13 -8.86053e-14 -7.18086e-13 2.19595e-13 2.71195e-13 -2.63033e-13 5.52105e-13 -4.608e-13 -9.63005e-14 -3.36097e-13 4.04539e-13 4.2159e-13 2.7816e-13 3.079e-13 -5.91896e-13 -9.78497e-13 3.6369e-13 -3.06951e-13 5.97301e-13 8.74113e-13 -6.11451e-13 8.78142e-13 -8.05077e-13 3.80668e-13 -5.85215e-13 -7.37756e-13 2.25099e-14 -9.77807e-13 -5.96765e-14 -7.68964e-13 2.92735e-13 1.23693e-13 -1.18994e-12 3.84593e-13 7.62083e-13 1.61783e-12 8.06894e-11 2.27959e-09 5.41827e-08 1.05867e-06 1.66012e-05 0.000202534 0.00184489 0.0119392 0.0525768 0.157317 0.345834 0.547424 0.690796 0.813897 0.874456 0.93098 0.930295 0.966387 0.912734 0.825349 0.675425 0.488964 0.30273 0.152082 0.0589294 0.0178563 0.00457871 0.00105947 0.000227819 4.59791e-05 8.74195e-06 1.56906e-06 2.66303e-07 4.28033e-08 6.52372e-09 9.44317e-10 1.30289e-10 1.672e-11 2.98281e-12 -5.51758e-13 -8.65182e-14 3.57364e-14 -2.33241e-13 9.84701e-13 -8.39688e-13 -1.49082e-13 -9.08434e-14 -3.47207e-13 6.02598e-13 -1.16158e-12 -1.21829e-12 2.49054e-13 -6.04521e-13 7.65817e-13 3.2591e-13 -1.3249e-12 6.20818e-13 1.0071e-13 7.04957e-13 1.44143e-12 -5.96949e-13 9.44178e-13 -4.39422e-13 -6.89603e-14 7.21985e-13 -7.18144e-13 1.70873e-13 -5.32399e-13 -1.2047e-13 -1.68037e-12 -9.82182e-13 3.08337e-13 1.32143e-12 1.4931e-12 -1.24056e-12 -1.72873e-12 -1.40483e-12 -1.24595e-12 2.85782e-13 3.03972e-13 1.96466e-12 3.21402e-13 -1.48051e-12 -3.98371e-13 -1.6565e-13 1.31702e-13 1.23409e-12 4.67534e-13 3.0772e-13 -1.28576e-12 -1.66809e-13 1.32666e-12 3.05697e-13 -3.66293e-13 -3.79987e-14 -1.15418e-12 1.03344e-12 -4.21378e-13 -1.55968e-13 -1.71344e-12 -1.92934e-12 4.69251e-13 1.10306e-12 1.82643e-12 2.41988e-13 -2.96852e-12 -6.88941e-13 -4.77692e-13 1.0669e-12 1.4833e-12 -4.58606e-13 2.04151e-12 -1.02366e-12 0 0 5.48254e-15 5.45583e-14 -1.12651e-13 6.97964e-14 -2.76121e-13 -3.20127e-13 -2.14305e-13 1.76503e-13 2.10121e-13 -4.9012e-14 -3.61466e-13 -6.00122e-13 3.6578e-13 -1.80151e-13 1.45629e-13 6.3904e-13 2.21416e-14 1.49629e-13 -9.51654e-13 -3.79997e-13 2.59725e-13 1.5896e-13 -6.20959e-13 -8.04894e-13 -5.42893e-15 5.23837e-13 3.53709e-13 -4.34508e-13 -5.50053e-13 6.56632e-13 -1.05483e-13 5.04534e-13 2.65106e-13 -2.68138e-13 3.1029e-13 6.78875e-13 -1.47367e-13 2.19259e-14 -1.7125e-13 -7.8903e-13 -4.56292e-13 -4.37938e-13 -5.6625e-13 4.14932e-13 2.52317e-13 2.98313e-13 -9.11294e-13 2.07195e-13 -3.61054e-13 5.11215e-13 -1.68226e-13 -1.19573e-12 9.13664e-13 -3.17437e-13 1.02332e-13 -1.7291e-13 -1.37017e-12 1.37255e-12 3.70257e-13 1.31485e-13 -2.78639e-14 -2.75183e-13 3.49729e-13 9.81098e-14 2.85335e-13 -6.48122e-13 -4.95345e-13 6.75684e-13 -2.99118e-13 -5.33396e-13 1.94622e-12 3.65156e-13 2.96211e-13 -1.27485e-12 -2.94246e-13 -1.46778e-13 -1.33371e-12 -5.71669e-13 -9.38165e-13 1.48062e-12 -1.07225e-12 -1.28766e-12 8.29112e-13 -5.5013e-13 -8.79718e-13 3.4451e-12 8.12926e-11 2.27997e-09 5.41814e-08 1.05867e-06 1.66012e-05 0.000202534 0.00184489 0.0119392 0.0525768 0.157317 0.345834 0.547424 0.690796 0.813897 0.874456 0.93098 0.930295 0.966387 0.912734 0.825349 0.675425 0.488964 0.30273 0.152082 0.0589294 0.0178563 0.00457871 0.00105947 0.000227819 4.59791e-05 8.74195e-06 1.56906e-06 2.66304e-07 4.28023e-08 6.52462e-09 9.44362e-10 1.29336e-10 1.80718e-11 1.6735e-12 8.43516e-13 -8.03329e-13 -1.23338e-12 1.35108e-12 -2.93774e-13 5.54386e-13 -4.82434e-13 -1.44958e-12 1.34758e-12 -3.35451e-13 -8.62913e-13 -9.22661e-13 -1.25465e-12 1.68879e-12 3.38298e-13 -1.18377e-12 8.24118e-14 -1.37894e-12 1.54358e-12 2.42134e-12 2.87578e-13 7.98511e-13 5.85091e-14 1.05146e-12 8.72936e-14 -1.88604e-12 -2.55996e-13 -1.08628e-12 7.72097e-13 -1.40819e-12 -5.77563e-13 -1.13856e-12 -1.24254e-12 2.15067e-12 1.71808e-12 -2.19284e-13 -2.29997e-12 -4.30815e-12 -5.58103e-13 1.45784e-12 7.65485e-13 1.32257e-12 -1.37956e-12 8.17115e-13 -9.00892e-13 -1.90233e-12 1.48405e-12 1.61816e-12 1.62212e-12 -7.86209e-13 -2.56133e-12 1.81661e-13 9.35259e-13 3.65571e-12 -1.4224e-12 -2.71851e-12 4.71653e-13 1.10967e-12 1.50556e-12 -1.40873e-12 -3.48008e-12 -1.37309e-12 7.09104e-13 3.74762e-12 -1.24436e-12 -2.21242e-12 1.77827e-12 -1.98621e-12 -2.06513e-13 1.13853e-12 1.67231e-12 2.80773e-12 -1.64734e-12 -1.43698e-14 0
				</DataArray>
				<DataArray Name="VitesseY" type="Float32" format="ascii">