<?xml version="1.0"?>
<VTKFile type="PolyData">
	<PolyData>
		<Piece NumberOfPoints="1206" NumberOfPolys="1000">
			<Points>
				<DataArray type="Float32" NumberOfComponents="3" format="ascii">
 0 0 0 0.005 0 0 0.01 0 0 0.015 0 0 0.02 0 0 0.025 0 0 0.03 0 0 0.035 0 0 0.04 0 0 0.045 0 0 0.05 0 0 0.055 0 0 0.06 0 0 0.065 0 0 0.07 0 0 0.075 0 0 0.08 0 0 0.085 0 0 0.09 0 0 0.095 0 0 0.1 0 0 0.105 0 0 0.11 0 0 0.115 0 0 0.12 0 0 0.125 0 0 0.13 0 0 0.135 0 0 0.14 0 0 0.145 0 0 0.15 0 0 0.155 0 0 0.16 0 0 0.165 0 0 0.17 0 0 0.175 0 0 0.18 0 0 0.185 0 0 0.19 0 0 0.195 0 0 0.2 0 0 0.205 0 0 0.21 0 0 0.215 0 0 0.22 0 0 0.225 0 0 0.23 0 0 0.235 0 0 0.24 0 0 0.245 0 0 0.25 0 0 0.255 0 0 0.26 0 0 0.265 0 0 0.27 0 0 0.275 0 0 0.28 0 0 0.285 0 0 0.29 0 0 0.295 0 0 0.3 0 0 0.305 0 0 0.31 0 0 0.315 0 0 0.32 0 0 0.325 0 0 0.33 0 0 0.335 0 0 0.34 0 0 0.345 0 0 0.35 0 0 0.355 0 0 0.36 0 0 0.365 0 0 0.37 0 0 0.375 0 0 0.38 0 0 0.385 0 0 0.39 0 0 0.395 0 0 0.4 0 0 0.405 0 0 0.41 0 0 0.415 0 0 0.42 0 0 0.425 0 0 0.43 0 0 0.435 0 0 0.44 0 0 0.445 0 0 0.45 0 0 0.455 0 0 0.46 0 0 0.465 0 0 0.47 0 0 0.475 0 0 0.48 0 0 0.485 0 0 0.49 0 0 0.495 0 0 0.5 0 0 0.505 0 0 0.51 0 0 0.515 0 0 0.52 0 0 0.525 0 0 0.53 0 0 0.535 0 0 0.54 0 0 0.545 0 0 0.55 0 0 0.555 0 0 0.56 0 0 0.565 0 0 0.57 0 0 0.575 0 0 0.58 0 0 0.585 0 0 0.59 0 0 0.595 0 0 0.6 0 0 0.605 0 0 0.61 0 0 0.615 0 0 0.62 0 0 0.625 0 0 0.63 0 0 0.635 0 0 0.64 0 0 0.645 0 0 0.65 0 0 0.655 0 0 0.66 0 0 0.665 0 0 0.67 0 0 0.675 0 0 0.68 0 0 0.685 0 0 0.69 0 0 0.695 0 0 0.7 0 0 0.705 0 0 0.71 0 0 0.715 0 0 0.72 0 0 0.725 0 0 0.73 0 0 0.735 0 0 0.74 0 0 0.745 0 0 0.75 0 0 0.755 0 0 0.76 0 0 0.765 0 0 0.77 0 0 0.775 0 0 0.78 0 0 0.785 0 0 0.79 0 0 0.795 0 0 0.8 0 0 0.805 0 0 0.81 0 0 0.815 0 0 0.82 0 0 0.825 0 0 0.83 0 0 0.835 0 0 0.84 0 0 0.845 0 0 0.85 0 0 0.855 0 0 0.86 0 0 0.865 0 0 0.87 0 0 0.875 0 0 0.88 0 0 0.885 0 0 0.89 0 0 0.895 0 0 0.9 0 0 0.905 0 0 0.91 0 0 0.915 0 0 0.92 0 0 0.925 0 0 0.93 0 0 0.935 0 0 0.94 0 0 0.945 0 0 0.95 0 0 0.955 0 0 0.96 0 0 0.965 0 0 0.97 0 0 0.975 0 0 0.98 0 0 0.985 0 0 0.99 0 0 0.995 0 0 1 0 0 0 0.02 0 0.005 0.02 0 0.01 0.02 0 0.015 0.02 0 0.02 0.02 0 0.025 0.02 0 0.03 0.02 0 0.035 0.02 0 0.04 0.02 0 0.045 0.02 0 0.05 0.02 0 0.055 0.02 0 0.06 0.02 0 0.065 0.02 0 0.07 0.02 0 0.075 0.02 0 0.08 0.02 0 0.085 0.02 0 0.09 0.02 0 0.095 0.02 0 0.1 0.02 0 0.105 0.02 0 0.11 0.02 0 0.115 0.02 0 0.12 0.02 0 0.125 0.02 0 0.13 0.02 0 0.135 0.02 0 0.14 0.02 0 0.145 0.02 0 0.15 0.02 0 0.155 0.02 0 0.16 0.02 0 0.165 0.02 0 0.17 0.02 0 0.175 0.02 0 0.18 0.02 0 0.185 0.02 0 0.19 0.02 0 0.195 0.02 0 0.2 0.02 0 0.205 0.02 0 0.21 0.02 0 0.215 0.02 0 0.22 0.02 0 0.225 0.02 0 0.23 0.02 0 0.235 0.02 0 0.24 0.02 0 0.245 0.02 0 0.25 0.02 0 0.255 0.02 0 0.26 0.02 0 0.265 0.02 0 0.27 0.02 0 0.275 0.02 0 0.28 0.02 0 0.285 0.02 0 0.29 0.02 0 0.295 0.02 0 0.3 0.02 0 0.305 0.02 0 0.31 0.02 0 0.315 0.02 0 0.32 0.02 0 0.325 0.02 0 0.33 0.02 0 0.335 0.02 0 0.34 0.02 0 0.345 0.02 0 0.35 0.02 0 0.355 0.02 0 0.36 0.02 0 0.365 0.02 0 0.37 0.02 0 0.375 0.02 0 0.38 0.02 0 0.385 0.02 0 0.39 0.02 0 0.395 0.02 0 0.4 0.02 0 0.405 0.02 0 0.41 0.02 0 0.415 0.02 0 0.42 0.02 0 0.425 0.02 0 0.43 0.02 0 0.435 0.02 0 0.44 0.02 0 0.445 0.02 0 0.45 0.02 0 0.455 0.02 0 0.46 0.02 0 0.465 0.02 0 0.47 0.02 0 0.475 0.02 0 0.48 0.02 0 0.485 0.02 0 0.49 0.02 0 0.495 0.02 0 0.5 0.02 0 0.505 0.02 0 0.51 0.02 0 0.515 0.02 0 0.52 0.02 0 0.525 0.02 0 0.53 0.02 0 0.535 0.02 0 0.54 0.02 0 0.545 0.02 0 0.55 0.02 0 0.555 0.02 0 0.56 0.02 0 0.565 0.02 0 0.57 0.02 0 0.575 0.02 0 0.58 0.02 0 0.585 0.02 0 0.59 0.02 0 0.595 0.02 0 0.6 0.02 0 0.605 0.02 0 0.61 0.02 0 0.615 0.02 0 0.62 0.02 0 0.625 0.02 0 0.63 0.02 0 0.635 0.02 0 0.64 0.02 0 0.645 0.02 0 0.65 0.02 0 0.655 0.02 0 0.66 0.02 0 0.665 0.02 0 0.67 0.02 0 0.675 0.02 0 0.68 0.02 0 0.685 0.02 0 0.69 0.02 0 0.695 0.02 0 0.7 0.02 0 0.705 0.02 0 0.71 0.02 0 0.715 0.02 0 0.72 0.02 0 0.725 0.02 0 0.73 0.02 0 0.735 0.02 0 0.74 0.02 0 0.745 0.02 0 0.75 0.02 0 0.755 0.02 0 0.76 0.02 0 0.765 0.02 0 0.77 0.02 0 0.775 0.02 0 0.78 0.02 0 0.785 0.02 0 0.79 0.02 0 0.795 0.02 0 0.8 0.02 0 0.805 0.02 0 0.81 0.02 0 0.815 0.02 0 0.82 0.02 0 0.825 0.02 0 0.83 0.02 0 0.835 0.02 0 0.84 0.02 0 0.845 0.02 0 0.85 0.02 0 0.855 0.02 0 0.86 0.02 0 0.865 0.02 0 0.87 0.02 0 0.875 0.02 0 0.88 0.02 0 0.885 0.02 0 0.89 0.02 0 0.895 0.02 0 0.9 0.02 0 0.905 0.02 0 0.91 0.02 0 0.915 0.02 0 0.92 0.02 0 0.925 0.02 0 0.93 0.02 0 0.935 0.02 0 0.94 0.02 0 0.945 0.02 0 0.95 0.02 0 0.955 0.02 0 0.96 0.02 0 0.965 0.02 0 0.97 0.02 0 0.975 0.02 0 0.98 0.02 0 0.985 0.02 0 0.99 0.02 0 0.995 0.02 0 1 0.02 0 0 0.04 0 0.005 0.04 0 0.01 0.04 0 0.015 0.04 0 0.02 0.04 0 0.025 0.04 0 0.03 0.04 0 0.035 0.04 0 0.04 0.04 0 0.045 0.04 0 0.05 0.04 0 0.055 0.04 0 0.06 0.04 0 0.065 0.04 0 0.07 0.04 0 0.075 0.04 0 0.08 0.04 0 0.085 0.04 0 0.09 0.04 0 0.095 0.04 0 0.1 0.04 0 0.105 0.04 0 0.11 0.04 0 0.115 0.04 0 0.12 0.04 0 0.125 0.04 0 0.13 0.04 0 0.135 0.04 0 0.14 0.04 0 0.145 0.04 0 0.15 0.04 0 0.155 0.04 0 0.16 0.04 0 0.165 0.04 0 0.17 0.04 0 0.175 0.04 0 0.18 0.04 0 0.185 0.04 0 0.19 0.04 0 0.195 0.04 0 0.2 0.04 0 0.205 0.04 0 0.21 0.04 0 0.215 0.04 0 0.22 0.04 0 0.225 0.04 0 0.23 0.04 0 0.235 0.04 0 0.24 0.04 0 0.245 0.04 0 0.25 0.04 0 0.255 0.04 0 0.26 0.04 0 0.265 0.04 0 0.27 0.04 0 0.275 0.04 0 0.28 0.04 0 0.285 0.04 0 0.29 0.04 0 0.295 0.04 0 0.3 0.04 0 0.305 0.04 0 0.31 0.04 0 0.315 0.04 0 0.32 0.04 0 0.325 0.04 0 0.33 0.04 0 0.335 0.04 0 0.34 0.04 0 0.345 0.04 0 0.35 0.04 0 0.355 0.04 0 0.36 0.04 0 0.365 0.04 0 0.37 0.04 0 0.375 0.04 0 0.38 0.04 0 0.385 0.04 0 0.39 0.04 0 0.395 0.04 0 0.4 0.04 0 0.405 0.04 0 0.41 0.04 0 0.415 0.04 0 0.42 0.04 0 0.425 0.04 0 0.43 0.04 0 0.435 0.04 0 0.44 0.04 0 0.445 0.04 0 0.45 0.04 0 0.455 0.04 0 0.46 0.04 0 0.465 0.04 0 0.47 0.04 0 0.475 0.04 0 0.48 0.04 0 0.485 0.04 0 0.49 0.04 0 0.495 0.04 0 0.5 0.04 0 0.505 0.04 0 0.51 0.04 0 0.515 0.04 0 0.52 0.04 0 0.525 0.04 0 0.53 0.04 0 0.535 0.04 0 0.54 0.04 0 0.545 0.04 0 0.55 0.04 0 0.555 0.04 0 0.56 0.04 0 0.565 0.04 0 0.57 0.04 0 0.575 0.04 0 0.58 0.04 0 0.585 0.04 0 0.59 0.04 0 0.595 0.04 0 0.6 0.04 0 0.605 0.04 0 0.61 0.04 0 0.615 0.04 0 0.62 0.04 0 0.625 0.04 0 0.63 0.04 0 0.635 0.04 0 0.64 0.04 0 0.645 0.04 0 0.65 0.04 0 0.655 0.04 0 0.66 0.04 0 0.665 0.04 0 0.67 0.04 0 0.675 0.04 0 0.68 0.04 0 0.685 0.04 0 0.69 0.04 0 0.695 0.04 0 0.7 0.04 0 0.705 0.04 0 0.71 0.04 0 0.715 0.04 0 0.72 0.04 0 0.725 0.04 0 0.73 0.04 0 0.735 0.04 0 0.74 0.04 0 0.745 0.04 0 0.75 0.04 0 0.755 0.04 0 0.76 0.04 0 0.765 0.04 0 0.77 0.04 0 0.775 0.04 0 0.78 0.04 0 0.785 0.04 0 0.79 0.04 0 0.795 0.04 0 0.8 0.04 0 0.805 0.04 0 0.81 0.04 0 0.815 0.04 0 0.82 0.04 0 0.825 0.04 0 0.83 0.04 0 0.835 0.04 0 0.84 0.04 0 0.845 0.04 0 0.85 0.04 0 0.855 0.04 0 0.86 0.04 0 0.865 0.04 0 0.87 0.04 0 0.875 0.04 0 0.88 0.04 0 0.885 0.04 0 0.89 0.04 0 0.895 0.04 0 0.9 0.04 0 0.905 0.04 0 0.91 0.04 0 0.915 0.04 0 0.92 0.04 0 0.925 0.04 0 0.93 0.04 0 0.935 0.04 0 0.94 0.04 0 0.945 0.04 0 0.95 0.04 0 0.955 0.04 0 0.96 0.04 0 0.965 0.04 0 0.97 0.04 0 0.975 0.04 0 0.98 0.04 0 0.985 0.04 0 0.99 0.04 0 0.995 0.04 0 1 0.04 0 0 0.06 0 0.005 0.06 0 0.01 0.06 0 0.015 0.06 0 0.02 0.06 0 0.025 0.06 0 0.03 0.06 0 0.035 0.06 0 0.04 0.06 0 0.045 0.06 0 0.05 0.06 0 0.055 0.06 0 0.06 0.06 0 0.065 0.06 0 0.07 0.06 0 0.075 0.06 0 0.08 0.06 0 0.085 0.06 0 0.09 0.06 0 0.095 0.06 0 0.1 0.06 0 0.105 0.06 0 0.11 0.06 0 0.115 0.06 0 0.12 0.06 0 0.125 0.06 0 0.13 0.06 0 0.135 0.06 0 0.14 0.06 0 0.145 0.06 0 0.15 0.06 0 0.155 0.06 0 0.16 0.06 0 0.165 0.06 0 0.17 0.06 0 0.175 0.06 0 0.18 0.06 0 0.185 0.06 0 0.19 0.06 0 0.195 0.06 0 0.2 0.06 0 0.205 0.06 0 0.21 0.06 0 0.215 0.06 0 0.22 0.06 0 0.225 0.06 0 0.23 0.06 0 0.235 0.06 0 0.24 0.06 0 0.245 0.06 0 0.25 0.06 0 0.255 0.06 0 0.26 0.06 0 0.265 0.06 0 0.27 0.06 0 0.275 0.06 0 0.28 0.06 0 0.285 0.06 0 0.29 0.06 0 0.295 0.06 0 0.3 0.06 0 0.305 0.06 0 0.31 0.06 0 0.315 0.06 0 0.32 0.06 0 0.325 0.06 0 0.33 0.06 0 0.335 0.06 0 0.34 0.06 0 0.345 0.06 0 0.35 0.06 0 0.355 0.06 0 0.36 0.06 0 0.365 0.06 0 0.37 0.06 0 0.375 0.06 0 0.38 0.06 0 0.385 0.06 0 0.39 0.06 0 0.395 0.06 0 0.4 0.06 0 0.405 0.06 0 0.41 0.06 0 0.415 0.06 0 0.42 0.06 0 0.425 0.06 0 0.43 0.06 0 0.435 0.06 0 0.44 0.06 0 0.445 0.06 0 0.45 0.06 0 0.455 0.06 0 0.46 0.06 0 0.465 0.06 0 0.47 0.06 0 0.475 0.06 0 0.48 0.06 0 0.485 0.06 0 0.49 0.06 0 0.495 0.06 0 0.5 0.06 0 0.505 0.06 0 0.51 0.06 0 0.515 0.06 0 0.52 0.06 0 0.525 0.06 0 0.53 0.06 0 0.535 0.06 0 0.54 0.06 0 0.545 0.06 0 0.55 0.06 0 0.555 0.06 0 0.56 0.06 0 0.565 0.06 0 0.57 0.06 0 0.575 0.06 0 0.58 0.06 0 0.585 0.06 0 0.59 0.06 0 0.595 0.06 0 0.6 0.06 0 0.605 0.06 0 0.61 0.06 0 0.615 0.06 0 0.62 0.06 0 0.625 0.06 0 0.63 0.06 0 0.635 0.06 0 0.64 0.06 0 0.645 0.06 0 0.65 0.06 0 0.655 0.06 0 0.66 0.06 0 0.665 0.06 0 0.67 0.06 0 0.675 0.06 0 0.68 0.06 0 0.685 0.06 0 0.69 0.06 0 0.695 0.06 0 0.7 0.06 0 0.705 0.06 0 0.71 0.06 0 0.715 0.06 0 0.72 0.06 0 0.725 0.06 0 0.73 0.06 0 0.735 0.06 0 0.74 0.06 0 0.745 0.06 0 0.75 0.06 0 0.755 0.06 0 0.76 0.06 0 0.765 0.06 0 0.77 0.06 0 0.775 0.06 0 0.78 0.06 0 0.785 0.06 0 0.79 0.06 0 0.795 0.06 0 0.8 0.06 0 0.805 0.06 0 0.81 0.06 0 0.815 0.06 0 0.82 0.06 0 0.825 0.06 0 0.83 0.06 0 0.835 0.06 0 0.84 0.06 0 0.845 0.06 0 0.85 0.06 0 0.855 0.06 0 0.86 0.06 0 0.865 0.06 0 0.87 0.06 0 0.875 0.06 0 0.88 0.06 0 0.885 0.06 0 0.89 0.06 0 0.895 0.06 0 0.9 0.06 0 0.905 0.06 0 0.91 0.06 0 0.915 0.06 0 0.92 0.06 0 0.925 0.06 0 0.93 0.06 0 0.935 0.06 0 0.94 0.06 0 0.945 0.06 0 0.95 0.06 0 0.955 0.06 0 0.96 0.06 0 0.965 0.06 0 0.97 0.06 0 0.975 0.06 0 0.98 0.06 0 0.985 0.06 0 0.99 0.06 0 0.995 0.06 0 1 0.06 0 0 0.08 0 0.005 0.08 0 0.01 0.08 0 0.015 0.08 0 0.02 0.08 0 0.025 0.08 0 0.03 0.08 0 0.035 0.08 0 0.04 0.08 0 0.045 0.08 0 0.05 0.08 0 0.055 0.08 0 0.06 0.08 0 0.065 0.08 0 0.07 0.08 0 0.075 0.08 0 0.08 0.08 0 0.085 0.08 0 0.09 0.08 0 0.095 0.08 0 0.1 0.08 0 0.105 0.08 0 0.11 0.08 0 0.115 0.08 0 0.12 0.08 0 0.125 0.08 0 0.13 0.08 0 0.135 0.08 0 0.14 0.08 0 0.145 0.08 0 0.15 0.08 0 0.155 0.08 0 0.16 0.08 0 0.165 0.08 0
[...]
			<PointData Scalars="VitesseX">
				<DataArray Name="VitesseX" type="Float32" format="ascii">
 0 -1.78711e-15 -1.31837e-14 -4.47945e-14 -6.40298e-16 -4.21957e-15 -1.83831e-14 -1.60697e-14 1.31606e-14 8.40025e-15 -1.51021e-16 4.64147e-14 -1.08045e-13 5.21836e-14 -8.46831e-14 -2.62044e-14 -2.00319e-15 -7.92486e-14 -5.42785e-15 -3.60728e-14 -3.47462e-14 -4.05182e-14 -2.08855e-15 -4.54604e-14 -1.1819e-13 -8.7608e-14 -3.78263e-14 -1.77524e-13 -2.67405e-14 -1.86081e-13 -6.05781e-14 -1.54143e-13 -1.36935e-13 -1.25077e-13 -1.76647e-13 -3.49315e-14 -1.53212e-13 -9.9477e-15 2.03403e-14 2.16364e-13 2.40472e-14 -3.89574e-14 1.48064e-13 -2.05551e-13 -5.94186e-14 -1.06516e-13 -5.18462e-14 -2.43549e-13 -7.51968e-14 -5.8075e-14 -3.02812e-13 6.33983e-15 2.29958e-13 -5.98575e-13 4.14334e-14 -2.77439e-14 -3.51999e-13 -1.24311e-13 -1.08174e-13 2.53884e-13 1.18634e-13 3.18434e-12 2.64873e-11 2.15891e-10 1.64626e-09 1.16614e-08 7.64992e-08 4.62582e-07 2.5654e-06 1.29716e-05 5.93792e-05 0.00024398 0.000890416 0.00285012 0.00788998 0.0186552 0.0374781 0.0645426 0.097639 0.134027 0.171905 0.210399 0.249121 0.287894 0.326593 0.365039 0.403111 0.440732 0.477868 0.514508 0.550629 0.586193 0.621141 0.655383 0.688798 0.721224 0.752451 0.782216 0.810194 0.836013 0.859263 0.879545 0.896535 0.910064 0.920187 0.927197 0.931595 0.933985 0.93488 0.934853 0.93463 0.934303 0.93406 0.934143 0.934881 0.936706 0.939996 0.944833 0.952077 0.961569 0.958299 0.949594 0.940893 0.935127 0.931745 0.92982 0.928384 0.92667 0.923869 0.918791 0.909646 0.893722 0.867173 0.825143 0.762531 0.67564 0.564639 0.436151 0.304005 0.187401 0.100314 0.0465724 0.0192796 0.00743109 0.00275907 0.00100446 0.000361156 0.000128555 4.53228e-05 1.58223e-05 5.46684e-06 1.86847e-06 6.31374e-07 2.10827e-07 6.95354e-08 2.26445e-08 7.27787e-09 2.30786e-09 7.21644e-10 2.22335e-10 6.77471e-11 2.03932e-11 5.47422e-12 1.13871e-12 -2.94427e-14 2.56191e-13 -3.94221e-13 -1.27434e-13 -4.24592e-13 -6.73499e-13 -2.54675e-13 -2.41408e-13 -2.77644e-14 2.30387e-13 -6.46387e-13 7.25279e-13 -1.68621e-13 -1.55758e-13 4.96401e-13 -4.93461e-13 -1.88821e-13 -1.67403e-13 1.34423e-13 -7.57542e-13 -4.44299e-13 3.91396e-13 -1.98447e-13 -2.07846e-13 3.31892e-13 3.24151e-14 -5.84627e-13 2.29949e-13 9.8363e-14 1.02397e-12 -2.19141e-13 4.94659e-13 1.75767e-13 2.46707e-13 -9.36752e-13 -4.75678e-13 0 0 -1.2297e-14 -1.92488e-14 6.28114e-15 -5.27825e-14 -4.1785e-14 -2.12981e-15 1.05806e-14 -1.31489e-14 2.37285e-15 4.65093e-14 -4.95406e-14 1.02346e-13 -1.37303e-13 3.43598e-15 -2.09488e-14 -2.91593e-14 8.33472e-15 -3.08553e-14 -5.61519e-14 -7.7015e-14 2.02949e-14 -1.41397e-14 -1.20838e-13 2.96984e-15 -9.00541e-14 -1.73474e-13 -2.73868e-14 -2.01726e-13 -5.8889e-14 -1.81802e-13 -5.75365e-14 -1.29532e-13 -1.95973e-13 -5.58969e-14 -1.82777e-13 -2.55696e-14 3.97565e-15 1.06925e-13 -2.05209e-13 9.73339e-14 -7.27399e-14 -4.44108e-14 8.53302e-14 -6.37662e-14 -1.73255e-13 -1.82549e-13 -1.01824e-13 -1.8284e-13 -2.22617e-13 5.3849e-14 -1.27185e-13 -3.31715e-13 2.73706e-13 -1.94704e-13 -1.70981e-13 -4.131e-14 -1.08553e-13 -4.03728e-14 -1.25735e-13 4.83567e-13 3.03538e-12 2.64903e-11 2.16068e-10 1.64574e-09 1.16618e-08 7.64996e-08 4.62582e-07 2.5654e-06 1.29716e-05 5.93792e-05 0.00024398 0.000890416 0.00285012 0.00788998 0.0186552 0.0374781 0.0645426 0.097639 0.134027 0.171905 0.210399 0.249121 0.287894 0.326593 0.365039 0.403111 0.440732 0.477868 0.514508 0.550629 0.586193 0.621141 0.655383 0.688798 0.721224 0.752451 0.782216 0.810194 0.836013 0.859263 0.879545 0.896535 0.910064 0.920187 0.927197 0.931595 0.933985 0.93488 0.934853 0.93463 0.934303 0.93406 0.934143 0.934881 0.936706 0.939996 0.944833 0.952077 0.961569 0.958299 0.949594 0.940893 0.935127 0.931745 0.92982 0.928384 0.92667 0.923869 0.918791 0.909646 0.893722 0.867173 0.825143 0.762531 0.67564 0.564639 0.436151 0.304005 0.187401 0.100314 0.0465724 0.0192796 0.00743109 0.00275907 0.00100446 0.000361156 0.000128555 4.53228e-05 1.58223e-05 5.46684e-06 1.86847e-06 6.31375e-07 2.10827e-07 6.9536e-08 2.26438e-08 7.27812e-09 2.30798e-09 7.21928e-10 2.22577e-10 6.73529e-11 2.00483e-11 5.65612e-12 1.81221e-12 5.22407e-13 -5.92004e-13 -2.55886e-13 -5.6603e-13 -1.02245e-13 -2.05166e-13 -4.81041e-13 -2.21958e-13 -1.64425e-13 -3.74475e-13 3.27192e-13 -1.58488e-13 2.02398e-13 -9.77632e-15 -4.39482e-13 2.31591e-14 2.20686e-13 -2.08689e-13 -2.33309e-13 -1.88233e-13 2.25228e-14 -5.47889e-13 9.16967e-14 -1.69523e-14 -7.17212e-13 -2.36872e-14 4.02106e-14 -1.67894e-13 4.23214e-13 2.45934e-13 1.04173e-12 -2.09093e-13 -1.34876e-13 -5.59338e-13 6.84349e-13 2.35811e-13 0 0 -1.3498e-14 -1.11022e-14 -3.90476e-14 -1.04777e-14 -2.57935e-14 -4.82196e-14 -1.3531e-14 -3.33537e-14 1.99932e-14 -4.61882e-14 3.41326e-14 8.00796e-15 7.37593e-14 -3.87818e-14 -2.4289e-14 -1.2934e-14 -3.02379e-14 2.79002e-14 4.55205e-15 -4.74134e-14 -3.22537e-14 -8.23019e-14 -6.23023e-14 -1.30164e-13 -3.23884e-14 -1.56444e-13 -1.30984e-13 -7.14107e-14 -6.07079e-14 -8.75767e-14 -1.40103e-13 -1.24085e-13 -5.25524e-14 -2.14546e-13 -4.89032e-14 -5.04514e-14 -4.15442e-14 -9.65167e-14 5.6261e-14 -2.97573e-13 4.10875e-14 -1.12546e-13 5.95237e-14 4.562e-15 -1.64473e-13 -1.82116e-13 -1.86459e-13 3.5815e-15 2.52999e-14 -1.53006e-13 -1.1816e-13 -1.33595e-13 -3.38163e-14 -5.52278e-14 -1.20025e-13 -1.25142e-13 -1.24699e-13 6.52802e-15 2.14084e-14 4.31025e-13 3.04431e-12 2.64886e-11 2.16074e-10 1.64585e-09 1.16616e-08 7.64996e-08 4.62582e-07 2.5654e-06 1.29716e-05 5.93792e-05 0.00024398 0.000890416 0.00285012 0.00788998 0.0186552 0.0374781 0.0645426 0.097639 0.134027 0.171905 0.210399 0.249121 0.287894 0.326593 0.365039 0.403111 0.440732 0.477868 0.514508 0.550629 0.586193 0.621141 0.655383 0.688798 0.721224 0.752451 0.782216 0.810194 0.836013 0.859263 0.879545 0.896535 0.910064 0.920187 0.927197 0.931595 0.933985 0.93488 0.934853 0.93463 0.934303 0.93406 0.934143 0.934881 0.936706 0.939996 0.944833 0.952077 0.961569 0.958299 0.949594 0.940893 0.935127 0.931745 0.92982 0.928384 0.92667 0.923869 0.918791 0.909646 0.893722 0.867173 0.825143 0.762531 0.67564 0.564639 0.436151 0.304005 0.187401 0.100314 0.0465724 0.0192796 0.00743109 0.00275907 0.00100446 0.000361156 0.000128555 4.53228e-05 1.58223e-05 5.46684e-06 1.86847e-06 6.31374e-07 2.10827e-07 6.95356e-08 2.26444e-08 7.27833e-09 2.30814e-09 7.21879e-10 2.22579e-10 6.78198e-11 2.0225e-11 5.90529e-12 1.43564e-12 3.29137e-13 -6.61369e-14 -3.91756e-13 -2.54831e-13 -2.54161e-13 -5.7106e-13 -4.44268e-13 -2.4456e-13 -2.51061e-13 -2.15003e-13 -3.48606e-13 1.78453e-13 9.13601e-14 -2.00989e-13 4.29164e-14 1.51979e-13 -5.01851e-13 -1.43088e-13 -3.06217e-13 8.13121e-14 -7.71501e-14 -3.4855e-13 -2.81919e-13 -2.73424e-14 -2.38893e-13 -4.60287e-13 4.0926e-14 3.60557e-13 3.19447e-13 5.77118e-14 -1.53347e-13 -7.70456e-14 -3.20722e-13 7.24858e-13 -1.93552e-13 -2.44948e-13 0 0 -1.65175e-14 -2.04482e-14 -3.20932e-14 -2.31157e-14 -1.68379e-14 -4.92701e-14 -3.82878e-14 1.2389e-14 -9.12993e-15 -9.735e-15 1.58819e-14 -3.90619e-14 3.24841e-14 8.91475e-14 -3.48535e-14 2.33472e-14 4.36851e-14 -7.08894e-14 3.78128e-14 -3.31884e-14 -1.41261e-13 -2.99959e-14 -5.99474e-14 -6.70244e-14 -1.28526e-13 -6.94276e-14 -1.95895e-13 -7.72284e-14 -6.58774e-14 -8.94792e-14 -2.87452e-14 -4.24806e-14 -1.65067e-13 -1.76655e-13 -2.92458e-14 -4.94691e-14 -1.78726e-13 6.36658e-14 2.5851e-14 -1.76856e-13 -4.28396e-14 8.30451e-14 -8.90559e-14 -1.97343e-13 -3.42485e-14 -6.37717e-14 4.91093e-15 -8.41788e-14 9.19056e-15 2.90586e-14 -8.69238e-14 4.30478e-14 -1.94263e-13 -3.60326e-14 -6.28661e-14 -2.95597e-13 -5.60062e-14 -1.4677e-13 6.01119e-14 2.69824e-13 3.19398e-12 2.65033e-11 2.16053e-10 1.6462e-09 1.16615e-08 7.64994e-08 4.62582e-07 2.5654e-06 1.29716e-05 5.93792e-05 0.00024398 0.000890416 0.00285012 0.00788998 0.0186552 0.0374781 0.0645426 0.097639 0.134027 0.171905 0.210399 0.249121 0.287894 0.326593 0.365039 0.403111 0.440732 0.477868 0.514508 0.550629 0.586193 0.621141 0.655383 0.688798 0.721224 0.752451 0.782216 0.810194 0.836013 0.859263 0.879545 0.896535 0.910064 0.920187 0.927197 0.931595 0.933985 0.93488 0.934853 0.93463 0.934303 0.93406 0.934143 0.934881 0.936706 0.939996 0.944833 0.952077 0.961569 0.958299 0.949594 0.940893 0.935127 0.931745 0.92982 0.928384 0.92667 0.923869 0.918791 0.909646 0.893722 0.867173 0.825143 0.762531 0.67564 0.564639 0.436151 0.304005 0.187401 0.100314 0.0465724 0.0192796 0.00743109 0.00275907 0.00100446 0.000361156 0.000128555 4.53228e-05 1.58223e-05 5.46684e-06 1.86847e-06 6.31374e-07 2.10827e-07 6.95356e-08 2.26446e-08 7.27816e-09 2.30811e-09 7.22017e-10 2.22745e-10 6.79091e-11 2.04614e-11 5.6009e-12 1.65829e-12 -5.70529e-14 2.11644e-13 -1.72448e-14 -2.37482e-13 -9.38633e-13 -3.78588e-13 -4.78137e-13 -2.57478e-13 -1.36124e-13 -2.18486e-13 -1.68716e-13 -3.68355e-13 1.86296e-13 1.44302e-14 6.19754e-13 -2.32584e-13 -2.42564e-13 -4.93713e-13 -4.66467e-14 -4.99831e-13 -1.61505e-13 -3.74712e-14 -4.72288e-13 -4.2949e-13 4.16374e-13 3.42309e-13 7.61739e-16 -4.56404e-13 1.91019e-13 4.36885e-13 -3.83936e-13 3.20251e-13 3.68867e-13 -2.9795e-13 -6.53467e-13 4.60525e-13 0 0 -1.10732e-14 -2.3227e-14 3.99522e-15 -5.03392e-14 -4.33885e-14 -6.77561e-15 -3.65066e-14 1.84392e-14 -1.31422e-14 4.51047e-14 -4.7645e-14 7.73227e-14 -1.18276e-13 1.10375e-13 1.16689e-14 2.6871e-14 5.69441e-14 -8.16007e-14 -5.01858e-14 -9.71665e-14 -9.81187e-14 -3.9759e-14 -9.31996e-14 5.42528e-14 -1.46653e-13 -9.96169e-14 -4.78282e-14 -1.83575e-13 -8.74488e-14 -1.50422e-13 -6.9534e-14 -1.6682e-14 -2.0661e-13 6.67264e-14 -6.39777e-14 1.06608e-13 -3.03034e-14 1.17319e-13 -1.81279e-13 6.96438e-14 -2.27662e-13 -7.57939e-14 -6.53487e-14 -2.55634e-13 -1.49125e-13 -1.25858e-13 4.01804e-14 -1.75793e-13 -1.73405e-13 3.57398e-13 -1.55089e-14 -1.2235e-13 3.42697e-13 -1.43349e-13 -1.70039e-13 -1.11154e-13 -2.695e-13 -1.06062e-13 -5.95739e-14 6.36375e-13 3.20273e-12 2.65625e-11 2.16212e-10 1.64594e-09 1.16618e-08 7.64996e-08 4.62582e-07 2.5654e-06 1.29716e-05 5.93792e-05 0.00024398 0.000890416 0.00285012 0.00788998 0.0186552 0.0374781 0.0645426 0.097639 0.134027 0.171905 0.210399 0.249121 0.287894 0.326593 0.365039 0.403111 0.440732 0.477868 0.514508 0.550629 0.586193 0.621141 0.655383 0.688798 0.721224 0.752451 0.782216 0.810194 0.836013 0.859263 0.879545 0.896535 0.910064 0.920187 0.927197 0.931595 0.933985 0.93488 0.934853 0.93463 0.934303 0.93406 0.934143 0.934881 0.936706 0.939996 0.944833 0.952077 0.961569 0.958299 0.949594 0.940893 0.935127 0.931745 0.92982 0.928384 0.92667 0.923869 0.918791 0.909646 0.893722 0.867173 0.825143 0.762531 0.67564 0.564639 0.436151 0.304005 0.187401 0.100314 0.0465724 0.0192796 0.00743109 0.00275907 0.00100446 0.000361156 0.000128555 4.53228e-05 1.58223e-05 5.46684e-06 1.86847e-06 6.31375e-07 2.10827e-07 6.95363e-08 2.26442e-08 7.27804e-09 2.30812e-09 7.2214e-10 2.22649e-10 6.7788e-11 2.00252e-11 5.71302e-12 2.32793e-12 1.68648e-13 -7.65059e-13 -1.1365e-13 -2.8827e-13 -4.24452e-13 -3.84304e-14 -5.04293e-13 -4.31373e-13 -1.76248e-13 -2.70317e-13 2.75297e-13 -1.01767e-13 4.1118e-13 1.17773e-13 -2.98578e-13 -2.31019e-13 -6.86741e-14 6.85321e-14 -1.49888e-13 -6.33813e-13 -1.94513e-13 -5.61247e-13 -2.23756e-13 -2.27423e-13 -3.40401e-13 4.79866e-13 9.61671e-14 -3.41505e-13 5.30407e-13 -8.28827e-15 7.78889e-13 -4.03346e-13 1.29793e-13 -5.29215e-13 7.3636e-13 8.06355e-13 0 0 6.69929e-15 -2.44787e-15 -6.32751e-14 2.95223e-14 -2.53379e-14 -2.55739e-14 -6.07306e-14 -1.51486e-14 3.56163e-14 -7.58667e-14 8.67073e-14 -6.39516e-14 1.72788e-13 -1.26663e-13 6.016e-14 3.74948e-14 -1.29876e-13 9.06606e-14 -9.06623e-14 -1.03499e-13 -5.93316e-14 -1.57939e-13 5.10629e-15 -1.41903e-13 -8.53204e-15 -6.41458e-14 -8.85835e-14 2.11973e-14 -2.32862e-13 5.98628e-15 -4.00855e-13 -7.44437e-14 7.86783e-14 -7.18176e-15 1.63352e-13 1.0918e-13 1.95858e-13 -2.79238e-13 3.25045e-13 -2.72768e-13 -1.80948e-13 -3.05884e-13 -2.0975e-13 -3.93448e-14 -3.18706e-13 -1.75153e-13 -3.4228e-13 1.14417e-13 7.25667e-14 -5.98411e-14 1.6722e-13 2.95403e-13 -1.397e-13 1.05755e-13 -1.40176e-13 -1.50779e-13 -5.83589e-13 6.70424e-14 3.088e-13 7.46652e-13 3.21968e-12 2.66024e-11 2.16222e-10 1.64594e-09 1.16618e-08 7.64996e-08 4.62582e-07 2.5654e-06 1.29716e-05 5.93792e-05 0.00024398 0.000890416 0.00285012 0.00788998 0.0186552 0.0374781 0.0645426 0.097639 0.134027 0.171905 0.210399 0.249121 0.287894 0.326593 0.365039 0.403111 0.440732 0.477868 0.514508 0.550629 0.586193 0.621141 0.655383 0.688798 0.721224 0.752451 0.782216 0.810194 0.836013 0.859263 0.879545 0.896535 0.910064 0.920187 0.927197 0.931595 0.933985 0.93488 0.934853 0.93463 0.934303 0.93406 0.934143 0.934881 0.936706 0.939996 0.944833 0.952077 0.961569 0.958299 0.949594 0.940893 0.935127 0.931745 0.92982 0.928384 0.92667 0.923869 0.918791 0.909646 0.893722 0.867173 0.825143 0.762531 0.67564 0.564639 0.436151 0.304005 0.187401 0.100314 0.0465724 0.0192796 0.00743109 0.00275907 0.00100446 0.000361156 0.000128555 4.53228e-05 1.58223e-05 5.46684e-06 1.86847e-06 6.31374e-07 2.10827e-07 6.95359e-08 2.26449e-08 7.27806e-09 2.30819e-09 7.21792e-10 2.22146e-10 6.84388e-11 1.9874e-11 6.19683e-12 1.72485e-12 3.54192e-14 -6.4548e-13 -8.58772e-13 3.93388e-13 2.99939e-13 -7.24971e-13 -2.33441e-13 -6.34401e-13 -2.81285e-13 4.45669e-13 -1.10996e-12 1.93234e-12 5.90709e-14 -3.31497e-13 -3.75466e-13 -2.32693e-13 -1.28612e-12 1.08829e-12 -2.17876e-13 -4.86416e-13 -7.09661e-13 -2.57477e-13 -4.48614e-13 1.75507e-13 -2.25021e-13 -5.65671e-13 -3.92385e-13 1.51665e-12 5.69606e-13 -2.42819e-13 -2.83647e-13 -6.88439e-13 -6.74073e-13 2.35257e-12 8.70998e-14 -7.45536e-13 0
				</DataArray>
				<DataArray Name="VitesseY" type="Float32" format="ascii">