<?xml version="1.0"?>
<VTKFile type="PolyData">
	<PolyData>
		<Piece NumberOfPoints="1206" NumberOfPolys="1000">
			<Points>
				<DataArray type="Float32" NumberOfComponents="3" format="ascii">
 0 0 0 0.005 0 0 0.01 0 0 0.015 0 0 0.02 0 0 0.025 0 0 0.03 0 0 0.035 0 0 0.04 0 0 0.045 0 0 0.05 0 0 0.055 0 0 0.06 0 0 0.065 0 0 0.07 0 0 0.075 0 0 0.08 0 0 0.085 0 0 0.09 0 0 0.095 0 0 0.1 0 0 0.105 0 0 0.11 0 0 0.115 0 0 0.12 0 0 0.125 0 0 0.13 0 0 0.135 0 0 0.14 0 0 0.145 0 0 0.15 0 0 0.155 0 0 0.16 0 0 0.165 0 0 0.17 0 0 0.175 0 0 0.18 0 0 0.185 0 0 0.19 0 0 0.195 0 0 0.2 0 0 0.205 0 0 0.21 0 0 0.215 0 0 0.22 0 0 0.225 0 0 0.23 0 0 0.235 0 0 0.24 0 0 0.245 0 0 0.25 0 0 0.255 0 0 0.26 0 0 0.265 0 0 0.27 0 0 0.275 0 0 0.28 0 0 0.285 0 0 0.29 0 0 0.295 0 0 0.3 0 0 0.305 0 0 0.31 0 0 0.315 0 0 0.32 0 0 0.325 0 0 0.33 0 0 0.335 0 0 0.34 0 0 0.345 0 0 0.35 0 0 0.355 0 0 0.36 0 0 0.365 0 0 0.37 0 0 0.375 0 0 0.38 0 0 0.385 0 0 0.39 0 0 0.395 0 0 0.4 0 0 0.405 0 0 0.41 0 0 0.415 0 0 0.42 0 0 0.425 0 0 0.43 0 0 0.435 0 0 0.44 0 0 0.445 0 0 0.45 0 0 0.455 0 0 0.46 0 0 0.465 0 0 0.47 0 0 0.475 0 0 0.48 0 0 0.485 0 0 0.49 0 0 0.495 0 0 0.5 0 0 0.505 0 0 0.51 0 0 0.515 0 0 0.52 0 0 0.525 0 0 0.53 0 0 0.535 0 0 0.54 0 0 0.545 0 0 0.55 0 0 0.555 0 0 0.56 0 0 0.565 0 0 0.57 0 0 0.575 0 0 0.58 0 0 0.585 0 0 0.59 0 0 0.595 0 0 0.6 0 0 0.605 0 0 0.61 0 0 0.615 0 0 0.62 0 0 0.625 0 0 0.63 0 0 0.635 0 0 0.64 0 0 0.645 0 0 0.65 0 0 0.655 0 0 0.66 0 0 0.665 0 0 0.67 0 0 0.675 0 0 0.68 0 0 0.685 0 0 0.69 0 0 0.695 0 0 0.7 0 0 0.705 0 0 0.71 0 0 0.715 0 0 0.72 0 0 0.725 0 0 0.73 0 0 0.735 0 0 0.74 0 0 0.745 0 0 0.75 0 0 0.755 0 0 0.76 0 0 0.765 0 0 0.77 0 0 0.775 0 0 0.78 0 0 0.785 0 0 0.79 0 0 0.795 0 0 0.8 0 0 0.805 0 0 0.81 0 0 0.815 0 0 0.82 0 0 0.825 0 0 0.83 0 0 0.835 0 0 0.84 0 0 0.845 0 0 0.85 0 0 0.855 0 0 0.86 0 0 0.865 0 0 0.87 0 0 0.875 0 0 0.88 0 0 0.885 0 0 0.89 0 0 0.895 0 0 0.9 0 0 0.905 0 0 0.91 0 0 0.915 0 0 0.92 0 0 0.925 0 0 0.93 0 0 0.935 0 0 0.94 0 0 0.945 0 0 0.95 0 0 0.955 0 0 0.96 0 0 0.965 0 0 0.97 0 0 0.975 0 0 0.98 0 0 0.985 0 0 0.99 0 0 0.995 0 0 1 0 0 0 0.02 0 0.005 0.02 0 0.01 0.02 0 0.015 0.02 0 0.02 0.02 0 0.025 0.02 0 0.03 0.02 0 0.035 0.02 0 0.04 0.02 0 0.045 0.02 0 0.05 0.02 0 0.055 0.02 0 0.06 0.02 0 0.065 0.02 0 0.07 0.02 0 0.075 0.02 0 0.08 0.02 0 0.085 0.02 0 0.09 0.02 0 0.095 0.02 0 0.1 0.02 0 0.105 0.02 0 0.11 0.02 0 0.115 0.02 0 0.12 0.02 0 0.125 0.02 0 0.13 0.02 0 0.135 0.02 0 0.14 0.02 0 0.145 0.02 0 0.15 0.02 0 0.155 0.02 0 0.16 0.02 0 0.165 0.02 0 0.17 0.02 0 0.175 0.02 0 0.18 0.02 0 0.185 0.02 0 0.19 0.02 0 0.195 0.02 0 0.2 0.02 0 0.205 0.02 0 0.21 0.02 0 0.215 0.02 0 0.22 0.02 0 0.225 0.02 0 0.23 0.02 0 0.235 0.02 0 0.24 0.02 0 0.245 0.02 0 0.25 0.02 0 0.255 0.02 0 0.26 0.02 0 0.265 0.02 0 0.27 0.02 0 0.275 0.02 0 0.28 0.02 0 0.285 0.02 0 0.29 0.02 0 0.295 0.02 0 0.3 0.02 0 0.305 0.02 0 0.31 0.02 0 0.315 0.02 0 0.32 0.02 0 0.325 0.02 0 0.33 0.02 0 0.335 0.02 0 0.34 0.02 0 0.345 0.02 0 0.35 0.02 0 0.355 0.02 0 0.36 0.02 0 0.365 0.02 0 0.37 0.02 0 0.375 0.02 0 0.38 0.02 0 0.385 0.02 0 0.39 0.02 0 0.395 0.02 0 0.4 0.02 0 0.405 0.02 0 0.41 0.02 0 0.415 0.02 0 0.42 0.02 0 0.425 0.02 0 0.43 0.02 0 0.435 0.02 0 0.44 0.02 0 0.445 0.02 0 0.45 0.02 0 0.455 0.02 0 0.46 0.02 0 0.465 0.02 0 0.47 0.02 0 0.475 0.02 0 0.48 0.02 0 0.485 0.02 0 0.49 0.02 0 0.495 0.02 0 0.5 0.02 0 0.505 0.02 0 0.51 0.02 0 0.515 0.02 0 0.52 0.02 0 0.525 0.02 0 0.53 0.02 0 0.535 0.02 0 0.54 0.02 0 0.545 0.02 0 0.55 0.02 0 0.555 0.02 0 0.56 0.02 0 0.565 0.02 0 0.57 0.02 0 0.575 0.02 0 0.58 0.02 0 0.585 0.02 0 0.59 0.02 0 0.595 0.02 0 0.6 0.02 0 0.605 0.02 0 0.61 0.02 0 0.615 0.02 0 0.62 0.02 0 0.625 0.02 0 0.63 0.02 0 0.635 0.02 0 0.64 0.02 0 0.645 0.02 0 0.65 0.02 0 0.655 0.02 0 0.66 0.02 0 0.665 0.02 0 0.67 0.02 0 0.675 0.02 0 0.68 0.02 0 0.685 0.02 0 0.69 0.02 0 0.695 0.02 0 0.7 0.02 0 0.705 0.02 0 0.71 0.02 0 0.715 0.02 0 0.72 0.02 0 0.725 0.02 0 0.73 0.02 0 0.735 0.02 0 0.74 0.02 0 0.745 0.02 0 0.75 0.02 0 0.755 0.02 0 0.76 0.02 0 0.765 0.02 0 0.77 0.02 0 0.775 0.02 0 0.78 0.02 0 0.785 0.02 0 0.79 0.02 0 0.795 0.02 0 0.8 0.02 0 0.805 0.02 0 0.81 0.02 0 0.815 0.02 0 0.82 0.02 0 0.825 0.02 0 0.83 0.02 0 0.835 0.02 0 0.84 0.02 0 0.845 0.02 0 0.85 0.02 0 0.855 0.02 0 0.86 0.02 0 0.865 0.02 0 0.87 0.02 0 0.875 0.02 0 0.88 0.02 0 0.885 0.02 0 0.89 0.02 0 0.895 0.02 0 0.9 0.02 0 0.905 0.02 0 0.91 0.02 0 0.915 0.02 0 0.92 0.02 0 0.925 0.02 0 0.93 0.02 0 0.935 0.02 0 0.94 0.02 0 0.945 0.02 0 0.95 0.02 0 0.955 0.02 0 0.96 0.02 0 0.965 0.02 0 0.97 0.02 0 0.975 0.02 0 0.98 0.02 0 0.985 0.02 0 0.99 0.02 0 0.995 0.02 0 1 0.02 0 0 0.04 0 0.005 0.04 0 0.01 0.04 0 0.015 0.04 0 0.02 0.04 0 0.025 0.04 0 0.03 0.04 0 0.035 0.04 0 0.04 0.04 0 0.045 0.04 0 0.05 0.04 0 0.055 0.04 0 0.06 0.04 0 0.065 0.04 0 0.07 0.04 0 0.075 0.04 0 0.08 0.04 0 0.085 0.04 0 0.09 0.04 0 0.095 0.04 0 0.1 0.04 0 0.105 0.04 0 0.11 0.04 0 0.115 0.04 0 0.12 0.04 0 0.125 0.04 0 0.13 0.04 0 0.135 0.04 0 0.14 0.04 0 0.145 0.04 0 0.15 0.04 0 0.155 0.04 0 0.16 0.04 0 0.165 0.04 0 0.17 0.04 0 0.175 0.04 0 0.18 0.04 0 0.185 0.04 0 0.19 0.04 0 0.195 0.04 0 0.2 0.04 0 0.205 0.04 0 0.21 0.04 0 0.215 0.04 0 0.22 0.04 0 0.225 0.04 0 0.23 0.04 0 0.235 0.04 0 0.24 0.04 0 0.245 0.04 0 0.25 0.04 0 0.255 0.04 0 0.26 0.04 0 0.265 0.04 0 0.27 0.04 0 0.275 0.04 0 0.28 0.04 0 0.285 0.04 0 0.29 0.04 0 0.295 0.04 0 0.3 0.04 0 0.305 0.04 0 0.31 0.04 0 0.315 0.04 0 0.32 0.04 0 0.325 0.04 0 0.33 0.04 0 0.335 0.04 0 0.34 0.04 0 0.345 0.04 0 0.35 0.04 0 0.355 0.04 0 0.36 0.04 0 0.365 0.04 0 0.37 0.04 0 0.375 0.04 0 0.38 0.04 0 0.385 0.04 0 0.39 0.04 0 0.395 0.04 0 0.4 0.04 0 0.405 0.04 0 0.41 0.04 0 0.415 0.04 0 0.42 0.04 0 0.425 0.04 0 0.43 0.04 0 0.435 0.04 0 0.44 0.04 0 0.445 0.04 0 0.45 0.04 0 0.455 0.04 0 0.46 0.04 0 0.465 0.04 0 0.47 0.04 0 0.475 0.04 0 0.48 0.04 0 0.485 0.04 0 0.49 0.04 0 0.495 0.04 0 0.5 0.04 0 0.505 0.04 0 0.51 0.04 0 0.515 0.04 0 0.52 0.04 0 0.525 0.04 0 0.53 0.04 0 0.535 0.04 0 0.54 0.04 0 0.545 0.04 0 0.55 0.04 0 0.555 0.04 0 0.56 0.04 0 0.565 0.04 0 0.57 0.04 0 0.575 0.04 0 0.58 0.04 0 0.585 0.04 0 0.59 0.04 0 0.595 0.04 0 0.6 0.04 0 0.605 0.04 0 0.61 0.04 0 0.615 0.04 0 0.62 0.04 0 0.625 0.04 0 0.63 0.04 0 0.635 0.04 0 0.64 0.04 0 0.645 0.04 0 0.65 0.04 0 0.655 0.04 0 0.66 0.04 0 0.665 0.04 0 0.67 0.04 0 0.675 0.04 0 0.68 0.04 0 0.685 0.04 0 0.69 0.04 0 0.695 0.04 0 0.7 0.04 0 0.705 0.04 0 0.71 0.04 0 0.715 0.04 0 0.72 0.04 0 0.725 0.04 0 0.73 0.04 0 0.735 0.04 0 0.74 0.04 0 0.745 0.04 0 0.75 0.04 0 0.755 0.04 0 0.76 0.04 0 0.765 0.04 0 0.77 0.04 0 0.775 0.04 0 0.78 0.04 0 0.785 0.04 0 0.79 0.04 0 0.795 0.04 0 0.8 0.04 0 0.805 0.04 0 0.81 0.04 0 0.815 0.04 0 0.82 0.04 0 0.825 0.04 0 0.83 0.04 0 0.835 0.04 0 0.84 0.04 0 0.845 0.04 0 0.85 0.04 0 0.855 0.04 0 0.86 0.04 0 0.865 0.04 0 0.87 0.04 0 0.875 0.04 0 0.88 0.04 0 0.885 0.04 0 0.89 0.04 0 0.895 0.04 0 0.9 0.04 0 0.905 0.04 0 0.91 0.04 0 0.915 0.04 0 0.92 0.04 0 0.925 0.04 0 0.93 0.04 0 0.935 0.04 0 0.94 0.04 0 0.945 0.04 0 0.95 0.04 0 0.955 0.04 0 0.96 0.04 0 0.965 0.04 0 0.97 0.04 0 0.975 0.04 0 0.98 0.04 0 0.985 0.04 0 0.99 0.04 0 0.995 0.04 0 1 0.04 0 0 0.06 0 0.005 0.06 0 0.01 0.06 0 0.015 0.06 0 0.02 0.06 0 0.025 0.06 0 0.03 0.06 0 0.035 0.06 0 0.04 0.06 0 0.045 0.06 0 0.05 0.06 0 0.055 0.06 0 0.06 0.06 0 0.065 0.06 0 0.07 0.06 0 0.075 0.06 0 0.08 0.06 0 0.085 0.06 0 0.09 0.06 0 0.095 0.06 0 0.1 0.06 0 0.105 0.06 0 0.11 0.06 0 0.115 0.06 0 0.12 0.06 0 0.125 0.06 0 0.13 0.06 0 0.135 0.06 0 0.14 0.06 0 0.145 0.06 0 0.15 0.06 0 0.155 0.06 0 0.16 0.06 0 0.165 0.06 0 0.17 0.06 0 0.175 0.06 0 0.18 0.06 0 0.185 0.06 0 0.19 0.06 0 0.195 0.06 0 0.2 0.06 0 0.205 0.06 0 0.21 0.06 0 0.215 0.06 0 0.22 0.06 0 0.225 0.06 0 0.23 0.06 0 0.235 0.06 0 0.24 0.06 0 0.245 0.06 0 0.25 0.06 0 0.255 0.06 0 0.26 0.06 0 0.265 0.06 0 0.27 0.06 0 0.275 0.06 0 0.28 0.06 0 0.285 0.06 0 0.29 0.06 0 0.295 0.06 0 0.3 0.06 0 0.305 0.06 0 0.31 0.06 0 0.315 0.06 0 0.32 0.06 0 0.325 0.06 0 0.33 0.06 0 0.335 0.06 0 0.34 0.06 0 0.345 0.06 0 0.35 0.06 0 0.355 0.06 0 0.36 0.06 0 0.365 0.06 0 0.37 0.06 0 0.375 0.06 0 0.38 0.06 0 0.385 0.06 0 0.39 0.06 0 0.395 0.06 0 0.4 0.06 0 0.405 0.06 0 0.41 0.06 0 0.415 0.06 0 0.42 0.06 0 0.425 0.06 0 0.43 0.06 0 0.435 0.06 0 0.44 0.06 0 0.445 0.06 0 0.45 0.06 0 0.455 0.06 0 0.46 0.06 0 0.465 0.06 0 0.47 0.06 0 0.475 0.06 0 0.48 0.06 0 0.485 0.06 0 0.49 0.06 0 0.495 0.06 0 0.5 0.06 0 0.505 0.06 0 0.51 0.06 0 0.515 0.06 0 0.52 0.06 0 0.525 0.06 0 0.53 0.06 0 0.535 0.06 0 0.54 0.06 0 0.545 0.06 0 0.55 0.06 0 0.555 0.06 0 0.56 0.06 0 0.565 0.06 0 0.57 0.06 0 0.575 0.06 0 0.58 0.06 0 0.585 0.06 0 0.59 0.06 0 0.595 0.06 0 0.6 0.06 0 0.605 0.06 0 0.61 0.06 0 0.615 0.06 0 0.62 0.06 0 0.625 0.06 0 0.63 0.06 0 0.635 0.06 0 0.64 0.06 0 0.645 0.06 0 0.65 0.06 0 0.655 0.06 0 0.66 0.06 0 0.665 0.06 0 0.67 0.06 0 0.675 0.06 0 0.68 0.06 0 0.685 0.06 0 0.69 0.06 0 0.695 0.06 0 0.7 0.06 0 0.705 0.06 0 0.71 0.06 0 0.715 0.06 0 0.72 0.06 0 0.725 0.06 0 0.73 0.06 0 0.735 0.06 0 0.74 0.06 0 0.745 0.06 0 0.75 0.06 0 0.755 0.06 0 0.76 0.06 0 0.765 0.06 0 0.77 0.06 0 0.775 0.06 0 0.78 0.06 0 0.785 0.06 0 0.79 0.06 0 0.795 0.06 0 0.8 0.06 0 0.805 0.06 0 0.81 0.06 0 0.815 0.06 0 0.82 0.06 0 0.825 0.06 0 0.83 0.06 0 0.835 0.06 0 0.84 0.06 0 0.845 0.06 0 0.85 0.06 0 0.855 0.06 0 0.86 0.06 0 0.865 0.06 0 0.87 0.06 0 0.875 0.06 0 0.88 0.06 0 0.885 0.06 0 0.89 0.06 0 0.895 0.06 0 0.9 0.06 0 0.905 0.06 0 0.91 0.06 0 0.915 0.06 0 0.92 0.06 0 0.925 0.06 0 0.93 0.06 0 0.935 0.06 0 0.94 0.06 0 0.945 0.06 0 0.95 0.06 0 0.955 0.06 0 0.96 0.06 0 0.965 0.06 0 0.97 0.06 0 0.975 0.06 0 0.98 0.06 0 0.985 0.06 0 0.99 0.06 0 0.995 0.06 0 1 0.06 0 0 0.08 0 0.005 0.08 0 0.01 0.08 0 0.015 0.08 0 0.02 0.08 0 0.025 0.08 0 0.03 0.08 0 0.035 0.08 0 0.04 0.08 0 0.045 0.08 0 0.05 0.08 0 0.055 0.08 0 0.06 0.08 0 0.065 0.08 0 0.07 0.08 0 0.075 0.08 0 0.08 0.08 0 0.085 0.08 0 0.09 0.08 0 0.095 0.08 0 0.1 0.08 0 0.105 0.08 0 0.11 0.08 0 0.115 0.08 0 0.12 0.08 0 0.125 0.08 0 0.13 0.08 0 0.135 0.08 0 0.14 0.08 0 0.145 0.08 0 0.15 0.08 0 0.155 0.08 0 0.16 0.08 0 0.165 0.08 0
[...]
			<PointData Scalars="VitesseX">
				<DataArray Name="VitesseX" type="Float32" format="ascii">
 0 3.10645e-15 1.20897e-14 1.6729e-14 -2.01646e-14 2.05276e-14 4.26174e-14 -2.77392e-14 -1.03754e-14 -7.75838e-14 4.57789e-14 -7.07213e-14 9.24277e-14 -1.08064e-13 1.40731e-14 2.86096e-14 -1.34727e-13 -5.12537e-14 -8.85232e-14 -6.75107e-14 -1.99355e-14 -9.9717e-14 -2.15134e-13 -1.14114e-14 7.10927e-14 -8.36146e-14 -2.35635e-13 -6.47976e-14 -7.16393e-14 2.06293e-14 -1.27334e-13 -2.43203e-14 -1.36214e-13 -1.01383e-13 5.11004e-14 -2.41962e-13 -6.65141e-14 -1.61305e-13 -1.91529e-14 -3.18535e-13 -1.52186e-13 3.74403e-14 2.13562e-14 1.18431e-13 7.48975e-14 -1.6649e-13 5.68327e-14 -5.08476e-14 9.89166e-14 -8.81163e-14 -2.08633e-13 -3.47082e-13 -3.57031e-13 2.48668e-13 -2.23199e-14 -5.08601e-14 -6.36056e-14 -3.31544e-13 1.03555e-13 -1.92718e-13 3.19356e-14 -2.41054e-13 -1.20681e-13 -3.12344e-13 -2.28527e-13 1.28546e-13 6.82183e-13 5.14187e-12 4.99811e-11 4.62747e-10 3.9835e-09 3.14902e-08 2.27456e-07 1.4926e-06 8.83745e-06 4.68238e-05 0.00021977 0.00090233 0.00319112 0.00955115 0.023811 0.0491483 0.0851361 0.128032 0.174164 0.221549 0.269332 0.31715 0.364658 0.411467 0.457392 0.502405 0.54651 0.589649 0.631722 0.672556 0.71191 0.749451 0.784756 0.817303 0.846509 0.871788 0.89266 0.908893 0.92063 0.928378 0.932944 0.935247 0.936164 0.936537 0.937095 0.938466 0.941416 0.94649 0.954149 0.96709 0.964571 0.954202 0.943138 0.935795 0.931078 0.926943 0.921564 0.912551 0.896686 0.869701 0.826358 0.761307 0.670899 0.55583 0.42379 0.289995 0.174423 0.0904769 0.0405291 0.0161861 0.00602669 0.00216077 0.000757793 0.000261505 8.89495e-05 2.98263e-05 9.85552e-06 3.20741e-06 1.02753e-06 3.23894e-07 1.00414e-07 3.06084e-08 9.16973e-09 2.69969e-09 7.81411e-10 2.20926e-10 6.2211e-11 1.58794e-11 4.7838e-12 6.78477e-13 2.82418e-13 1.68413e-13 -3.1328e-13 -1.60926e-13 7.54499e-14 -8.06656e-14 1.21428e-13 -3.03462e-13 6.99487e-13 -2.61951e-13 -6.64408e-13 -4.66628e-13 -4.78752e-13 1.03358e-12 -1.5414e-13 -4.18412e-13 -2.38823e-13 -7.13166e-13 4.41771e-13 -7.69552e-13 -2.6099e-13 4.92341e-13 -2.86313e-13 4.86805e-13 -7.16595e-14 -6.11654e-13 6.95673e-13 -1.00428e-13 3.82853e-13 -1.37732e-12 -1.46263e-13 2.90548e-13 -1.98218e-13 -2.91384e-13 -3.53721e-13 -5.98711e-13 7.76951e-13 -9.09836e-13 -1.06514e-13 -1.83953e-13 -6.34416e-14 7.4746e-13 -6.28213e-14 2.58158e-13 0 0 1.1961e-14 1.68223e-14 1.12978e-14 2.38411e-14 2.26166e-14 -2.44824e-14 -9.15186e-15 -1.88709e-14 2.30462e-15 -8.9011e-14 7.98507e-15 -6.20545e-14 5.33967e-14 -6.83783e-14 -3.07219e-14 5.91739e-14 -1.30609e-13 -4.70721e-14 -5.50244e-14 -1.13733e-13 -3.85425e-14 4.86941e-14 -1.38163e-13 -2.09258e-13 -8.65749e-14 6.27919e-14 -6.91862e-14 -1.14967e-13 -1.03181e-13 4.03504e-15 -8.60297e-14 -7.24006e-14 -1.31737e-13 -1.84947e-13 -7.51753e-14 -5.83476e-14 -8.5458e-14 -1.79398e-13 -2.83624e-14 -6.36565e-14 -1.01001e-13 7.76168e-14 -1.32572e-13 4.84336e-15 9.05567e-14 -1.32854e-13 5.75542e-14 -1.11984e-13 -1.91148e-13 -2.52877e-13 -5.85025e-14 1.16753e-13 -3.74928e-13 -1.9543e-13 4.68057e-14 -2.53936e-14 -1.05963e-13 -1.24196e-13 9.50064e-14 -1.25159e-13 -9.06222e-14 -1.96706e-13 -1.41118e-13 -2.10285e-15 8.74772e-14 4.58607e-13 5.07714e-12 4.96632e-11 4.63131e-10 3.98376e-09 3.14898e-08 2.27455e-07 1.4926e-06 8.83745e-06 4.68238e-05 0.00021977 0.00090233 0.00319112 0.00955115 0.023811 0.0491483 0.0851361 0.128032 0.174164 0.221549 0.269332 0.31715 0.364658 0.411467 0.457392 0.502405 0.54651 0.589649 0.631722 0.672556 0.71191 0.749451 0.784756 0.817303 0.846509 0.871788 0.89266 0.908893 0.92063 0.928378 0.932944 0.935247 0.936164 0.936537 0.937095 0.938466 0.941416 0.94649 0.954149 0.96709 0.964571 0.954202 0.943138 0.935795 0.931078 0.926943 0.921564 0.912551 0.896686 0.869701 0.826358 0.761307 0.670899 0.55583 0.42379 0.289995 0.174423 0.0904769 0.0405291 0.0161861 0.00602669 0.00216077 0.000757793 0.000261505 8.89495e-05 2.98263e-05 9.85552e-06 3.20741e-06 1.02753e-06 3.23894e-07 1.00415e-07 3.06071e-08 9.1705e-09 2.69986e-09 7.80375e-10 2.22257e-10 6.10477e-11 1.72045e-11 3.89115e-12 1.32333e-12 -2.97404e-13 -2.15045e-13 8.5442e-14 1.10389e-13 1.96342e-13 -4.12634e-13 -2.01503e-13 1.37915e-13 -7.34901e-13 3.44911e-13 -1.85928e-13 4.3182e-15 -2.62832e-15 -5.1235e-13 -1.636e-13 -2.83568e-13 -3.61501e-14 1.22413e-13 -7.94968e-13 2.68626e-13 -2.17813e-13 -5.08732e-13 7.22915e-13 -6.3217e-13 2.26474e-13 2.39606e-13 -2.91241e-13 2.47746e-13 -3.46233e-13 2.43176e-13 -2.98663e-13 -4.39347e-13 1.12461e-13 -5.20721e-13 -1.32012e-13 5.73965e-14 -7.47547e-13 2.42511e-13 -2.5709e-13 -3.69636e-15 5.51274e-13 -2.79203e-13 5.4835e-13 5.87052e-13 0 0 -1.24679e-14 3.91728e-15 2.47451e-14 8.20634e-15 -1.50978e-15 2.05719e-14 -2.43228e-14 5.23631e-15 -1.2158e-14 -3.33796e-14 -4.90003e-14 -1.42081e-14 -2.65517e-14 -2.74848e-14 -5.13352e-14 -2.2501e-14 -1.11656e-14 8.31972e-15 -1.01565e-13 -2.25611e-14 -7.34499e-15 -7.31425e-14 -3.44854e-14 -7.06337e-14 -9.30235e-14 -7.97089e-14 1.54857e-14 -1.50882e-13 -5.60364e-14 -1.37783e-13 -3.78502e-14 -1.00882e-13 -7.86737e-14 -1.8473e-13 -1.08148e-13 -1.35213e-13 -3.22722e-14 -8.11821e-14 -7.35542e-14 3.0165e-14 3.1433e-15 -6.20795e-14 -3.37691e-14 -6.65501e-14 -2.07079e-13 9.5923e-14 -1.39653e-13 -1.076e-13 -1.61729e-13 -1.77169e-13 1.10764e-14 -3.19591e-13 8.20762e-14 -7.65026e-14 -2.66611e-13 -1.57527e-13 -1.75849e-14 1.07424e-13 4.97207e-14 1.07132e-13 -1.49643e-13 4.8967e-14 -1.24619e-13 -6.50984e-14 -2.11712e-14 4.96452e-13 4.9878e-12 4.9697e-11 4.63097e-10 3.98398e-09 3.14897e-08 2.27455e-07 1.4926e-06 8.83745e-06 4.68238e-05 0.00021977 0.00090233 0.00319112 0.00955115 0.023811 0.0491483 0.0851361 0.128032 0.174164 0.221549 0.269332 0.31715 0.364658 0.411467 0.457392 0.502405 0.54651 0.589649 0.631722 0.672556 0.71191 0.749451 0.784756 0.817303 0.846509 0.871788 0.89266 0.908893 0.92063 0.928378 0.932944 0.935247 0.936164 0.936537 0.937095 0.938466 0.941416 0.94649 0.954149 0.96709 0.964571 0.954202 0.943138 0.935795 0.931078 0.926943 0.921564 0.912551 0.896686 0.869701 0.826358 0.761307 0.670899 0.55583 0.42379 0.289995 0.174423 0.0904769 0.0405291 0.0161861 0.00602669 0.00216077 0.000757793 0.000261505 8.89495e-05 2.98263e-05 9.85552e-06 3.20741e-06 1.02753e-06 3.23894e-07 1.00414e-07 3.06079e-08 9.16995e-09 2.69973e-09 7.80814e-10 2.21354e-10 6.20192e-11 1.67752e-11 4.59725e-12 4.7509e-13 -1.94121e-14 -2.16431e-13 2.10356e-13 2.35682e-13 -3.81534e-13 -1.07252e-13 -1.37457e-13 -2.51192e-13 -1.69854e-13 -3.58685e-13 -2.19523e-13 -1.16652e-13 2.38801e-13 -4.91943e-13 -1.50475e-13 4.1999e-14 -2.62395e-13 -2.75807e-13 -4.01202e-13 -2.1397e-13 1.04963e-13 -3.55857e-13 -1.83313e-13 3.48057e-13 1.07104e-13 2.0078e-13 2.0904e-13 -3.64938e-13 -1.913e-14 1.55386e-13 1.87101e-14 -2.64433e-13 -1.08819e-12 5.65439e-13 -4.48063e-13 -6.27789e-13 6.19365e-14 -3.29296e-14 3.83084e-13 5.71447e-13 -3.30696e-13 -2.13428e-14 2.40838e-13 5.31581e-13 0 0 -2.14105e-15 -1.48262e-14 -1.21666e-14 -3.31363e-14 5.24578e-15 2.74703e-14 -3.32715e-14 -2.10425e-14 9.04815e-15 5.27559e-15 1.63839e-14 2.58865e-14 -5.21128e-14 -3.39352e-14 -5.95624e-14 -9.28007e-14 1.47388e-14 -4.041e-14 -4.87488e-15 -1.84398e-14 -4.00965e-14 5.38837e-16 1.03e-14 -3.13429e-14 -3.46507e-14 -1.2115e-13 -5.03452e-14 -4.22829e-14 -1.27108e-13 -1.33217e-13 -1.75732e-13 -1.21603e-13 -1.08774e-13 4.57012e-14 -1.74829e-13 -1.57446e-13 -9.65551e-14 4.26959e-14 -1.77292e-13 -1.01359e-13 -2.41529e-14 3.56356e-14 5.53866e-14 3.72592e-14 -1.72967e-14 -1.72972e-13 -6.80125e-15 -1.64293e-13 -8.99675e-14 -1.00152e-13 -3.48338e-13 -5.56964e-14 4.67191e-14 1.19012e-13 -2.35188e-13 -4.11681e-14 -2.55391e-13 1.49909e-13 1.84635e-13 -9.02037e-14 9.99398e-14 -1.68789e-13 -2.55088e-13 -1.85965e-13 -1.56535e-14 7.05251e-13 4.97871e-12 4.9844e-11 4.63142e-10 3.98398e-09 3.14899e-08 2.27455e-07 1.4926e-06 8.83745e-06 4.68238e-05 0.00021977 0.00090233 0.00319112 0.00955115 0.023811 0.0491483 0.0851361 0.128032 0.174164 0.221549 0.269332 0.31715 0.364658 0.411467 0.457392 0.502405 0.54651 0.589649 0.631722 0.672556 0.71191 0.749451 0.784756 0.817303 0.846509 0.871788 0.89266 0.908893 0.92063 0.928378 0.932944 0.935247 0.936164 0.936537 0.937095 0.938466 0.941416 0.94649 0.954149 0.96709 0.964571 0.954202 0.943138 0.935795 0.931078 0.926943 0.921564 0.912551 0.896686 0.869701 0.826358 0.761307 0.670899 0.55583 0.42379 0.289995 0.174423 0.0904769 0.0405291 0.0161861 0.00602669 0.00216077 0.000757793 0.000261505 8.89495e-05 2.98263e-05 9.85552e-06 3.20741e-06 1.02753e-06 3.23894e-07 1.00414e-07 3.06078e-08 9.16993e-09 2.69958e-09 7.8092e-10 2.21583e-10 6.2298e-11 1.64527e-11 4.54517e-12 1.1635e-12 6.70112e-14 -1.96605e-13 1.25298e-13 -2.68144e-13 -4.11296e-14 5.82723e-14 -4.16823e-14 2.11852e-13 -4.34663e-14 -7.97149e-13 1.14001e-13 -1.69017e-13 -1.50607e-13 4.76965e-14 -2.15469e-13 -3.20082e-13 -3.64521e-13 -5.028e-13 1.36132e-13 -6.5909e-13 -6.33634e-13 5.42512e-13 -7.6838e-14 4.43647e-13 -1.83851e-13 -2.51985e-13 4.48821e-14 -2.08422e-13 5.8376e-13 -3.59154e-13 -1.45023e-13 -1.58885e-13 -5.36347e-13 -5.14611e-13 -2.99331e-13 -7.78e-13 2.13936e-13 -2.62549e-13 5.30088e-13 -1.01769e-13 -5.32907e-13 2.20246e-13 2.71133e-13 -3.77948e-13 0 0 1.98122e-15 -2.50212e-14 -4.81929e-14 -1.16455e-14 -1.15494e-14 -3.94552e-14 6.71717e-15 -1.90083e-14 2.12678e-14 -4.76938e-14 4.14892e-14 -5.69494e-14 7.11292e-14 -3.36704e-14 -2.89703e-14 4.6319e-14 -6.49035e-14 1.40377e-14 2.63823e-14 -4.10507e-14 -2.5974e-14 9.03484e-14 -1.31346e-13 -2.12713e-13 -4.09182e-14 -4.29325e-14 -1.19573e-13 -1.40033e-13 -9.33316e-14 -1.81557e-14 -1.7234e-13 -2.09669e-14 -7.96998e-14 -9.09981e-14 -2.35344e-14 4.56739e-15 -1.6191e-13 -1.84793e-13 -5.96835e-16 -1.40811e-13 -1.9168e-13 8.25203e-14 5.45356e-14 4.81062e-14 2.65599e-13 -1.55339e-13 4.60759e-14 -1.94983e-13 -8.49955e-14 -1.38953e-13 -2.78875e-13 2.80563e-13 -3.99156e-13 -1.09176e-13 1.05506e-13 1.58157e-13 -9.94339e-14 -8.44293e-14 9.60054e-14 -2.46743e-13 -1.05014e-13 -3.56227e-13 -1.59148e-13 -1.16712e-13 3.56477e-14 7.30221e-13 5.21491e-12 4.98596e-11 4.63444e-10 3.98387e-09 3.14897e-08 2.27455e-07 1.4926e-06 8.83745e-06 4.68238e-05 0.00021977 0.00090233 0.00319112 0.00955115 0.023811 0.0491483 0.0851361 0.128032 0.174164 0.221549 0.269332 0.31715 0.364658 0.411467 0.457392 0.502405 0.54651 0.589649 0.631722 0.672556 0.71191 0.749451 0.784756 0.817303 0.846509 0.871788 0.89266 0.908893 0.92063 0.928378 0.932944 0.935247 0.936164 0.936537 0.937095 0.938466 0.941416 0.94649 0.954149 0.96709 0.964571 0.954202 0.943138 0.935795 0.931078 0.926943 0.921564 0.912551 0.896686 0.869701 0.826358 0.761307 0.670899 0.55583 0.42379 0.289995 0.174423 0.0904769 0.0405291 0.0161861 0.00602669 0.00216077 0.000757793 0.000261505 8.89495e-05 2.98263e-05 9.85552e-06 3.20741e-06 1.02753e-06 3.23894e-07 1.00415e-07 3.06069e-08 9.17071e-09 2.69967e-09 7.8032e-10 2.22431e-10 6.10509e-11 1.70592e-11 3.99384e-12 1.8506e-12 1.83803e-13 -7.21924e-13 6.40322e-13 6.89327e-13 1.40206e-13 -4.60252e-13 -2.90684e-13 1.33862e-13 -3.24127e-13 8.00472e-14 3.66325e-14 6.69473e-14 -2.34631e-13 -1.386e-13 -1.89095e-13 -5.65559e-13 -2.83699e-13 -8.82164e-14 -6.10569e-13 -1.75239e-13 -6.31706e-13 2.45783e-15 4.8889e-13 -4.00901e-13 -1.39337e-13 -2.28526e-13 -7.73016e-13 2.20642e-13 1.5939e-13 5.375e-13 -1.759e-13 -5.85484e-13 3.12461e-13 -1.23143e-12 5.11835e-16 -1.5263e-13 -6.09035e-13 5.86504e-13 1.83321e-13 -2.62963e-13 2.5293e-13 -1.70928e-13 2.74615e-13 -5.7496e-13 0 0 -3.75067e-14 -3.41103e-14 -2.84289e-14 -8.45251e-15 -6.13156e-14 -1.12494e-15 2.18962e-14 4.19076e-14 -8.20696e-14 5.11031e-14 -1.34481e-13 2.24485e-14 -2.14766e-14 9.63895e-14 4.8567e-14 -1.98378e-14 2.83476e-14 1.31156e-13 -9.80769e-14 1.17186e-13 -9.07697e-15 -2.79188e-13 -8.73488e-14 -1.43994e-14 -1.09047e-13 -3.64202e-13 -3.39086e-14 -3.3897e-13 1.82473e-13 -1.80847e-13 7.88223e-14 8.09515e-15 6.28933e-14 -2.21865e-13 -5.31927e-15 1.03782e-13 -1.85644e-13 -2.777e-13 -5.5528e-14 -4.34476e-14 -8.9326e-14 -1.64267e-13 3.14335e-13 -4.61955e-14 -1.9597e-13 5.49653e-13 -3.39508e-13 4.63059e-14 -1.93346e-14 -1.3482e-13 -6.89979e-14 -5.57203e-13 2.70925e-13 -2.40841e-13 3.69466e-15 7.0779e-14 1.57127e-13 9.81191e-14 -4.60548e-13 1.8344e-13 -7.69004e-13 -4.21044e-15 -8.74674e-14 -2.16012e-13 1.38519e-14 8.07814e-13 5.43559e-12 5.00801e-11 4.63284e-10 3.9837e-09 3.14898e-08 2.27455e-07 1.4926e-06 8.83745e-06 4.68238e-05 0.00021977 0.00090233 0.00319112 0.00955115 0.023811 0.0491483 0.0851361 0.128032 0.174164 0.221549 0.269332 0.31715 0.364658 0.411467 0.457392 0.502405 0.54651 0.589649 0.631722 0.672556 0.71191 0.749451 0.784756 0.817303 0.846509 0.871788 0.89266 0.908893 0.92063 0.928378 0.932944 0.935247 0.936164 0.936537 0.937095 0.938466 0.941416 0.94649 0.954149 0.96709 0.964571 0.954202 0.943138 0.935795 0.931078 0.926943 0.921564 0.912551 0.896686 0.869701 0.826358 0.761307 0.670899 0.55583 0.42379 0.289995 0.174423 0.0904769 0.0405291 0.0161861 0.00602669 0.00216077 0.000757793 0.000261505 8.89495e-05 2.98263e-05 9.85552e-06 3.20741e-06 1.02753e-06 3.23894e-07 1.00415e-07 3.06083e-08 9.17018e-09 2.69961e-09 7.81092e-10 2.20816e-10 6.16598e-11 1.62336e-11 5.09332e-12 3.56202e-13 1.07199e-12 -8.84996e-13 9.66597e-13 2.0046e-12 -7.17632e-13 -5.0695e-13 -2.48484e-13 -1.23765e-12 1.26826e-12 8.5249e-14 -8.86337e-13 -2.36638e-13 -1.63941e-13 7.01807e-13 -7.51428e-14 -2.58232e-13 -5.29668e-13 -6.8044e-13 -2.64099e-13 -7.67042e-13 3.88418e-13 -2.82019e-13 -9.67313e-13 7.58164e-13 -2.21372e-13 -6.42388e-13 6.04369e-14 -4.67668e-13 1.88317e-13 2.40405e-13 4.26728e-13 -2.12823e-13 -9.01894e-13 4.47289e-13 -3.86136e-13 -7.18343e-13 7.49976e-13 2.37388e-13 4.80301e-13 6.43943e-13 -2.55706e-13 4.80833e-13 -6.70881e-13 -2.46809e-13 0
				</DataArray>
				<DataArray Name="VitesseY" type="Float32" format="ascii">