<?xml version="1.0"?>
<VTKFile type="PolyData">
	<PolyData>
		<Piece NumberOfPoints="1206" NumberOfPolys="1000">
			<Points>
				<DataArray type="Float32" NumberOfComponents="3" format="ascii">
 0 0 0 0.005 0 0 0.01 0 0 0.015 0 0 0.02 0 0 0.025 0 0 0.03 0 0 0.035 0 0 0.04 0 0 0.045 0 0 0.05 0 0 0.055 0 0 0.06 0 0 0.065 0 0 0.07 0 0 0.075 0 0 0.08 0 0 0.085 0 0 0.09 0 0 0.095 0 0 0.1 0 0 0.105 0 0 0.11 0 0 0.115 0 0 0.12 0 0 0.125 0 0 0.13 0 0 0.135 0 0 0.14 0 0 0.145 0 0 0.15 0 0 0.155 0 0 0.16 0 0 0.165 0 0 0.17 0 0 0.175 0 0 0.18 0 0 0.185 0 0 0.19 0 0 0.195 0 0 0.2 0 0 0.205 0 0 0.21 0 0 0.215 0 0 0.22 0 0 0.225 0 0 0.23 0 0 0.235 0 0 0.24 0 0 0.245 0 0 0.25 0 0 0.255 0 0 0.26 0 0 0.265 0 0 0.27 0 0 0.275 0 0 0.28 0 0 0.285 0 0 0.29 0 0 0.295 0 0 0.3 0 0 0.305 0 0 0.31 0 0 0.315 0 0 0.32 0 0 0.325 0 0 0.33 0 0 0.335 0 0 0.34 0 0 0.345 0 0 0.35 0 0 0.355 0 0 0.36 0 0 0.365 0 0 0.37 0 0 0.375 0 0 0.38 0 0 0.385 0 0 0.39 0 0 0.395 0 0 0.4 0 0 0.405 0 0 0.41 0 0 0.415 0 0 0.42 0 0 0.425 0 0 0.43 0 0 0.435 0 0 0.44 0 0 0.445 0 0 0.45 0 0 0.455 0 0 0.46 0 0 0.465 0 0 0.47 0 0 0.475 0 0 0.48 0 0 0.485 0 0 0.49 0 0 0.495 0 0 0.5 0 0 0.505 0 0 0.51 0 0 0.515 0 0 0.52 0 0 0.525 0 0 0.53 0 0 0.535 0 0 0.54 0 0 0.545 0 0 0.55 0 0 0.555 0 0 0.56 0 0 0.565 0 0 0.57 0 0 0.575 0 0 0.58 0 0 0.585 0 0 0.59 0 0 0.595 0 0 0.6 0 0 0.605 0 0 0.61 0 0 0.615 0 0 0.62 0 0 0.625 0 0 0.63 0 0 0.635 0 0 0.64 0 0 0.645 0 0 0.65 0 0 0.655 0 0 0.66 0 0 0.665 0 0 0.67 0 0 0.675 0 0 0.68 0 0 0.685 0 0 0.69 0 0 0.695 0 0 0.7 0 0 0.705 0 0 0.71 0 0 0.715 0 0 0.72 0 0 0.725 0 0 0.73 0 0 0.735 0 0 0.74 0 0 0.745 0 0 0.75 0 0 0.755 0 0 0.76 0 0 0.765 0 0 0.77 0 0 0.775 0 0 0.78 0 0 0.785 0 0 0.79 0 0 0.795 0 0 0.8 0 0 0.805 0 0 0.81 0 0 0.815 0 0 0.82 0 0 0.825 0 0 0.83 0 0 0.835 0 0 0.84 0 0 0.845 0 0 0.85 0 0 0.855 0 0 0.86 0 0 0.865 0 0 0.87 0 0 0.875 0 0 0.88 0 0 0.885 0 0 0.89 0 0 0.895 0 0 0.9 0 0 0.905 0 0 0.91 0 0 0.915 0 0 0.92 0 0 0.925 0 0 0.93 0 0 0.935 0 0 0.94 0 0 0.945 0 0 0.95 0 0 0.955 0 0 0.96 0 0 0.965 0 0 0.97 0 0 0.975 0 0 0.98 0 0 0.985 0 0 0.99 0 0 0.995 0 0 1 0 0 0 0.02 0 0.005 0.02 0 0.01 0.02 0 0.015 0.02 0 0.02 0.02 0 0.025 0.02 0 0.03 0.02 0 0.035 0.02 0 0.04 0.02 0 0.045 0.02 0 0.05 0.02 0 0.055 0.02 0 0.06 0.02 0 0.065 0.02 0 0.07 0.02 0 0.075 0.02 0 0.08 0.02 0 0.085 0.02 0 0.09 0.02 0 0.095 0.02 0 0.1 0.02 0 0.105 0.02 0 0.11 0.02 0 0.115 0.02 0 0.12 0.02 0 0.125 0.02 0 0.13 0.02 0 0.135 0.02 0 0.14 0.02 0 0.145 0.02 0 0.15 0.02 0 0.155 0.02 0 0.16 0.02 0 0.165 0.02 0 0.17 0.02 0 0.175 0.02 0 0.18 0.02 0 0.185 0.02 0 0.19 0.02 0 0.195 0.02 0 0.2 0.02 0 0.205 0.02 0 0.21 0.02 0 0.215 0.02 0 0.22 0.02 0 0.225 0.02 0 0.23 0.02 0 0.235 0.02 0 0.24 0.02 0 0.245 0.02 0 0.25 0.02 0 0.255 0.02 0 0.26 0.02 0 0.265 0.02 0 0.27 0.02 0 0.275 0.02 0 0.28 0.02 0 0.285 0.02 0 0.29 0.02 0 0.295 0.02 0 0.3 0.02 0 0.305 0.02 0 0.31 0.02 0 0.315 0.02 0 0.32 0.02 0 0.325 0.02 0 0.33 0.02 0 0.335 0.02 0 0.34 0.02 0 0.345 0.02 0 0.35 0.02 0 0.355 0.02 0 0.36 0.02 0 0.365 0.02 0 0.37 0.02 0 0.375 0.02 0 0.38 0.02 0 0.385 0.02 0 0.39 0.02 0 0.395 0.02 0 0.4 0.02 0 0.405 0.02 0 0.41 0.02 0 0.415 0.02 0 0.42 0.02 0 0.425 0.02 0 0.43 0.02 0 0.435 0.02 0 0.44 0.02 0 0.445 0.02 0 0.45 0.02 0 0.455 0.02 0 0.46 0.02 0 0.465 0.02 0 0.47 0.02 0 0.475 0.02 0 0.48 0.02 0 0.485 0.02 0 0.49 0.02 0 0.495 0.02 0 0.5 0.02 0 0.505 0.02 0 0.51 0.02 0 0.515 0.02 0 0.52 0.02 0 0.525 0.02 0 0.53 0.02 0 0.535 0.02 0 0.54 0.02 0 0.545 0.02 0 0.55 0.02 0 0.555 0.02 0 0.56 0.02 0 0.565 0.02 0 0.57 0.02 0 0.575 0.02 0 0.58 0.02 0 0.585 0.02 0 0.59 0.02 0 0.595 0.02 0 0.6 0.02 0 0.605 0.02 0 0.61 0.02 0 0.615 0.02 0 0.62 0.02 0 0.625 0.02 0 0.63 0.02 0 0.635 0.02 0 0.64 0.02 0 0.645 0.02 0 0.65 0.02 0 0.655 0.02 0 0.66 0.02 0 0.665 0.02 0 0.67 0.02 0 0.675 0.02 0 0.68 0.02 0 0.685 0.02 0 0.69 0.02 0 0.695 0.02 0 0.7 0.02 0 0.705 0.02 0 0.71 0.02 0 0.715 0.02 0 0.72 0.02 0 0.725 0.02 0 0.73 0.02 0 0.735 0.02 0 0.74 0.02 0 0.745 0.02 0 0.75 0.02 0 0.755 0.02 0 0.76 0.02 0 0.765 0.02 0 0.77 0.02 0 0.775 0.02 0 0.78 0.02 0 0.785 0.02 0 0.79 0.02 0 0.795 0.02 0 0.8 0.02 0 0.805 0.02 0 0.81 0.02 0 0.815 0.02 0 0.82 0.02 0 0.825 0.02 0 0.83 0.02 0 0.835 0.02 0 0.84 0.02 0 0.845 0.02 0 0.85 0.02 0 0.855 0.02 0 0.86 0.02 0 0.865 0.02 0 0.87 0.02 0 0.875 0.02 0 0.88 0.02 0 0.885 0.02 0 0.89 0.02 0 0.895 0.02 0 0.9 0.02 0 0.905 0.02 0 0.91 0.02 0 0.915 0.02 0 0.92 0.02 0 0.925 0.02 0 0.93 0.02 0 0.935 0.02 0 0.94 0.02 0 0.945 0.02 0 0.95 0.02 0 0.955 0.02 0 0.96 0.02 0 0.965 0.02 0 0.97 0.02 0 0.975 0.02 0 0.98 0.02 0 0.985 0.02 0 0.99 0.02 0 0.995 0.02 0 1 0.02 0 0 0.04 0 0.005 0.04 0 0.01 0.04 0 0.015 0.04 0 0.02 0.04 0 0.025 0.04 0 0.03 0.04 0 0.035 0.04 0 0.04 0.04 0 0.045 0.04 0 0.05 0.04 0 0.055 0.04 0 0.06 0.04 0 0.065 0.04 0 0.07 0.04 0 0.075 0.04 0 0.08 0.04 0 0.085 0.04 0 0.09 0.04 0 0.095 0.04 0 0.1 0.04 0 0.105 0.04 0 0.11 0.04 0 0.115 0.04 0 0.12 0.04 0 0.125 0.04 0 0.13 0.04 0 0.135 0.04 0 0.14 0.04 0 0.145 0.04 0 0.15 0.04 0 0.155 0.04 0 0.16 0.04 0 0.165 0.04 0 0.17 0.04 0 0.175 0.04 0 0.18 0.04 0 0.185 0.04 0 0.19 0.04 0 0.195 0.04 0 0.2 0.04 0 0.205 0.04 0 0.21 0.04 0 0.215 0.04 0 0.22 0.04 0 0.225 0.04 0 0.23 0.04 0 0.235 0.04 0 0.24 0.04 0 0.245 0.04 0 0.25 0.04 0 0.255 0.04 0 0.26 0.04 0 0.265 0.04 0 0.27 0.04 0 0.275 0.04 0 0.28 0.04 0 0.285 0.04 0 0.29 0.04 0 0.295 0.04 0 0.3 0.04 0 0.305 0.04 0 0.31 0.04 0 0.315 0.04 0 0.32 0.04 0 0.325 0.04 0 0.33 0.04 0 0.335 0.04 0 0.34 0.04 0 0.345 0.04 0 0.35 0.04 0 0.355 0.04 0 0.36 0.04 0 0.365 0.04 0 0.37 0.04 0 0.375 0.04 0 0.38 0.04 0 0.385 0.04 0 0.39 0.04 0 0.395 0.04 0 0.4 0.04 0 0.405 0.04 0 0.41 0.04 0 0.415 0.04 0 0.42 0.04 0 0.425 0.04 0 0.43 0.04 0 0.435 0.04 0 0.44 0.04 0 0.445 0.04 0 0.45 0.04 0 0.455 0.04 0 0.46 0.04 0 0.465 0.04 0 0.47 0.04 0 0.475 0.04 0 0.48 0.04 0 0.485 0.04 0 0.49 0.04 0 0.495 0.04 0 0.5 0.04 0 0.505 0.04 0 0.51 0.04 0 0.515 0.04 0 0.52 0.04 0 0.525 0.04 0 0.53 0.04 0 0.535 0.04 0 0.54 0.04 0 0.545 0.04 0 0.55 0.04 0 0.555 0.04 0 0.56 0.04 0 0.565 0.04 0 0.57 0.04 0 0.575 0.04 0 0.58 0.04 0 0.585 0.04 0 0.59 0.04 0 0.595 0.04 0 0.6 0.04 0 0.605 0.04 0 0.61 0.04 0 0.615 0.04 0 0.62 0.04 0 0.625 0.04 0 0.63 0.04 0 0.635 0.04 0 0.64 0.04 0 0.645 0.04 0 0.65 0.04 0 0.655 0.04 0 0.66 0.04 0 0.665 0.04 0 0.67 0.04 0 0.675 0.04 0 0.68 0.04 0 0.685 0.04 0 0.69 0.04 0 0.695 0.04 0 0.7 0.04 0 0.705 0.04 0 0.71 0.04 0 0.715 0.04 0 0.72 0.04 0 0.725 0.04 0 0.73 0.04 0 0.735 0.04 0 0.74 0.04 0 0.745 0.04 0 0.75 0.04 0 0.755 0.04 0 0.76 0.04 0 0.765 0.04 0 0.77 0.04 0 0.775 0.04 0 0.78 0.04 0 0.785 0.04 0 0.79 0.04 0 0.795 0.04 0 0.8 0.04 0 0.805 0.04 0 0.81 0.04 0 0.815 0.04 0 0.82 0.04 0 0.825 0.04 0 0.83 0.04 0 0.835 0.04 0 0.84 0.04 0 0.845 0.04 0 0.85 0.04 0 0.855 0.04 0 0.86 0.04 0 0.865 0.04 0 0.87 0.04 0 0.875 0.04 0 0.88 0.04 0 0.885 0.04 0 0.89 0.04 0 0.895 0.04 0 0.9 0.04 0 0.905 0.04 0 0.91 0.04 0 0.915 0.04 0 0.92 0.04 0 0.925 0.04 0 0.93 0.04 0 0.935 0.04 0 0.94 0.04 0 0.945 0.04 0 0.95 0.04 0 0.955 0.04 0 0.96 0.04 0 0.965 0.04 0 0.97 0.04 0 0.975 0.04 0 0.98 0.04 0 0.985 0.04 0 0.99 0.04 0 0.995 0.04 0 1 0.04 0 0 0.06 0 0.005 0.06 0 0.01 0.06 0 0.015 0.06 0 0.02 0.06 0 0.025 0.06 0 0.03 0.06 0 0.035 0.06 0 0.04 0.06 0 0.045 0.06 0 0.05 0.06 0 0.055 0.06 0 0.06 0.06 0 0.065 0.06 0 0.07 0.06 0 0.075 0.06 0 0.08 0.06 0 0.085 0.06 0 0.09 0.06 0 0.095 0.06 0 0.1 0.06 0 0.105 0.06 0 0.11 0.06 0 0.115 0.06 0 0.12 0.06 0 0.125 0.06 0 0.13 0.06 0 0.135 0.06 0 0.14 0.06 0 0.145 0.06 0 0.15 0.06 0 0.155 0.06 0 0.16 0.06 0 0.165 0.06 0 0.17 0.06 0 0.175 0.06 0 0.18 0.06 0 0.185 0.06 0 0.19 0.06 0 0.195 0.06 0 0.2 0.06 0 0.205 0.06 0 0.21 0.06 0 0.215 0.06 0 0.22 0.06 0 0.225 0.06 0 0.23 0.06 0 0.235 0.06 0 0.24 0.06 0 0.245 0.06 0 0.25 0.06 0 0.255 0.06 0 0.26 0.06 0 0.265 0.06 0 0.27 0.06 0 0.275 0.06 0 0.28 0.06 0 0.285 0.06 0 0.29 0.06 0 0.295 0.06 0 0.3 0.06 0 0.305 0.06 0 0.31 0.06 0 0.315 0.06 0 0.32 0.06 0 0.325 0.06 0 0.33 0.06 0 0.335 0.06 0 0.34 0.06 0 0.345 0.06 0 0.35 0.06 0 0.355 0.06 0 0.36 0.06 0 0.365 0.06 0 0.37 0.06 0 0.375 0.06 0 0.38 0.06 0 0.385 0.06 0 0.39 0.06 0 0.395 0.06 0 0.4 0.06 0 0.405 0.06 0 0.41 0.06 0 0.415 0.06 0 0.42 0.06 0 0.425 0.06 0 0.43 0.06 0 0.435 0.06 0 0.44 0.06 0 0.445 0.06 0 0.45 0.06 0 0.455 0.06 0 0.46 0.06 0 0.465 0.06 0 0.47 0.06 0 0.475 0.06 0 0.48 0.06 0 0.485 0.06 0 0.49 0.06 0 0.495 0.06 0 0.5 0.06 0 0.505 0.06 0 0.51 0.06 0 0.515 0.06 0 0.52 0.06 0 0.525 0.06 0 0.53 0.06 0 0.535 0.06 0 0.54 0.06 0 0.545 0.06 0 0.55 0.06 0 0.555 0.06 0 0.56 0.06 0 0.565 0.06 0 0.57 0.06 0 0.575 0.06 0 0.58 0.06 0 0.585 0.06 0 0.59 0.06 0 0.595 0.06 0 0.6 0.06 0 0.605 0.06 0 0.61 0.06 0 0.615 0.06 0 0.62 0.06 0 0.625 0.06 0 0.63 0.06 0 0.635 0.06 0 0.64 0.06 0 0.645 0.06 0 0.65 0.06 0 0.655 0.06 0 0.66 0.06 0 0.665 0.06 0 0.67 0.06 0 0.675 0.06 0 0.68 0.06 0 0.685 0.06 0 0.69 0.06 0 0.695 0.06 0 0.7 0.06 0 0.705 0.06 0 0.71 0.06 0 0.715 0.06 0 0.72 0.06 0 0.725 0.06 0 0.73 0.06 0 0.735 0.06 0 0.74 0.06 0 0.745 0.06 0 0.75 0.06 0 0.755 0.06 0 0.76 0.06 0 0.765 0.06 0 0.77 0.06 0 0.775 0.06 0 0.78 0.06 0 0.785 0.06 0 0.79 0.06 0 0.795 0.06 0 0.8 0.06 0 0.805 0.06 0 0.81 0.06 0 0.815 0.06 0 0.82 0.06 0 0.825 0.06 0 0.83 0.06 0 0.835 0.06 0 0.84 0.06 0 0.845 0.06 0 0.85 0.06 0 0.855 0.06 0 0.86 0.06 0 0.865 0.06 0 0.87 0.06 0 0.875 0.06 0 0.88 0.06 0 0.885 0.06 0 0.89 0.06 0 0.895 0.06 0 0.9 0.06 0 0.905 0.06 0 0.91 0.06 0 0.915 0.06 0 0.92 0.06 0 0.925 0.06 0 0.93 0.06 0 0.935 0.06 0 0.94 0.06 0 0.945 0.06 0 0.95 0.06 0 0.955 0.06 0 0.96 0.06 0 0.965 0.06 0 0.97 0.06 0 0.975 0.06 0 0.98 0.06 0 0.985 0.06 0 0.99 0.06 0 0.995 0.06 0 1 0.06 0 0 0.08 0 0.005 0.08 0 0.01 0.08 0 0.015 0.08 0 0.02 0.08 0 0.025 0.08 0 0.03 0.08 0 0.035 0.08 0 0.04 0.08 0 0.045 0.08 0 0.05 0.08 0 0.055 0.08 0 0.06 0.08 0 0.065 0.08 0 0.07 0.08 0 0.075 0.08 0 0.08 0.08 0 0.085 0.08 0 0.09 0.08 0 0.095 0.08 0 0.1 0.08 0 0.105 0.08 0 0.11 0.08 0 0.115 0.08 0 0.12 0.08 0 0.125 0.08 0 0.13 0.08 0 0.135 0.08 0 0.14 0.08 0 0.145 0.08 0 0.15 0.08 0 0.155 0.08 0 0.16 0.08 0 0.165 0.08 0
[...]
			<PointData Scalars="VitesseX">
				<DataArray Name="VitesseX" type="Float32" format="ascii">
 0 2.47752e-15 4.47978e-15 2.25412e-15 -5.14575e-15 -2.38125e-14 2.44217e-14 -4.60606e-14 -2.83832e-14 -4.4749e-14 1.03095e-14 2.33725e-14 1.40338e-14 -3.88372e-14 -3.50452e-15 -3.49287e-14 4.42861e-14 1.78981e-14 -4.39003e-14 -7.48933e-14 -3.87911e-14 -2.58026e-14 7.65358e-15 -1.06001e-13 -3.12666e-14 -9.21396e-14 -1.81637e-13 1.46576e-14 -1.55165e-13 -3.57968e-16 -6.94295e-14 8.67907e-14 -1.26064e-13 8.14469e-15 2.64629e-14 -1.06547e-13 -1.50574e-13 -7.72841e-14 -7.51117e-14 -2.52718e-13 -1.86119e-13 -1.38171e-13 2.00279e-14 -8.20392e-14 -3.04911e-13 1.47743e-13 -1.01066e-13 1.76178e-14 -1.00327e-13 -2.74189e-13 -1.02591e-14 1.77652e-13 9.8017e-13 7.39327e-12 5.31844e-11 3.58852e-10 2.28255e-09 1.36316e-08 7.61687e-08 3.96888e-07 1.92097e-06 8.59753e-06 3.53931e-05 0.000133169 0.00045448 0.0013941 0.00380387 0.00913588 0.019165 0.0350934 0.0566654 0.082345 0.110396 0.13963 0.169421 0.19947 0.229635 0.259842 0.290047 0.320193 0.350222 0.380092 0.409769 0.43923 0.468461 0.497452 0.526191 0.554665 0.58285 0.610719 0.638231 0.665336 0.691967 0.71804 0.74345 0.768065 0.791724 0.814236 0.835376 0.854894 0.872527 0.888028 0.901194 0.911914 0.920203 0.926207 0.930196 0.932523 0.933573 0.933741 0.933634 0.933378 0.933009 0.932579 0.932138 0.931755 0.931495 0.93142 0.931642 0.93237 0.9338 0.936097 0.939497 0.94377 0.950812 0.955896 0.952022 0.944915 0.938339 0.933895 0.931229 0.929772 0.929017 0.92861 0.928295 0.927905 0.927251 0.92605 0.923836 0.919828 0.912737 0.900525 0.880154 0.847499 0.797674 0.726088 0.630369 0.512888 0.382848 0.256352 0.151132 0.0774374 0.0348189 0.014237 0.00551614 0.00208182 0.000775607 0.000286777 0.000105423 3.85455e-05 1.40151e-05 5.06569e-06 1.81934e-06 6.48969e-07 2.29811e-07 8.07533e-08 2.81461e-08 9.72682e-09 3.3314e-09 1.13088e-09 3.79623e-10 1.26238e-10 4.1418e-11 1.33249e-11 3.85191e-12 1.06358e-12 -1.26389e-13 2.76608e-13 -6.57342e-13 -2.79323e-13 -1.17775e-14 -1.1861e-13 -2.22746e-13 3.9837e-14 -1.6155e-13 4.58837e-13 -2.66419e-13 2.3838e-13 -1.42952e-13 2.37426e-13 4.0162e-14 -5.91969e-13 7.4374e-13 -7.44031e-14 3.60562e-13 -1.37854e-13 -9.14904e-14 2.41608e-13 8.54007e-14 7.84204e-13 0 0 1.35888e-14 1.48351e-15 1.1224e-14 -3.97849e-15 2.09867e-14 -3.27741e-14 -8.39983e-15 -3.73156e-14 1.4952e-14 -2.47925e-14 -1.70641e-14 -2.73807e-15 8.62294e-15 -4.42957e-14 3.26943e-14 -4.06267e-14 -3.03094e-14 -2.13169e-14 -2.99957e-15 -2.89568e-14 -5.63644e-14 -2.9844e-14 -8.65878e-14 -8.43058e-14 -4.97632e-14 -3.66404e-14 -1.62325e-13 -4.7568e-14 -3.71642e-14 -3.99673e-14 -5.08498e-14 5.14883e-14 -6.77728e-14 -1.15474e-13 -1.97261e-14 -5.29967e-14 -1.61274e-13 -1.65281e-13 1.45137e-14 -1.85743e-13 -1.86954e-13 -7.3893e-14 -1.76473e-13 5.90834e-14 -1.6856e-13 3.76004e-14 -8.31078e-14 6.94042e-14 1.1901e-13 -1.43386e-13 1.32579e-13 9.61472e-13 7.44366e-12 5.28814e-11 3.58891e-10 2.28284e-09 1.36312e-08 7.61688e-08 3.96889e-07 1.92097e-06 8.59753e-06 3.53931e-05 0.000133169 0.00045448 0.0013941 0.00380387 0.00913588 0.019165 0.0350934 0.0566654 0.082345 0.110396 0.13963 0.169421 0.19947 0.229635 0.259842 0.290047 0.320193 0.350222 0.380092 0.409769 0.43923 0.468461 0.497452 0.526191 0.554665 0.58285 0.610719 0.638231 0.665336 0.691967 0.71804 0.74345 0.768065 0.791724 0.814236 0.835376 0.854894 0.872527 0.888028 0.901194 0.911914 0.920203 0.926207 0.930196 0.932523 0.933573 0.933741 0.933634 0.933378 0.933009 0.932579 0.932138 0.931755 0.931495 0.93142 0.931642 0.93237 0.9338 0.936097 0.939497 0.94377 0.950812 0.955896 0.952022 0.944915 0.938339 0.933895 0.931229 0.929772 0.929017 0.92861 0.928295 0.927905 0.927251 0.92605 0.923836 0.919828 0.912737 0.900525 0.880154 0.847499 0.797674 0.726088 0.630369 0.512888 0.382848 0.256352 0.151132 0.0774374 0.0348189 0.014237 0.00551614 0.00208182 0.000775607 0.000286777 0.000105423 3.85455e-05 1.40151e-05 5.06569e-06 1.81934e-06 6.48969e-07 2.2981e-07 8.0754e-08 2.81459e-08 9.72662e-09 3.33166e-09 1.13041e-09 3.79993e-10 1.26318e-10 4.15836e-11 1.32015e-11 3.98794e-12 8.74016e-13 -6.4133e-14 -1.80954e-13 -4.95428e-14 -4.4652e-13 -2.71642e-13 -1.74591e-13 -1.23189e-14 -9.48655e-14 2.64334e-13 -2.57136e-13 2.41253e-13 -1.17493e-13 2.50777e-13 -6.05827e-14 7.17882e-14 -3.86949e-14 -3.07618e-13 2.37542e-13 1.28127e-13 2.68276e-13 -1.3427e-13 1.39351e-14 1.83817e-13 -2.80103e-13 0 0 1.1885e-14 2.45709e-14 9.17889e-15 7.32934e-15 -5.12298e-15 4.07529e-15 -1.13768e-14 1.88657e-14 2.83928e-14 -1.50851e-14 -1.73291e-14 -3.76154e-14 -4.45905e-14 -3.43626e-14 -3.50775e-14 -3.53794e-16 -2.05141e-14 -6.30926e-14 -4.33944e-14 -8.5788e-14 -1.21976e-14 -5.3795e-14 2.82708e-14 -8.65956e-14 -8.96858e-14 -1.3585e-13 -1.45035e-14 -1.21509e-13 7.87996e-15 1.40508e-14 -4.76106e-15 -7.26391e-14 -6.61052e-14 -3.8418e-14 -1.76792e-13 -1.17463e-13 3.92355e-14 -6.1791e-14 -1.55542e-13 -8.63378e-14 -1.53386e-13 2.50384e-14 -5.64205e-14 -1.05644e-13 6.01375e-14 -1.91215e-13 -6.5741e-14 -5.25998e-14 4.23717e-14 6.36714e-14 1.35478e-13 1.00578e-12 7.43279e-12 5.31937e-11 3.58696e-10 2.28276e-09 1.36314e-08 7.61689e-08 3.96888e-07 1.92097e-06 8.59753e-06 3.53931e-05 0.000133169 0.00045448 0.0013941 0.00380387 0.00913588 0.019165 0.0350934 0.0566654 0.082345 0.110396 0.13963 0.169421 0.19947 0.229635 0.259842 0.290047 0.320193 0.350222 0.380092 0.409769 0.43923 0.468461 0.497452 0.526191 0.554665 0.58285 0.610719 0.638231 0.665336 0.691967 0.71804 0.74345 0.768065 0.791724 0.814236 0.835376 0.854894 0.872527 0.888028 0.901194 0.911914 0.920203 0.926207 0.930196 0.932523 0.933573 0.933741 0.933634 0.933378 0.933009 0.932579 0.932138 0.931755 0.931495 0.93142 0.931642 0.93237 0.9338 0.936097 0.939497 0.94377 0.950812 0.955896 0.952022 0.944915 0.938339 0.933895 0.931229 0.929772 0.929017 0.92861 0.928295 0.927905 0.927251 0.92605 0.923836 0.919828 0.912737 0.900525 0.880154 0.847499 0.797674 0.726088 0.630369 0.512888 0.382848 0.256352 0.151132 0.0774374 0.0348189 0.014237 0.00551614 0.00208182 0.000775607 0.000286777 0.000105423 3.85455e-05 1.40151e-05 5.06569e-06 1.81934e-06 6.48969e-07 2.29811e-07 8.07535e-08 2.81461e-08 9.72677e-09 3.33167e-09 1.13054e-09 3.79887e-10 1.26388e-10 4.14435e-11 1.33374e-11 4.29666e-12 1.15197e-12 -1.4844e-13 -2.45904e-13 -1.95275e-13 -3.51116e-13 -2.14809e-13 -2.11606e-13 -3.1167e-13 3.06775e-13 -2.54774e-13 -1.38523e-13 2.10283e-13 7.50188e-14 -6.45064e-14 -1.93358e-13 -5.88301e-15 4.46919e-14 3.77741e-14 3.09099e-14 6.51642e-13 -2.03225e-14 9.66634e-14 2.11184e-13 2.72134e-13 -5.14502e-14 0 0 8.83527e-15 2.54401e-14 1.77794e-14 7.94382e-15 -1.19731e-14 3.87053e-14 1.04772e-14 -1.44733e-14 -3.36103e-14 1.96838e-14 3.38595e-14 -3.15612e-14 -9.47744e-14 -5.9501e-14 -4.72853e-14 -8.11562e-14 1.63208e-14 -8.13766e-14 -4.67053e-14 -3.06123e-14 -7.08987e-14 -6.98526e-14 -6.11633e-14 3.1412e-14 -7.24767e-14 -1.67094e-13 4.5326e-15 -6.55037e-14 1.0324e-14 -5.48156e-14 4.06206e-15 -8.98465e-14 -6.85477e-14 -6.38427e-14 -1.15775e-13 -6.57268e-14 -5.83041e-15 -8.81286e-14 -1.10652e-13 -5.48645e-14 -6.50836e-14 -1.47144e-13 -5.16703e-15 -1.39746e-13 -5.17871e-14 -9.16418e-14 -2.6199e-14 -7.53367e-14 -1.61311e-13 7.97703e-14 -3.35879e-14 1.16283e-12 7.48159e-12 5.33142e-11 3.58793e-10 2.28275e-09 1.36315e-08 7.6169e-08 3.96888e-07 1.92097e-06 8.59753e-06 3.53931e-05 0.000133169 0.00045448 0.0013941 0.00380387 0.00913588 0.019165 0.0350934 0.0566654 0.082345 0.110396 0.13963 0.169421 0.19947 0.229635 0.259842 0.290047 0.320193 0.350222 0.380092 0.409769 0.43923 0.468461 0.497452 0.526191 0.554665 0.58285 0.610719 0.638231 0.665336 0.691967 0.71804 0.74345 0.768065 0.791724 0.814236 0.835376 0.854894 0.872527 0.888028 0.901194 0.911914 0.920203 0.926207 0.930196 0.932523 0.933573 0.933741 0.933634 0.933378 0.933009 0.932579 0.932138 0.931755 0.931495 0.93142 0.931642 0.93237 0.9338 0.936097 0.939497 0.94377 0.950812 0.955896 0.952022 0.944915 0.938339 0.933895 0.931229 0.929772 0.929017 0.92861 0.928295 0.927905 0.927251 0.92605 0.923836 0.919828 0.912737 0.900525 0.880154 0.847499 0.797674 0.726088 0.630369 0.512888 0.382848 0.256352 0.151132 0.0774374 0.0348189 0.014237 0.00551614 0.00208182 0.000775607 0.000286777 0.000105423 3.85455e-05 1.40151e-05 5.06569e-06 1.81934e-06 6.48969e-07 2.29811e-07 8.07535e-08 2.81459e-08 9.72706e-09 3.33166e-09 1.13079e-09 3.79861e-10 1.26402e-10 4.14073e-11 1.35023e-11 4.10713e-12 1.01071e-12 -1.60573e-13 1.8385e-14 -2.56835e-13 2.87567e-13 -3.98276e-13 -1.89021e-13 -2.26057e-13 -1.64727e-13 1.71058e-13 1.94935e-13 -2.11079e-15 -2.51353e-13 -2.3533e-13 -4.75403e-13 -2.01118e-13 3.48422e-13 1.14082e-12 -1.72366e-13 1.02449e-13 -5.09386e-13 7.30875e-13 7.39571e-13 -4.9902e-13 2.45879e-13 0 0 1.0111e-14 3.48505e-15 2.63441e-14 6.03749e-15 2.60557e-14 -1.55638e-15 1.97703e-14 -3.84191e-14 -1.25623e-14 -2.13628e-14 -1.82239e-14 -5.41927e-14 -1.07264e-14 -7.86581e-14 -1.90772e-14 -1.00221e-13 -3.43518e-14 -3.22433e-14 -2.40015e-14 -4.51986e-14 -8.96506e-14 -6.50414e-14 -1.26578e-13 7.13706e-15 -3.67304e-14 -2.40194e-14 -1.51349e-13 8.80743e-14 -1.53053e-14 -4.53038e-14 -4.04312e-14 5.44061e-14 -4.43968e-14 -1.15893e-13 7.18935e-14 -1.04205e-13 -2.62088e-13 -2.48376e-13 2.1026e-14 -1.08844e-13 -7.98486e-14 -1.69988e-13 -1.20355e-13 1.38741e-13 -1.98449e-13 1.02643e-13 -9.14421e-14 4.46491e-14 -2.92374e-14 -1.8001e-13 -6.84887e-14 1.05091e-12 7.58608e-12 5.31172e-11 3.59015e-10 2.2829e-09 1.36314e-08 7.6169e-08 3.96889e-07 1.92097e-06 8.59753e-06 3.53931e-05 0.000133169 0.00045448 0.0013941 0.00380387 0.00913588 0.019165 0.0350934 0.0566654 0.082345 0.110396 0.13963 0.169421 0.19947 0.229635 0.259842 0.290047 0.320193 0.350222 0.380092 0.409769 0.43923 0.468461 0.497452 0.526191 0.554665 0.58285 0.610719 0.638231 0.665336 0.691967 0.71804 0.74345 0.768065 0.791724 0.814236 0.835376 0.854894 0.872527 0.888028 0.901194 0.911914 0.920203 0.926207 0.930196 0.932523 0.933573 0.933741 0.933634 0.933378 0.933009 0.932579 0.932138 0.931755 0.931495 0.93142 0.931642 0.93237 0.9338 0.936097 0.939497 0.94377 0.950812 0.955896 0.952022 0.944915 0.938339 0.933895 0.931229 0.929772 0.929017 0.92861 0.928295 0.927905 0.927251 0.92605 0.923836 0.919828 0.912737 0.900525 0.880154 0.847499 0.797674 0.726088 0.630369 0.512888 0.382848 0.256352 0.151132 0.0774374 0.0348189 0.014237 0.00551614 0.00208182 0.000775607 0.000286777 0.000105423 3.85455e-05 1.40151e-05 5.06569e-06 1.81934e-06 6.48969e-07 2.2981e-07 8.07542e-08 2.81459e-08 9.72684e-09 3.33169e-09 1.13057e-09 3.80161e-10 1.2641e-10 4.16044e-11 1.32675e-11 3.83644e-12 9.23412e-13 1.90954e-13 -6.3022e-14 1.91484e-13 -1.84469e-13 -3.37498e-13 -4.11223e-13 3.08507e-14 -1.96848e-13 7.77132e-13 -2.29702e-13 1.88305e-13 -3.55901e-13 2.3954e-13 -2.75141e-13 -2.92479e-13 2.24597e-13 4.34256e-14 -2.73385e-13 -2.16336e-13 2.33042e-13 2.57175e-13 3.24883e-14 -2.68264e-13 -4.93927e-13 0 0 1.62128e-15 6.74447e-15 1.52933e-14 1.36572e-14 2.58225e-17 1.7597e-14 -3.34283e-14 3.60878e-14 2.42287e-14 -5.23689e-14 -8.13244e-14 -1.00984e-13 2.28319e-14 -2.19525e-14 -1.14056e-13 8.67034e-14 -6.38564e-14 -2.91849e-14 -1.10275e-13 -1.81626e-13 2.50272e-14 -3.06261e-14 -7.11323e-15 -8.4396e-14 -1.00492e-13 -9.3907e-14 -1.46252e-15 4.10948e-15 3.84719e-14 5.76302e-14 8.99817e-14 -8.58137e-14 5.97816e-14 7.64745e-14 -4.53413e-14 -3.56464e-13 -1.8878e-13 -1.88628e-13 -3.29472e-13 -9.52687e-14 -1.00563e-13 1.72204e-13 -7.23091e-14 -7.7392e-14 3.11814e-13 -1.70127e-13 -7.81349e-14 -1.04364e-13 -1.63318e-13 -1.15705e-13 1.13648e-13 8.4496e-13 7.58049e-12 5.34151e-11 3.58909e-10 2.28268e-09 1.36318e-08 7.6169e-08 3.96888e-07 1.92097e-06 8.59753e-06 3.53931e-05 0.000133169 0.00045448 0.0013941 0.00380387 0.00913588 0.019165 0.0350934 0.0566654 0.082345 0.110396 0.13963 0.169421 0.19947 0.229635 0.259842 0.290047 0.320193 0.350222 0.380092 0.409769 0.43923 0.468461 0.497452 0.526191 0.554665 0.58285 0.610719 0.638231 0.665336 0.691967 0.71804 0.74345 0.768065 0.791724 0.814236 0.835376 0.854894 0.872527 0.888028 0.901194 0.911914 0.920203 0.926207 0.930196 0.932523 0.933573 0.933741 0.933634 0.933378 0.933009 0.932579 0.932138 0.931755 0.931495 0.93142 0.931642 0.93237 0.9338 0.936097 0.939497 0.94377 0.950812 0.955896 0.952022 0.944915 0.938339 0.933895 0.931229 0.929772 0.929017 0.92861 0.928295 0.927905 0.927251 0.92605 0.923836 0.919828 0.912737 0.900525 0.880154 0.847499 0.797674 0.726088 0.630369 0.512888 0.382848 0.256352 0.151132 0.0774374 0.0348189 0.014237 0.00551614 0.00208182 0.000775607 0.000286777 0.000105423 3.85455e-05 1.40151e-05 5.06569e-06 1.81934e-06 6.48969e-07 2.29811e-07 8.07537e-08 2.81464e-08 9.72669e-09 3.33151e-09 1.1307e-09 3.80014e-10 1.26394e-10 4.15319e-11 1.3127e-11 3.92795e-12 1.4449e-12 4.08051e-13 -1.61062e-14 -5.21683e-14 -1.03259e-12 2.23443e-13 -6.37043e-13 -3.07633e-13 7.78876e-13 1.2381e-14 -1.53212e-13 5.24735e-14 4.14307e-13 1.76221e-13 3.72398e-13 -2.97902e-13 -6.72845e-13 -7.60262e-13 -6.89704e-13 7.70024e-13 7.69804e-13 -5.77023e-13 -7.78059e-13 7.23547e-13 -2.38101e-13 0
				</DataArray>
				<DataArray Name="VitesseY" type="Float32" format="ascii">