<?xml version="1.0"?>
<VTKFile type="PolyData">
	<PolyData>
		<Piece NumberOfPoints="1206" NumberOfPolys="1000">
			<Points>
				<DataArray type="Float32" NumberOfComponents="3" format="ascii">
 0 0 0 0.005 0 0 0.01 0 0 0.015 0 0 0.02 0 0 0.025 0 0 0.03 0 0 0.035 0 0 0.04 0 0 0.045 0 0 0.05 0 0 0.055 0 0 0.06 0 0 0.065 0 0 0.07 0 0 0.075 0 0 0.08 0 0 0.085 0 0 0.09 0 0 0.095 0 0 0.1 0 0 0.105 0 0 0.11 0 0 0.115 0 0 0.12 0 0 0.125 0 0 0.13 0 0 0.135 0 0 0.14 0 0 0.145 0 0 0.15 0 0 0.155 0 0 0.16 0 0 0.165 0 0 0.17 0 0 0.175 0 0 0.18 0 0 0.185 0 0 0.19 0 0 0.195 0 0 0.2 0 0 0.205 0 0 0.21 0 0 0.215 0 0 0.22 0 0 0.225 0 0 0.23 0 0 0.235 0 0 0.24 0 0 0.245 0 0 0.25 0 0 0.255 0 0 0.26 0 0 0.265 0 0 0.27 0 0 0.275 0 0 0.28 0 0 0.285 0 0 0.29 0 0 0.295 0 0 0.3 0 0 0.305 0 0 0.31 0 0 0.315 0 0 0.32 0 0 0.325 0 0 0.33 0 0 0.335 0 0 0.34 0 0 0.345 0 0 0.35 0 0 0.355 0 0 0.36 0 0 0.365 0 0 0.37 0 0 0.375 0 0 0.38 0 0 0.385 0 0 0.39 0 0 0.395 0 0 0.4 0 0 0.405 0 0 0.41 0 0 0.415 0 0 0.42 0 0 0.425 0 0 0.43 0 0 0.435 0 0 0.44 0 0 0.445 0 0 0.45 0 0 0.455 0 0 0.46 0 0 0.465 0 0 0.47 0 0 0.475 0 0 0.48 0 0 0.485 0 0 0.49 0 0 0.495 0 0 0.5 0 0 0.505 0 0 0.51 0 0 0.515 0 0 0.52 0 0 0.525 0 0 0.53 0 0 0.535 0 0 0.54 0 0 0.545 0 0 0.55 0 0 0.555 0 0 0.56 0 0 0.565 0 0 0.57 0 0 0.575 0 0 0.58 0 0 0.585 0 0 0.59 0 0 0.595 0 0 0.6 0 0 0.605 0 0 0.61 0 0 0.615 0 0 0.62 0 0 0.625 0 0 0.63 0 0 0.635 0 0 0.64 0 0 0.645 0 0 0.65 0 0 0.655 0 0 0.66 0 0 0.665 0 0 0.67 0 0 0.675 0 0 0.68 0 0 0.685 0 0 0.69 0 0 0.695 0 0 0.7 0 0 0.705 0 0 0.71 0 0 0.715 0 0 0.72 0 0 0.725 0 0 0.73 0 0 0.735 0 0 0.74 0 0 0.745 0 0 0.75 0 0 0.755 0 0 0.76 0 0 0.765 0 0 0.77 0 0 0.775 0 0 0.78 0 0 0.785 0 0 0.79 0 0 0.795 0 0 0.8 0 0 0.805 0 0 0.81 0 0 0.815 0 0 0.82 0 0 0.825 0 0 0.83 0 0 0.835 0 0 0.84 0 0 0.845 0 0 0.85 0 0 0.855 0 0 0.86 0 0 0.865 0 0 0.87 0 0 0.875 0 0 0.88 0 0 0.885 0 0 0.89 0 0 0.895 0 0 0.9 0 0 0.905 0 0 0.91 0 0 0.915 0 0 0.92 0 0 0.925 0 0 0.93 0 0 0.935 0 0 0.94 0 0 0.945 0 0 0.95 0 0 0.955 0 0 0.96 0 0 0.965 0 0 0.97 0 0 0.975 0 0 0.98 0 0 0.985 0 0 0.99 0 0 0.995 0 0 1 0 0 0 0.02 0 0.005 0.02 0 0.01 0.02 0 0.015 0.02 0 0.02 0.02 0 0.025 0.02 0 0.03 0.02 0 0.035 0.02 0 0.04 0.02 0 0.045 0.02 0 0.05 0.02 0 0.055 0.02 0 0.06 0.02 0 0.065 0.02 0 0.07 0.02 0 0.075 0.02 0 0.08 0.02 0 0.085 0.02 0 0.09 0.02 0 0.095 0.02 0 0.1 0.02 0 0.105 0.02 0 0.11 0.02 0 0.115 0.02 0 0.12 0.02 0 0.125 0.02 0 0.13 0.02 0 0.135 0.02 0 0.14 0.02 0 0.145 0.02 0 0.15 0.02 0 0.155 0.02 0 0.16 0.02 0 0.165 0.02 0 0.17 0.02 0 0.175 0.02 0 0.18 0.02 0 0.185 0.02 0 0.19 0.02 0 0.195 0.02 0 0.2 0.02 0 0.205 0.02 0 0.21 0.02 0 0.215 0.02 0 0.22 0.02 0 0.225 0.02 0 0.23 0.02 0 0.235 0.02 0 0.24 0.02 0 0.245 0.02 0 0.25 0.02 0 0.255 0.02 0 0.26 0.02 0 0.265 0.02 0 0.27 0.02 0 0.275 0.02 0 0.28 0.02 0 0.285 0.02 0 0.29 0.02 0 0.295 0.02 0 0.3 0.02 0 0.305 0.02 0 0.31 0.02 0 0.315 0.02 0 0.32 0.02 0 0.325 0.02 0 0.33 0.02 0 0.335 0.02 0 0.34 0.02 0 0.345 0.02 0 0.35 0.02 0 0.355 0.02 0 0.36 0.02 0 0.365 0.02 0 0.37 0.02 0 0.375 0.02 0 0.38 0.02 0 0.385 0.02 0 0.39 0.02 0 0.395 0.02 0 0.4 0.02 0 0.405 0.02 0 0.41 0.02 0 0.415 0.02 0 0.42 0.02 0 0.425 0.02 0 0.43 0.02 0 0.435 0.02 0 0.44 0.02 0 0.445 0.02 0 0.45 0.02 0 0.455 0.02 0 0.46 0.02 0 0.465 0.02 0 0.47 0.02 0 0.475 0.02 0 0.48 0.02 0 0.485 0.02 0 0.49 0.02 0 0.495 0.02 0 0.5 0.02 0 0.505 0.02 0 0.51 0.02 0 0.515 0.02 0 0.52 0.02 0 0.525 0.02 0 0.53 0.02 0 0.535 0.02 0 0.54 0.02 0 0.545 0.02 0 0.55 0.02 0 0.555 0.02 0 0.56 0.02 0 0.565 0.02 0 0.57 0.02 0 0.575 0.02 0 0.58 0.02 0 0.585 0.02 0 0.59 0.02 0 0.595 0.02 0 0.6 0.02 0 0.605 0.02 0 0.61 0.02 0 0.615 0.02 0 0.62 0.02 0 0.625 0.02 0 0.63 0.02 0 0.635 0.02 0 0.64 0.02 0 0.645 0.02 0 0.65 0.02 0 0.655 0.02 0 0.66 0.02 0 0.665 0.02 0 0.67 0.02 0 0.675 0.02 0 0.68 0.02 0 0.685 0.02 0 0.69 0.02 0 0.695 0.02 0 0.7 0.02 0 0.705 0.02 0 0.71 0.02 0 0.715 0.02 0 0.72 0.02 0 0.725 0.02 0 0.73 0.02 0 0.735 0.02 0 0.74 0.02 0 0.745 0.02 0 0.75 0.02 0 0.755 0.02 0 0.76 0.02 0 0.765 0.02 0 0.77 0.02 0 0.775 0.02 0 0.78 0.02 0 0.785 0.02 0 0.79 0.02 0 0.795 0.02 0 0.8 0.02 0 0.805 0.02 0 0.81 0.02 0 0.815 0.02 0 0.82 0.02 0 0.825 0.02 0 0.83 0.02 0 0.835 0.02 0 0.84 0.02 0 0.845 0.02 0 0.85 0.02 0 0.855 0.02 0 0.86 0.02 0 0.865 0.02 0 0.87 0.02 0 0.875 0.02 0 0.88 0.02 0 0.885 0.02 0 0.89 0.02 0 0.895 0.02 0 0.9 0.02 0 0.905 0.02 0 0.91 0.02 0 0.915 0.02 0 0.92 0.02 0 0.925 0.02 0 0.93 0.02 0 0.935 0.02 0 0.94 0.02 0 0.945 0.02 0 0.95 0.02 0 0.955 0.02 0 0.96 0.02 0 0.965 0.02 0 0.97 0.02 0 0.975 0.02 0 0.98 0.02 0 0.985 0.02 0 0.99 0.02 0 0.995 0.02 0 1 0.02 0 0 0.04 0 0.005 0.04 0 0.01 0.04 0 0.015 0.04 0 0.02 0.04 0 0.025 0.04 0 0.03 0.04 0 0.035 0.04 0 0.04 0.04 0 0.045 0.04 0 0.05 0.04 0 0.055 0.04 0 0.06 0.04 0 0.065 0.04 0 0.07 0.04 0 0.075 0.04 0 0.08 0.04 0 0.085 0.04 0 0.09 0.04 0 0.095 0.04 0 0.1 0.04 0 0.105 0.04 0 0.11 0.04 0 0.115 0.04 0 0.12 0.04 0 0.125 0.04 0 0.13 0.04 0 0.135 0.04 0 0.14 0.04 0 0.145 0.04 0 0.15 0.04 0 0.155 0.04 0 0.16 0.04 0 0.165 0.04 0 0.17 0.04 0 0.175 0.04 0 0.18 0.04 0 0.185 0.04 0 0.19 0.04 0 0.195 0.04 0 0.2 0.04 0 0.205 0.04 0 0.21 0.04 0 0.215 0.04 0 0.22 0.04 0 0.225 0.04 0 0.23 0.04 0 0.235 0.04 0 0.24 0.04 0 0.245 0.04 0 0.25 0.04 0 0.255 0.04 0 0.26 0.04 0 0.265 0.04 0 0.27 0.04 0 0.275 0.04 0 0.28 0.04 0 0.285 0.04 0 0.29 0.04 0 0.295 0.04 0 0.3 0.04 0 0.305 0.04 0 0.31 0.04 0 0.315 0.04 0 0.32 0.04 0 0.325 0.04 0 0.33 0.04 0 0.335 0.04 0 0.34 0.04 0 0.345 0.04 0 0.35 0.04 0 0.355 0.04 0 0.36 0.04 0 0.365 0.04 0 0.37 0.04 0 0.375 0.04 0 0.38 0.04 0 0.385 0.04 0 0.39 0.04 0 0.395 0.04 0 0.4 0.04 0 0.405 0.04 0 0.41 0.04 0 0.415 0.04 0 0.42 0.04 0 0.425 0.04 0 0.43 0.04 0 0.435 0.04 0 0.44 0.04 0 0.445 0.04 0 0.45 0.04 0 0.455 0.04 0 0.46 0.04 0 0.465 0.04 0 0.47 0.04 0 0.475 0.04 0 0.48 0.04 0 0.485 0.04 0 0.49 0.04 0 0.495 0.04 0 0.5 0.04 0 0.505 0.04 0 0.51 0.04 0 0.515 0.04 0 0.52 0.04 0 0.525 0.04 0 0.53 0.04 0 0.535 0.04 0 0.54 0.04 0 0.545 0.04 0 0.55 0.04 0 0.555 0.04 0 0.56 0.04 0 0.565 0.04 0 0.57 0.04 0 0.575 0.04 0 0.58 0.04 0 0.585 0.04 0 0.59 0.04 0 0.595 0.04 0 0.6 0.04 0 0.605 0.04 0 0.61 0.04 0 0.615 0.04 0 0.62 0.04 0 0.625 0.04 0 0.63 0.04 0 0.635 0.04 0 0.64 0.04 0 0.645 0.04 0 0.65 0.04 0 0.655 0.04 0 0.66 0.04 0 0.665 0.04 0 0.67 0.04 0 0.675 0.04 0 0.68 0.04 0 0.685 0.04 0 0.69 0.04 0 0.695 0.04 0 0.7 0.04 0 0.705 0.04 0 0.71 0.04 0 0.715 0.04 0 0.72 0.04 0 0.725 0.04 0 0.73 0.04 0 0.735 0.04 0 0.74 0.04 0 0.745 0.04 0 0.75 0.04 0 0.755 0.04 0 0.76 0.04 0 0.765 0.04 0 0.77 0.04 0 0.775 0.04 0 0.78 0.04 0 0.785 0.04 0 0.79 0.04 0 0.795 0.04 0 0.8 0.04 0 0.805 0.04 0 0.81 0.04 0 0.815 0.04 0 0.82 0.04 0 0.825 0.04 0 0.83 0.04 0 0.835 0.04 0 0.84 0.04 0 0.845 0.04 0 0.85 0.04 0 0.855 0.04 0 0.86 0.04 0 0.865 0.04 0 0.87 0.04 0 0.875 0.04 0 0.88 0.04 0 0.885 0.04 0 0.89 0.04 0 0.895 0.04 0 0.9 0.04 0 0.905 0.04 0 0.91 0.04 0 0.915 0.04 0 0.92 0.04 0 0.925 0.04 0 0.93 0.04 0 0.935 0.04 0 0.94 0.04 0 0.945 0.04 0 0.95 0.04 0 0.955 0.04 0 0.96 0.04 0 0.965 0.04 0 0.97 0.04 0 0.975 0.04 0 0.98 0.04 0 0.985 0.04 0 0.99 0.04 0 0.995 0.04 0 1 0.04 0 0 0.06 0 0.005 0.06 0 0.01 0.06 0 0.015 0.06 0 0.02 0.06 0 0.025 0.06 0 0.03 0.06 0 0.035 0.06 0 0.04 0.06 0 0.045 0.06 0 0.05 0.06 0 0.055 0.06 0 0.06 0.06 0 0.065 0.06 0 0.07 0.06 0 0.075 0.06 0 0.08 0.06 0 0.085 0.06 0 0.09 0.06 0 0.095 0.06 0 0.1 0.06 0 0.105 0.06 0 0.11 0.06 0 0.115 0.06 0 0.12 0.06 0 0.125 0.06 0 0.13 0.06 0 0.135 0.06 0 0.14 0.06 0 0.145 0.06 0 0.15 0.06 0 0.155 0.06 0 0.16 0.06 0 0.165 0.06 0 0.17 0.06 0 0.175 0.06 0 0.18 0.06 0 0.185 0.06 0 0.19 0.06 0 0.195 0.06 0 0.2 0.06 0 0.205 0.06 0 0.21 0.06 0 0.215 0.06 0 0.22 0.06 0 0.225 0.06 0 0.23 0.06 0 0.235 0.06 0 0.24 0.06 0 0.245 0.06 0 0.25 0.06 0 0.255 0.06 0 0.26 0.06 0 0.265 0.06 0 0.27 0.06 0 0.275 0.06 0 0.28 0.06 0 0.285 0.06 0 0.29 0.06 0 0.295 0.06 0 0.3 0.06 0 0.305 0.06 0 0.31 0.06 0 0.315 0.06 0 0.32 0.06 0 0.325 0.06 0 0.33 0.06 0 0.335 0.06 0 0.34 0.06 0 0.345 0.06 0 0.35 0.06 0 0.355 0.06 0 0.36 0.06 0 0.365 0.06 0 0.37 0.06 0 0.375 0.06 0 0.38 0.06 0 0.385 0.06 0 0.39 0.06 0 0.395 0.06 0 0.4 0.06 0 0.405 0.06 0 0.41 0.06 0 0.415 0.06 0 0.42 0.06 0 0.425 0.06 0 0.43 0.06 0 0.435 0.06 0 0.44 0.06 0 0.445 0.06 0 0.45 0.06 0 0.455 0.06 0 0.46 0.06 0 0.465 0.06 0 0.47 0.06 0 0.475 0.06 0 0.48 0.06 0 0.485 0.06 0 0.49 0.06 0 0.495 0.06 0 0.5 0.06 0 0.505 0.06 0 0.51 0.06 0 0.515 0.06 0 0.52 0.06 0 0.525 0.06 0 0.53 0.06 0 0.535 0.06 0 0.54 0.06 0 0.545 0.06 0 0.55 0.06 0 0.555 0.06 0 0.56 0.06 0 0.565 0.06 0 0.57 0.06 0 0.575 0.06 0 0.58 0.06 0 0.585 0.06 0 0.59 0.06 0 0.595 0.06 0 0.6 0.06 0 0.605 0.06 0 0.61 0.06 0 0.615 0.06 0 0.62 0.06 0 0.625 0.06 0 0.63 0.06 0 0.635 0.06 0 0.64 0.06 0 0.645 0.06 0 0.65 0.06 0 0.655 0.06 0 0.66 0.06 0 0.665 0.06 0 0.67 0.06 0 0.675 0.06 0 0.68 0.06 0 0.685 0.06 0 0.69 0.06 0 0.695 0.06 0 0.7 0.06 0 0.705 0.06 0 0.71 0.06 0 0.715 0.06 0 0.72 0.06 0 0.725 0.06 0 0.73 0.06 0 0.735 0.06 0 0.74 0.06 0 0.745 0.06 0 0.75 0.06 0 0.755 0.06 0 0.76 0.06 0 0.765 0.06 0 0.77 0.06 0 0.775 0.06 0 0.78 0.06 0 0.785 0.06 0 0.79 0.06 0 0.795 0.06 0 0.8 0.06 0 0.805 0.06 0 0.81 0.06 0 0.815 0.06 0 0.82 0.06 0 0.825 0.06 0 0.83 0.06 0 0.835 0.06 0 0.84 0.06 0 0.845 0.06 0 0.85 0.06 0 0.855 0.06 0 0.86 0.06 0 0.865 0.06 0 0.87 0.06 0 0.875 0.06 0 0.88 0.06 0 0.885 0.06 0 0.89 0.06 0 0.895 0.06 0 0.9 0.06 0 0.905 0.06 0 0.91 0.06 0 0.915 0.06 0 0.92 0.06 0 0.925 0.06 0 0.93 0.06 0 0.935 0.06 0 0.94 0.06 0 0.945 0.06 0 0.95 0.06 0 0.955 0.06 0 0.96 0.06 0 0.965 0.06 0 0.97 0.06 0 0.975 0.06 0 0.98 0.06 0 0.985 0.06 0 0.99 0.06 0 0.995 0.06 0 1 0.06 0 0 0.08 0 0.005 0.08 0 0.01 0.08 0 0.015 0.08 0 0.02 0.08 0 0.025 0.08 0 0.03 0.08 0 0.035 0.08 0 0.04 0.08 0 0.045 0.08 0 0.05 0.08 0 0.055 0.08 0 0.06 0.08 0 0.065 0.08 0 0.07 0.08 0 0.075 0.08 0 0.08 0.08 0 0.085 0.08 0 0.09 0.08 0 0.095 0.08 0 0.1 0.08 0 0.105 0.08 0 0.11 0.08 0 0.115 0.08 0 0.12 0.08 0 0.125 0.08 0 0.13 0.08 0 0.135 0.08 0 0.14 0.08 0 0.145 0.08 0 0.15 0.08 0 0.155 0.08 0 0.16 0.08 0 0.165 0.08 0
[...]
			<PointData Scalars="VitesseX">
				<DataArray Name="VitesseX" type="Float32" format="ascii">
 0 -6.06559e-15 -9.52898e-15 1.90603e-15 -1.1134e-14 -2.06044e-14 3.3768e-15 -9.8682e-14 -6.27406e-16 -7.61245e-14 -2.31322e-14 -6.77451e-14 -4.43829e-14 -5.95871e-14 -4.62816e-14 -4.21562e-14 -6.06264e-14 -3.36769e-14 9.25732e-14 -1.24611e-13 5.49517e-15 -2.94415e-14 -3.19685e-14 4.80125e-15 2.97887e-14 -1.08841e-13 1.59825e-13 -1.83623e-13 -1.02689e-13 2.53875e-14 -6.17693e-14 5.7894e-14 -9.15476e-14 5.6391e-14 -2.18816e-14 -1.25942e-14 1.35979e-13 1.16641e-13 7.30624e-13 3.68677e-12 2.26395e-11 1.28853e-10 7.01311e-10 3.62965e-09 1.78147e-08 8.27454e-08 3.62771e-07 1.49694e-06 5.79482e-06 2.09651e-05 7.05755e-05 0.00021991 0.000630372 0.00165058 0.0039179 0.00837096 0.0160272 0.0275181 0.0427009 0.0607476 0.080635 0.10156 0.123034 0.144799 0.166722 0.188734 0.210795 0.232882 0.25498 0.277077 0.299155 0.321197 0.343192 0.365128 0.386994 0.408782 0.430486 0.4521 0.473621 0.495043 0.516363 0.537575 0.558671 0.579643 0.60048 0.621168 0.641691 0.662029 0.682155 0.702039 0.721644 0.740925 0.759826 0.778282 0.796215 0.81353 0.830119 0.845858 0.860609 0.874225 0.886559 0.897474 0.90686 0.914654 0.920851 0.925517 0.928796 0.930895 0.932063 0.93256 0.93258 0.932498 0.932326 0.932082 0.931791 0.931476 0.931155 0.930845 0.930554 0.930289 0.930052 0.929847 0.929678 0.929556 0.929497 0.92953 0.929716 0.930143 0.930904 0.932107 0.933865 0.936261 0.939435 0.943032 0.949252 0.949504 0.94547 0.939943 0.935428 0.932354 0.930437 0.92933 0.92873 0.928421 0.928267 0.92819 0.928148 0.928115 0.928079 0.928024 0.927929 0.927758 0.927447 0.926885 0.925876 0.924084 0.920941 0.915501 0.906239 0.890806 0.865828 0.826933 0.769311 0.689055 0.585333 0.46287 0.333236 0.214075 0.120595 0.0592321 0.0258793 0.0104692 0.00406912 0.00155316 0.000588066 0.000221758 8.34073e-05 3.1303e-05 1.17227e-05 4.37997e-06 1.63236e-06 6.0667e-07 2.24783e-07 8.30078e-08 3.05418e-08 1.11937e-08 4.08504e-09 1.48344e-09 5.36611e-10 1.9258e-10 6.873e-11 2.4105e-11 8.66239e-12 3.24595e-12 8.62496e-13 1.27495e-13 4.25993e-13 3.65631e-13 1.53936e-13 2.25704e-13 0 0 -7.2682e-15 -5.20779e-15 -1.98179e-14 -1.02871e-14 -2.59434e-14 -4.48644e-14 1.2895e-14 -9.753e-14 -1.88043e-14 -6.98228e-14 -5.69253e-14 -4.97457e-14 -3.89914e-14 -4.06965e-14 -1.48593e-14 -6.94272e-14 3.58408e-14 -8.99498e-14 4.73445e-14 -2.83068e-14 3.46937e-14 -1.02591e-14 -3.75585e-14 -4.73452e-14 2.73858e-14 -1.86845e-13 9.56573e-15 -6.00346e-14 -7.38324e-15 2.78138e-14 -5.53958e-14 5.25929e-14 -5.41811e-14 -2.42835e-14 6.12511e-14 -4.04149e-14 2.01627e-13 6.52836e-13 3.87465e-12 2.2391e-11 1.28925e-10 7.01425e-10 3.62944e-09 1.78148e-08 8.27452e-08 3.62771e-07 1.49694e-06 5.79482e-06 2.09651e-05 7.05755e-05 0.00021991 0.000630372 0.00165058 0.0039179 0.00837096 0.0160272 0.0275181 0.0427009 0.0607476 0.080635 0.10156 0.123034 0.144799 0.166722 0.188734 0.210795 0.232882 0.25498 0.277077 0.299155 0.321197 0.343192 0.365128 0.386994 0.408782 0.430486 0.4521 0.473621 0.495043 0.516363 0.537575 0.558671 0.579643 0.60048 0.621168 0.641691 0.662029 0.682155 0.702039 0.721644 0.740925 0.759826 0.778282 0.796215 0.81353 0.830119 0.845858 0.860609 0.874225 0.886559 0.897474 0.90686 0.914654 0.920851 0.925517 0.928796 0.930895 0.932063 0.93256 0.93258 0.932498 0.932326 0.932082 0.931791 0.931476 0.931155 0.930845 0.930554 0.930289 0.930052 0.929847 0.929678 0.929556 0.929497 0.92953 0.929716 0.930143 0.930904 0.932107 0.933865 0.936261 0.939435 0.943032 0.949252 0.949504 0.94547 0.939943 0.935428 0.932354 0.930437 0.92933 0.92873 0.928421 0.928267 0.92819 0.928148 0.928115 0.928079 0.928024 0.927929 0.927758 0.927447 0.926885 0.925876 0.924084 0.920941 0.915501 0.906239 0.890806 0.865828 0.826933 0.769311 0.689055 0.585333 0.46287 0.333236 0.214075 0.120595 0.0592321 0.0258793 0.0104692 0.00406912 0.00155316 0.000588066 0.000221758 8.34073e-05 3.1303e-05 1.17227e-05 4.37997e-06 1.63236e-06 6.0667e-07 2.24782e-07 8.30084e-08 3.05421e-08 1.11935e-08 4.08464e-09 1.4842e-09 5.36019e-10 1.92739e-10 6.87214e-11 2.43978e-11 8.58735e-12 2.7971e-12 7.23208e-13 3.76357e-13 2.48396e-13 -3.2222e-14 4.5535e-15 -2.41099e-13 0 0 -5.74482e-15 -2.66394e-14 -1.24451e-14 -3.25311e-14 -4.60409e-14 -4.79017e-14 -4.72471e-14 -2.57501e-14 -5.63576e-14 -1.64167e-14 -7.1276e-14 -3.41999e-14 -2.85851e-14 -3.52968e-14 -9.19967e-14 9.10028e-14 -9.6181e-14 2.82767e-15 2.93914e-14 2.65227e-14 2.89861e-14 6.83023e-14 -9.0642e-14 -9.09772e-14 -8.17639e-14 -5.19008e-14 -4.87464e-14 -3.75596e-14 -7.43623e-14 3.3556e-14 4.0412e-16 -4.12511e-14 -5.43606e-14 3.57895e-14 1.8928e-14 6.65371e-14 8.14623e-14 7.83194e-13 3.79823e-12 2.25091e-11 1.28758e-10 7.01532e-10 3.62938e-09 1.78148e-08 8.27453e-08 3.62771e-07 1.49694e-06 5.79482e-06 2.09651e-05 7.05755e-05 0.00021991 0.000630372 0.00165058 0.0039179 0.00837096 0.0160272 0.0275181 0.0427009 0.0607476 0.080635 0.10156 0.123034 0.144799 0.166722 0.188734 0.210795 0.232882 0.25498 0.277077 0.299155 0.321197 0.343192 0.365128 0.386994 0.408782 0.430486 0.4521 0.473621 0.495043 0.516363 0.537575 0.558671 0.579643 0.60048 0.621168 0.641691 0.662029 0.682155 0.702039 0.721644 0.740925 0.759826 0.778282 0.796215 0.81353 0.830119 0.845858 0.860609 0.874225 0.886559 0.897474 0.90686 0.914654 0.920851 0.925517 0.928796 0.930895 0.932063 0.93256 0.93258 0.932498 0.932326 0.932082 0.931791 0.931476 0.931155 0.930845 0.930554 0.930289 0.930052 0.929847 0.929678 0.929556 0.929497 0.92953 0.929716 0.930143 0.930904 0.932107 0.933865 0.936261 0.939435 0.943032 0.949252 0.949504 0.94547 0.939943 0.935428 0.932354 0.930437 0.92933 0.92873 0.928421 0.928267 0.92819 0.928148 0.928115 0.928079 0.928024 0.927929 0.927758 0.927447 0.926885 0.925876 0.924084 0.920941 0.915501 0.906239 0.890806 0.865828 0.826933 0.769311 0.689055 0.585333 0.46287 0.333236 0.214075 0.120595 0.0592321 0.0258793 0.0104692 0.00406912 0.00155316 0.000588066 0.000221758 8.34073e-05 3.1303e-05 1.17227e-05 4.37997e-06 1.63236e-06 6.0667e-07 2.24783e-07 8.30081e-08 3.05421e-08 1.11934e-08 4.08498e-09 1.48381e-09 5.36572e-10 1.9275e-10 6.8844e-11 2.39886e-11 8.30587e-12 2.96222e-12 7.58013e-13 1.33735e-13 -3.53739e-13 -4.26042e-14 4.88581e-13 -1.71228e-13 0 0 -7.5805e-15 -1.12511e-14 -1.94897e-14 -2.91153e-14 -3.59353e-14 -3.03506e-14 -5.75362e-14 -4.52529e-14 -6.46197e-14 -5.22203e-14 -7.83209e-15 -3.48072e-14 -3.9549e-14 -2.51612e-14 -2.93573e-14 -1.73297e-14 -3.8202e-15 3.69269e-14 -4.32324e-14 1.07289e-14 -3.27206e-14 -5.85194e-14 1.07004e-15 -1.06293e-14 -4.13802e-14 -8.35373e-15 -9.00558e-14 -7.37951e-14 -8.02168e-14 -1.08396e-13 6.27657e-14 -4.76098e-14 6.2515e-14 2.56404e-14 -5.63722e-14 3.64101e-14 1.80623e-13 7.10013e-13 3.83249e-12 2.25398e-11 1.28814e-10 7.01446e-10 3.62958e-09 1.78146e-08 8.27452e-08 3.62771e-07 1.49694e-06 5.79482e-06 2.09651e-05 7.05755e-05 0.00021991 0.000630372 0.00165058 0.0039179 0.00837096 0.0160272 0.0275181 0.0427009 0.0607476 0.080635 0.10156 0.123034 0.144799 0.166722 0.188734 0.210795 0.232882 0.25498 0.277077 0.299155 0.321197 0.343192 0.365128 0.386994 0.408782 0.430486 0.4521 0.473621 0.495043 0.516363 0.537575 0.558671 0.579643 0.60048 0.621168 0.641691 0.662029 0.682155 0.702039 0.721644 0.740925 0.759826 0.778282 0.796215 0.81353 0.830119 0.845858 0.860609 0.874225 0.886559 0.897474 0.90686 0.914654 0.920851 0.925517 0.928796 0.930895 0.932063 0.93256 0.93258 0.932498 0.932326 0.932082 0.931791 0.931476 0.931155 0.930845 0.930554 0.930289 0.930052 0.929847 0.929678 0.929556 0.929497 0.92953 0.929716 0.930143 0.930904 0.932107 0.933865 0.936261 0.939435 0.943032 0.949252 0.949504 0.94547 0.939943 0.935428 0.932354 0.930437 0.92933 0.92873 0.928421 0.928267 0.92819 0.928148 0.928115 0.928079 0.928024 0.927929 0.927758 0.927447 0.926885 0.925876 0.924084 0.920941 0.915501 0.906239 0.890806 0.865828 0.826933 0.769311 0.689055 0.585333 0.46287 0.333236 0.214075 0.120595 0.0592321 0.0258793 0.0104692 0.00406912 0.00155316 0.000588066 0.000221758 8.34073e-05 3.1303e-05 1.17227e-05 4.37997e-06 1.63236e-06 6.0667e-07 2.24783e-07 8.30084e-08 3.05418e-08 1.11936e-08 4.08483e-09 1.48368e-09 5.36497e-10 1.92848e-10 6.87615e-11 2.44246e-11 8.73181e-12 2.63885e-12 1.13468e-12 -1.83491e-13 -1.92124e-13 3.74433e-13 2.05647e-13 -1.45077e-13 0 0 -5.14186e-15 2.65211e-15 -2.32915e-14 -1.38419e-14 -1.62798e-14 -2.45379e-14 1.56662e-14 -8.33544e-14 3.63095e-15 -1.00408e-13 -2.07038e-14 -4.93346e-14 -4.55178e-14 -2.50362e-14 2.97301e-14 -9.86323e-14 6.97603e-14 -5.31768e-14 -4.56209e-15 -5.22865e-14 -3.26953e-14 -1.05622e-13 8.04705e-15 -1.95255e-14 8.6752e-14 -1.93954e-13 -6.2315e-14 -1.49095e-13 -2.50491e-14 -4.00232e-15 -2.80362e-15 7.05859e-14 7.04173e-14 4.80307e-15 2.70072e-14 -6.12105e-14 2.56333e-13 5.81269e-13 3.85428e-12 2.23272e-11 1.28846e-10 7.01428e-10 3.62975e-09 1.78148e-08 8.27451e-08 3.62771e-07 1.49694e-06 5.79482e-06 2.09651e-05 7.05755e-05 0.00021991 0.000630372 0.00165058 0.0039179 0.00837096 0.0160272 0.0275181 0.0427009 0.0607476 0.080635 0.10156 0.123034 0.144799 0.166722 0.188734 0.210795 0.232882 0.25498 0.277077 0.299155 0.321197 0.343192 0.365128 0.386994 0.408782 0.430486 0.4521 0.473621 0.495043 0.516363 0.537575 0.558671 0.579643 0.60048 0.621168 0.641691 0.662029 0.682155 0.702039 0.721644 0.740925 0.759826 0.778282 0.796215 0.81353 0.830119 0.845858 0.860609 0.874225 0.886559 0.897474 0.90686 0.914654 0.920851 0.925517 0.928796 0.930895 0.932063 0.93256 0.93258 0.932498 0.932326 0.932082 0.931791 0.931476 0.931155 0.930845 0.930554 0.930289 0.930052 0.929847 0.929678 0.929556 0.929497 0.92953 0.929716 0.930143 0.930904 0.932107 0.933865 0.936261 0.939435 0.943032 0.949252 0.949504 0.94547 0.939943 0.935428 0.932354 0.930437 0.92933 0.92873 0.928421 0.928267 0.92819 0.928148 0.928115 0.928079 0.928024 0.927929 0.927758 0.927447 0.926885 0.925876 0.924084 0.920941 0.915501 0.906239 0.890806 0.865828 0.826933 0.769311 0.689055 0.585333 0.46287 0.333236 0.214075 0.120595 0.0592321 0.0258793 0.0104692 0.00406912 0.00155316 0.000588066 0.000221758 8.34073e-05 3.1303e-05 1.17227e-05 4.37997e-06 1.63236e-06 6.06671e-07 2.24782e-07 8.30085e-08 3.05421e-08 1.11935e-08 4.08466e-09 1.4841e-09 5.36084e-10 1.92948e-10 6.86266e-11 2.46677e-11 8.77456e-12 2.61704e-12 9.57569e-13 5.22918e-13 4.63741e-13 2.68937e-14 -5.95018e-14 -2.00285e-13 0 0 1.85845e-15 -2.45859e-14 9.04796e-15 -2.50753e-14 -2.14884e-14 8.92759e-15 -7.25615e-14 6.67295e-14 -1.47299e-14 -1.2695e-14 -1.2219e-13 -4.23462e-14 -5.07122e-14 -3.52322e-14 -7.82561e-14 9.76286e-14 -1.50559e-13 9.79208e-14 -8.31767e-14 -1.08766e-14 -4.08062e-14 3.09501e-14 -8.74117e-14 -7.52678e-14 -7.08759e-14 5.85132e-14 -2.44766e-13 -2.0834e-13 1.76469e-15 1.58503e-13 3.83552e-14 -4.28441e-14 7.18368e-14 5.65898e-14 6.95184e-14 1.54642e-13 2.77303e-14 7.3385e-13 3.57753e-12 2.24502e-11 1.28585e-10 7.01489e-10 3.62985e-09 1.78148e-08 8.27454e-08 3.62771e-07 1.49694e-06 5.79482e-06 2.09651e-05 7.05755e-05 0.00021991 0.000630372 0.00165058 0.0039179 0.00837096 0.0160272 0.0275181 0.0427009 0.0607476 0.080635 0.10156 0.123034 0.144799 0.166722 0.188734 0.210795 0.232882 0.25498 0.277077 0.299155 0.321197 0.343192 0.365128 0.386994 0.408782 0.430486 0.4521 0.473621 0.495043 0.516363 0.537575 0.558671 0.579643 0.60048 0.621168 0.641691 0.662029 0.682155 0.702039 0.721644 0.740925 0.759826 0.778282 0.796215 0.81353 0.830119 0.845858 0.860609 0.874225 0.886559 0.897474 0.90686 0.914654 0.920851 0.925517 0.928796 0.930895 0.932063 0.93256 0.93258 0.932498 0.932326 0.932082 0.931791 0.931476 0.931155 0.930845 0.930554 0.930289 0.930052 0.929847 0.929678 0.929556 0.929497 0.92953 0.929716 0.930143 0.930904 0.932107 0.933865 0.936261 0.939435 0.943032 0.949252 0.949504 0.94547 0.939943 0.935428 0.932354 0.930437 0.92933 0.92873 0.928421 0.928267 0.92819 0.928148 0.928115 0.928079 0.928024 0.927929 0.927758 0.927447 0.926885 0.925876 0.924084 0.920941 0.915501 0.906239 0.890806 0.865828 0.826933 0.769311 0.689055 0.585333 0.46287 0.333236 0.214075 0.120595 0.0592321 0.0258793 0.0104692 0.00406912 0.00155316 0.000588066 0.000221758 8.34073e-05 3.1303e-05 1.17227e-05 4.37997e-06 1.63236e-06 6.06671e-07 2.24783e-07 8.30073e-08 3.05424e-08 1.11935e-08 4.08537e-09 1.48349e-09 5.36893e-10 1.92803e-10 6.87053e-11 2.37728e-11 8.18492e-12 3.53259e-12 5.77875e-13 1.05507e-12 5.33455e-13 -3.50211e-13 5.91694e-13 2.5503e-13 0
				</DataArray>
				<DataArray Name="VitesseY" type="Float32" format="ascii">