<?xml version="1.0"?>
<VTKFile type="PolyData">
	<PolyData>
		<Piece NumberOfPoints="1206" NumberOfPolys="1000">
			<Points>
				<DataArray type="Float32" NumberOfComponents="3" format="ascii">
 0 0 0 0.005 0 0 0.01 0 0 0.015 0 0 0.02 0 0 0.025 0 0 0.03 0 0 0.035 0 0 0.04 0 0 0.045 0 0 0.05 0 0 0.055 0 0 0.06 0 0 0.065 0 0 0.07 0 0 0.075 0 0 0.08 0 0 0.085 0 0 0.09 0 0 0.095 0 0 0.1 0 0 0.105 0 0 0.11 0 0 0.115 0 0 0.12 0 0 0.125 0 0 0.13 0 0 0.135 0 0 0.14 0 0 0.145 0 0 0.15 0 0 0.155 0 0 0.16 0 0 0.165 0 0 0.17 0 0 0.175 0 0 0.18 0 0 0.185 0 0 0.19 0 0 0.195 0 0 0.2 0 0 0.205 0 0 0.21 0 0 0.215 0 0 0.22 0 0 0.225 0 0 0.23 0 0 0.235 0 0 0.24 0 0 0.245 0 0 0.25 0 0 0.255 0 0 0.26 0 0 0.265 0 0 0.27 0 0 0.275 0 0 0.28 0 0 0.285 0 0 0.29 0 0 0.295 0 0 0.3 0 0 0.305 0 0 0.31 0 0 0.315 0 0 0.32 0 0 0.325 0 0 0.33 0 0 0.335 0 0 0.34 0 0 0.345 0 0 0.35 0 0 0.355 0 0 0.36 0 0 0.365 0 0 0.37 0 0 0.375 0 0 0.38 0 0 0.385 0 0 0.39 0 0 0.395 0 0 0.4 0 0 0.405 0 0 0.41 0 0 0.415 0 0 0.42 0 0 0.425 0 0 0.43 0 0 0.435 0 0 0.44 0 0 0.445 0 0 0.45 0 0 0.455 0 0 0.46 0 0 0.465 0 0 0.47 0 0 0.475 0 0 0.48 0 0 0.485 0 0 0.49 0 0 0.495 0 0 0.5 0 0 0.505 0 0 0.51 0 0 0.515 0 0 0.52 0 0 0.525 0 0 0.53 0 0 0.535 0 0 0.54 0 0 0.545 0 0 0.55 0 0 0.555 0 0 0.56 0 0 0.565 0 0 0.57 0 0 0.575 0 0 0.58 0 0 0.585 0 0 0.59 0 0 0.595 0 0 0.6 0 0 0.605 0 0 0.61 0 0 0.615 0 0 0.62 0 0 0.625 0 0 0.63 0 0 0.635 0 0 0.64 0 0 0.645 0 0 0.65 0 0 0.655 0 0 0.66 0 0 0.665 0 0 0.67 0 0 0.675 0 0 0.68 0 0 0.685 0 0 0.69 0 0 0.695 0 0 0.7 0 0 0.705 0 0 0.71 0 0 0.715 0 0 0.72 0 0 0.725 0 0 0.73 0 0 0.735 0 0 0.74 0 0 0.745 0 0 0.75 0 0 0.755 0 0 0.76 0 0 0.765 0 0 0.77 0 0 0.775 0 0 0.78 0 0 0.785 0 0 0.79 0 0 0.795 0 0 0.8 0 0 0.805 0 0 0.81 0 0 0.815 0 0 0.82 0 0 0.825 0 0 0.83 0 0 0.835 0 0 0.84 0 0 0.845 0 0 0.85 0 0 0.855 0 0 0.86 0 0 0.865 0 0 0.87 0 0 0.875 0 0 0.88 0 0 0.885 0 0 0.89 0 0 0.895 0 0 0.9 0 0 0.905 0 0 0.91 0 0 0.915 0 0 0.92 0 0 0.925 0 0 0.93 0 0 0.935 0 0 0.94 0 0 0.945 0 0 0.95 0 0 0.955 0 0 0.96 0 0 0.965 0 0 0.97 0 0 0.975 0 0 0.98 0 0 0.985 0 0 0.99 0 0 0.995 0 0 1 0 0 0 0.02 0 0.005 0.02 0 0.01 0.02 0 0.015 0.02 0 0.02 0.02 0 0.025 0.02 0 0.03 0.02 0 0.035 0.02 0 0.04 0.02 0 0.045 0.02 0 0.05 0.02 0 0.055 0.02 0 0.06 0.02 0 0.065 0.02 0 0.07 0.02 0 0.075 0.02 0 0.08 0.02 0 0.085 0.02 0 0.09 0.02 0 0.095 0.02 0 0.1 0.02 0 0.105 0.02 0 0.11 0.02 0 0.115 0.02 0 0.12 0.02 0 0.125 0.02 0 0.13 0.02 0 0.135 0.02 0 0.14 0.02 0 0.145 0.02 0 0.15 0.02 0 0.155 0.02 0 0.16 0.02 0 0.165 0.02 0 0.17 0.02 0 0.175 0.02 0 0.18 0.02 0 0.185 0.02 0 0.19 0.02 0 0.195 0.02 0 0.2 0.02 0 0.205 0.02 0 0.21 0.02 0 0.215 0.02 0 0.22 0.02 0 0.225 0.02 0 0.23 0.02 0 0.235 0.02 0 0.24 0.02 0 0.245 0.02 0 0.25 0.02 0 0.255 0.02 0 0.26 0.02 0 0.265 0.02 0 0.27 0.02 0 0.275 0.02 0 0.28 0.02 0 0.285 0.02 0 0.29 0.02 0 0.295 0.02 0 0.3 0.02 0 0.305 0.02 0 0.31 0.02 0 0.315 0.02 0 0.32 0.02 0 0.325 0.02 0 0.33 0.02 0 0.335 0.02 0 0.34 0.02 0 0.345 0.02 0 0.35 0.02 0 0.355 0.02 0 0.36 0.02 0 0.365 0.02 0 0.37 0.02 0 0.375 0.02 0 0.38 0.02 0 0.385 0.02 0 0.39 0.02 0 0.395 0.02 0 0.4 0.02 0 0.405 0.02 0 0.41 0.02 0 0.415 0.02 0 0.42 0.02 0 0.425 0.02 0 0.43 0.02 0 0.435 0.02 0 0.44 0.02 0 0.445 0.02 0 0.45 0.02 0 0.455 0.02 0 0.46 0.02 0 0.465 0.02 0 0.47 0.02 0 0.475 0.02 0 0.48 0.02 0 0.485 0.02 0 0.49 0.02 0 0.495 0.02 0 0.5 0.02 0 0.505 0.02 0 0.51 0.02 0 0.515 0.02 0 0.52 0.02 0 0.525 0.02 0 0.53 0.02 0 0.535 0.02 0 0.54 0.02 0 0.545 0.02 0 0.55 0.02 0 0.555 0.02 0 0.56 0.02 0 0.565 0.02 0 0.57 0.02 0 0.575 0.02 0 0.58 0.02 0 0.585 0.02 0 0.59 0.02 0 0.595 0.02 0 0.6 0.02 0 0.605 0.02 0 0.61 0.02 0 0.615 0.02 0 0.62 0.02 0 0.625 0.02 0 0.63 0.02 0 0.635 0.02 0 0.64 0.02 0 0.645 0.02 0 0.65 0.02 0 0.655 0.02 0 0.66 0.02 0 0.665 0.02 0 0.67 0.02 0 0.675 0.02 0 0.68 0.02 0 0.685 0.02 0 0.69 0.02 0 0.695 0.02 0 0.7 0.02 0 0.705 0.02 0 0.71 0.02 0 0.715 0.02 0 0.72 0.02 0 0.725 0.02 0 0.73 0.02 0 0.735 0.02 0 0.74 0.02 0 0.745 0.02 0 0.75 0.02 0 0.755 0.02 0 0.76 0.02 0 0.765 0.02 0 0.77 0.02 0 0.775 0.02 0 0.78 0.02 0 0.785 0.02 0 0.79 0.02 0 0.795 0.02 0 0.8 0.02 0 0.805 0.02 0 0.81 0.02 0 0.815 0.02 0 0.82 0.02 0 0.825 0.02 0 0.83 0.02 0 0.835 0.02 0 0.84 0.02 0 0.845 0.02 0 0.85 0.02 0 0.855 0.02 0 0.86 0.02 0 0.865 0.02 0 0.87 0.02 0 0.875 0.02 0 0.88 0.02 0 0.885 0.02 0 0.89 0.02 0 0.895 0.02 0 0.9 0.02 0 0.905 0.02 0 0.91 0.02 0 0.915 0.02 0 0.92 0.02 0 0.925 0.02 0 0.93 0.02 0 0.935 0.02 0 0.94 0.02 0 0.945 0.02 0 0.95 0.02 0 0.955 0.02 0 0.96 0.02 0 0.965 0.02 0 0.97 0.02 0 0.975 0.02 0 0.98 0.02 0 0.985 0.02 0 0.99 0.02 0 0.995 0.02 0 1 0.02 0 0 0.04 0 0.005 0.04 0 0.01 0.04 0 0.015 0.04 0 0.02 0.04 0 0.025 0.04 0 0.03 0.04 0 0.035 0.04 0 0.04 0.04 0 0.045 0.04 0 0.05 0.04 0 0.055 0.04 0 0.06 0.04 0 0.065 0.04 0 0.07 0.04 0 0.075 0.04 0 0.08 0.04 0 0.085 0.04 0 0.09 0.04 0 0.095 0.04 0 0.1 0.04 0 0.105 0.04 0 0.11 0.04 0 0.115 0.04 0 0.12 0.04 0 0.125 0.04 0 0.13 0.04 0 0.135 0.04 0 0.14 0.04 0 0.145 0.04 0 0.15 0.04 0 0.155 0.04 0 0.16 0.04 0 0.165 0.04 0 0.17 0.04 0 0.175 0.04 0 0.18 0.04 0 0.185 0.04 0 0.19 0.04 0 0.195 0.04 0 0.2 0.04 0 0.205 0.04 0 0.21 0.04 0 0.215 0.04 0 0.22 0.04 0 0.225 0.04 0 0.23 0.04 0 0.235 0.04 0 0.24 0.04 0 0.245 0.04 0 0.25 0.04 0 0.255 0.04 0 0.26 0.04 0 0.265 0.04 0 0.27 0.04 0 0.275 0.04 0 0.28 0.04 0 0.285 0.04 0 0.29 0.04 0 0.295 0.04 0 0.3 0.04 0 0.305 0.04 0 0.31 0.04 0 0.315 0.04 0 0.32 0.04 0 0.325 0.04 0 0.33 0.04 0 0.335 0.04 0 0.34 0.04 0 0.345 0.04 0 0.35 0.04 0 0.355 0.04 0 0.36 0.04 0 0.365 0.04 0 0.37 0.04 0 0.375 0.04 0 0.38 0.04 0 0.385 0.04 0 0.39 0.04 0 0.395 0.04 0 0.4 0.04 0 0.405 0.04 0 0.41 0.04 0 0.415 0.04 0 0.42 0.04 0 0.425 0.04 0 0.43 0.04 0 0.435 0.04 0 0.44 0.04 0 0.445 0.04 0 0.45 0.04 0 0.455 0.04 0 0.46 0.04 0 0.465 0.04 0 0.47 0.04 0 0.475 0.04 0 0.48 0.04 0 0.485 0.04 0 0.49 0.04 0 0.495 0.04 0 0.5 0.04 0 0.505 0.04 0 0.51 0.04 0 0.515 0.04 0 0.52 0.04 0 0.525 0.04 0 0.53 0.04 0 0.535 0.04 0 0.54 0.04 0 0.545 0.04 0 0.55 0.04 0 0.555 0.04 0 0.56 0.04 0 0.565 0.04 0 0.57 0.04 0 0.575 0.04 0 0.58 0.04 0 0.585 0.04 0 0.59 0.04 0 0.595 0.04 0 0.6 0.04 0 0.605 0.04 0 0.61 0.04 0 0.615 0.04 0 0.62 0.04 0 0.625 0.04 0 0.63 0.04 0 0.635 0.04 0 0.64 0.04 0 0.645 0.04 0 0.65 0.04 0 0.655 0.04 0 0.66 0.04 0 0.665 0.04 0 0.67 0.04 0 0.675 0.04 0 0.68 0.04 0 0.685 0.04 0 0.69 0.04 0 0.695 0.04 0 0.7 0.04 0 0.705 0.04 0 0.71 0.04 0 0.715 0.04 0 0.72 0.04 0 0.725 0.04 0 0.73 0.04 0 0.735 0.04 0 0.74 0.04 0 0.745 0.04 0 0.75 0.04 0 0.755 0.04 0 0.76 0.04 0 0.765 0.04 0 0.77 0.04 0 0.775 0.04 0 0.78 0.04 0 0.785 0.04 0 0.79 0.04 0 0.795 0.04 0 0.8 0.04 0 0.805 0.04 0 0.81 0.04 0 0.815 0.04 0 0.82 0.04 0 0.825 0.04 0 0.83 0.04 0 0.835 0.04 0 0.84 0.04 0 0.845 0.04 0 0.85 0.04 0 0.855 0.04 0 0.86 0.04 0 0.865 0.04 0 0.87 0.04 0 0.875 0.04 0 0.88 0.04 0 0.885 0.04 0 0.89 0.04 0 0.895 0.04 0 0.9 0.04 0 0.905 0.04 0 0.91 0.04 0 0.915 0.04 0 0.92 0.04 0 0.925 0.04 0 0.93 0.04 0 0.935 0.04 0 0.94 0.04 0 0.945 0.04 0 0.95 0.04 0 0.955 0.04 0 0.96 0.04 0 0.965 0.04 0 0.97 0.04 0 0.975 0.04 0 0.98 0.04 0 0.985 0.04 0 0.99 0.04 0 0.995 0.04 0 1 0.04 0 0 0.06 0 0.005 0.06 0 0.01 0.06 0 0.015 0.06 0 0.02 0.06 0 0.025 0.06 0 0.03 0.06 0 0.035 0.06 0 0.04 0.06 0 0.045 0.06 0 0.05 0.06 0 0.055 0.06 0 0.06 0.06 0 0.065 0.06 0 0.07 0.06 0 0.075 0.06 0 0.08 0.06 0 0.085 0.06 0 0.09 0.06 0 0.095 0.06 0 0.1 0.06 0 0.105 0.06 0 0.11 0.06 0 0.115 0.06 0 0.12 0.06 0 0.125 0.06 0 0.13 0.06 0 0.135 0.06 0 0.14 0.06 0 0.145 0.06 0 0.15 0.06 0 0.155 0.06 0 0.16 0.06 0 0.165 0.06 0 0.17 0.06 0 0.175 0.06 0 0.18 0.06 0 0.185 0.06 0 0.19 0.06 0 0.195 0.06 0 0.2 0.06 0 0.205 0.06 0 0.21 0.06 0 0.215 0.06 0 0.22 0.06 0 0.225 0.06 0 0.23 0.06 0 0.235 0.06 0 0.24 0.06 0 0.245 0.06 0 0.25 0.06 0 0.255 0.06 0 0.26 0.06 0 0.265 0.06 0 0.27 0.06 0 0.275 0.06 0 0.28 0.06 0 0.285 0.06 0 0.29 0.06 0 0.295 0.06 0 0.3 0.06 0 0.305 0.06 0 0.31 0.06 0 0.315 0.06 0 0.32 0.06 0 0.325 0.06 0 0.33 0.06 0 0.335 0.06 0 0.34 0.06 0 0.345 0.06 0 0.35 0.06 0 0.355 0.06 0 0.36 0.06 0 0.365 0.06 0 0.37 0.06 0 0.375 0.06 0 0.38 0.06 0 0.385 0.06 0 0.39 0.06 0 0.395 0.06 0 0.4 0.06 0 0.405 0.06 0 0.41 0.06 0 0.415 0.06 0 0.42 0.06 0 0.425 0.06 0 0.43 0.06 0 0.435 0.06 0 0.44 0.06 0 0.445 0.06 0 0.45 0.06 0 0.455 0.06 0 0.46 0.06 0 0.465 0.06 0 0.47 0.06 0 0.475 0.06 0 0.48 0.06 0 0.485 0.06 0 0.49 0.06 0 0.495 0.06 0 0.5 0.06 0 0.505 0.06 0 0.51 0.06 0 0.515 0.06 0 0.52 0.06 0 0.525 0.06 0 0.53 0.06 0 0.535 0.06 0 0.54 0.06 0 0.545 0.06 0 0.55 0.06 0 0.555 0.06 0 0.56 0.06 0 0.565 0.06 0 0.57 0.06 0 0.575 0.06 0 0.58 0.06 0 0.585 0.06 0 0.59 0.06 0 0.595 0.06 0 0.6 0.06 0 0.605 0.06 0 0.61 0.06 0 0.615 0.06 0 0.62 0.06 0 0.625 0.06 0 0.63 0.06 0 0.635 0.06 0 0.64 0.06 0 0.645 0.06 0 0.65 0.06 0 0.655 0.06 0 0.66 0.06 0 0.665 0.06 0 0.67 0.06 0 0.675 0.06 0 0.68 0.06 0 0.685 0.06 0 0.69 0.06 0 0.695 0.06 0 0.7 0.06 0 0.705 0.06 0 0.71 0.06 0 0.715 0.06 0 0.72 0.06 0 0.725 0.06 0 0.73 0.06 0 0.735 0.06 0 0.74 0.06 0 0.745 0.06 0 0.75 0.06 0 0.755 0.06 0 0.76 0.06 0 0.765 0.06 0 0.77 0.06 0 0.775 0.06 0 0.78 0.06 0 0.785 0.06 0 0.79 0.06 0 0.795 0.06 0 0.8 0.06 0 0.805 0.06 0 0.81 0.06 0 0.815 0.06 0 0.82 0.06 0 0.825 0.06 0 0.83 0.06 0 0.835 0.06 0 0.84 0.06 0 0.845 0.06 0 0.85 0.06 0 0.855 0.06 0 0.86 0.06 0 0.865 0.06 0 0.87 0.06 0 0.875 0.06 0 0.88 0.06 0 0.885 0.06 0 0.89 0.06 0 0.895 0.06 0 0.9 0.06 0 0.905 0.06 0 0.91 0.06 0 0.915 0.06 0 0.92 0.06 0 0.925 0.06 0 0.93 0.06 0 0.935 0.06 0 0.94 0.06 0 0.945 0.06 0 0.95 0.06 0 0.955 0.06 0 0.96 0.06 0 0.965 0.06 0 0.97 0.06 0 0.975 0.06 0 0.98 0.06 0 0.985 0.06 0 0.99 0.06 0 0.995 0.06 0 1 0.06 0 0 0.08 0 0.005 0.08 0 0.01 0.08 0 0.015 0.08 0 0.02 0.08 0 0.025 0.08 0 0.03 0.08 0 0.035 0.08 0 0.04 0.08 0 0.045 0.08 0 0.05 0.08 0 0.055 0.08 0 0.06 0.08 0 0.065 0.08 0 0.07 0.08 0 0.075 0.08 0 0.08 0.08 0 0.085 0.08 0 0.09 0.08 0 0.095 0.08 0 0.1 0.08 0 0.105 0.08 0 0.11 0.08 0 0.115 0.08 0 0.12 0.08 0 0.125 0.08 0 0.13 0.08 0 0.135 0.08 0 0.14 0.08 0 0.145 0.08 0 0.15 0.08 0 0.155 0.08 0 0.16 0.08 0 0.165 0.08 0
[...]
			<PointData Scalars="VitesseX">
				<DataArray Name="VitesseX" type="Float32" format="ascii">
 0 -9.35621e-15 -2.85214e-14 -1.56863e-14 -3.62094e-14 -2.7099e-14 -5.58869e-14 -7.20718e-14 -1.74128e-14 -8.85119e-14 -4.70605e-14 -7.89303e-14 -4.76736e-14 -2.34445e-14 -6.73872e-14 -4.69803e-14 1.36686e-13 -8.38508e-14 6.54637e-14 -2.85331e-14 -6.84895e-14 5.79912e-15 -5.06372e-14 -5.5331e-14 3.93518e-16 -4.04889e-14 -3.54311e-14 -7.66127e-14 -8.36896e-14 -4.17408e-15 1.23458e-13 -5.47483e-14 6.0599e-14 -8.78209e-14 1.73652e-13 4.77673e-13 2.28739e-12 1.25474e-11 7.1823e-11 3.85422e-10 1.97177e-09 9.59778e-09 4.43254e-08 1.93781e-07 7.99888e-07 3.10839e-06 1.13337e-05 3.86229e-05 0.000122453 0.000359256 0.000969226 0.0023877 0.00533295 0.010736 0.0194341 0.0317398 0.0472421 0.0650617 0.0843077 0.104346 0.124807 0.145499 0.166319 0.187214 0.208152 0.229114 0.250086 0.27106 0.292021 0.312955 0.333852 0.354703 0.375498 0.39623 0.416893 0.437482 0.457993 0.478423 0.498767 0.519023 0.539184 0.559244 0.579198 0.599034 0.618742 0.638309 0.657716 0.676944 0.695968 0.714757 0.733275 0.75148 0.769317 0.786724 0.803627 0.819938 0.835556 0.850365 0.864239 0.877044 0.888645 0.898919 0.907767 0.915132 0.921008 0.92546 0.928616 0.930666 0.931839 0.932356 0.932418 0.932354 0.932205 0.931988 0.931722 0.931429 0.931127 0.93083 0.930549 0.930289 0.930053 0.929842 0.929656 0.9295 0.929377 0.929301 0.929285 0.929365 0.929613 0.930102 0.930922 0.932174 0.93396 0.936353 0.939462 0.943019 0.948845 0.948572 0.944449 0.939177 0.934966 0.93209 0.930286 0.929236 0.928663 0.928366 0.928218 0.928147 0.928111 0.92809 0.92807 0.928045 0.928004 0.927932 0.927801 0.927564 0.927136 0.926371 0.925012 0.922627 0.918486 0.911396 0.899472 0.879894 0.848791 0.80148 0.733376 0.641742 0.528111 0.400499 0.273668 0.165485 0.0873 0.0404116 0.0169474 0.00671011 0.00258474 0.000983731 0.000372372 0.000140549 5.29426e-05 1.99072e-05 7.47171e-06 2.79879e-06 1.04611e-06 3.90063e-07 1.45058e-07 5.37872e-08 1.98812e-08 7.32315e-09 2.68719e-09 9.81854e-10 3.57424e-10 1.29551e-10 4.63479e-11 1.66754e-11 6.02281e-12 1.90629e-12 1.41633e-12 -1.98912e-13 0 0 -8.26882e-15 -1.13264e-14 -3.355e-14 -3.10711e-14 -4.90809e-14 -2.76834e-14 -3.83439e-14 -7.59504e-14 -5.15966e-14 -7.50389e-14 -3.64777e-14 -4.44337e-14 -5.89174e-14 -1.87528e-14 -3.41068e-15 -3.26358e-14 7.53483e-14 -3.30499e-15 2.76042e-14 -3.38287e-14 -4.70234e-14 2.7802e-14 -9.32744e-14 -3.50086e-14 -3.99589e-14 -1.69288e-13 3.92379e-14 -2.22639e-14 8.96263e-15 -7.75616e-14 5.03997e-14 2.93349e-15 8.25979e-14 1.16284e-13 3.30422e-13 2.25531e-12 1.29114e-11 7.16428e-11 3.8518e-10 1.97203e-09 9.59775e-09 4.43252e-08 1.93781e-07 7.99888e-07 3.10839e-06 1.13337e-05 3.86229e-05 0.000122453 0.000359256 0.000969226 0.0023877 0.00533295 0.010736 0.0194341 0.0317398 0.0472421 0.0650617 0.0843077 0.104346 0.124807 0.145499 0.166319 0.187214 0.208152 0.229114 0.250086 0.27106 0.292021 0.312955 0.333852 0.354703 0.375498 0.39623 0.416893 0.437482 0.457993 0.478423 0.498767 0.519023 0.539184 0.559244 0.579198 0.599034 0.618742 0.638309 0.657716 0.676944 0.695968 0.714757 0.733275 0.75148 0.769317 0.786724 0.803627 0.819938 0.835556 0.850365 0.864239 0.877044 0.888645 0.898919 0.907767 0.915132 0.921008 0.92546 0.928616 0.930666 0.931839 0.932356 0.932418 0.932354 0.932205 0.931988 0.931722 0.931429 0.931127 0.93083 0.930549 0.930289 0.930053 0.929842 0.929656 0.9295 0.929377 0.929301 0.929285 0.929365 0.929613 0.930102 0.930922 0.932174 0.93396 0.936353 0.939462 0.943019 0.948845 0.948572 0.944449 0.939177 0.934966 0.93209 0.930286 0.929236 0.928663 0.928366 0.928218 0.928147 0.928111 0.92809 0.92807 0.928045 0.928004 0.927932 0.927801 0.927564 0.927136 0.926371 0.925012 0.922627 0.918486 0.911396 0.899472 0.879894 0.848791 0.80148 0.733376 0.641742 0.528111 0.400499 0.273668 0.165485 0.0873 0.0404116 0.0169474 0.00671011 0.00258474 0.000983731 0.000372372 0.000140549 5.29426e-05 1.99072e-05 7.47171e-06 2.7988e-06 1.04611e-06 3.90062e-07 1.45057e-07 5.37876e-08 1.98809e-08 7.32298e-09 2.68724e-09 9.82096e-10 3.57202e-10 1.29185e-10 4.68559e-11 1.65591e-11 5.75972e-12 2.14123e-12 6.44714e-14 3.24503e-13 0 0 -6.76128e-15 -1.91127e-14 -2.99427e-14 -2.9802e-14 -3.465e-14 -3.22672e-14 -7.52096e-14 -1.84886e-14 -5.98458e-14 -7.15789e-14 -1.36931e-14 -2.557e-14 -1.91404e-14 -5.13617e-14 3.0947e-14 -1.3641e-14 -2.05631e-14 8.84996e-14 -5.60597e-14 -4.98593e-14 3.0663e-14 -4.32509e-14 3.2991e-14 -8.11844e-14 -8.02409e-14 -1.39555e-14 -6.60651e-14 -9.75187e-14 -5.96297e-14 5.2789e-14 4.71199e-15 2.48235e-14 -5.09678e-14 1.34054e-13 4.30477e-13 2.35123e-12 1.28484e-11 7.15968e-11 3.85273e-10 1.97185e-09 9.5979e-09 4.4325e-08 1.93781e-07 7.99888e-07 3.10839e-06 1.13337e-05 3.86229e-05 0.000122453 0.000359256 0.000969226 0.0023877 0.00533295 0.010736 0.0194341 0.0317398 0.0472421 0.0650617 0.0843077 0.104346 0.124807 0.145499 0.166319 0.187214 0.208152 0.229114 0.250086 0.27106 0.292021 0.312955 0.333852 0.354703 0.375498 0.39623 0.416893 0.437482 0.457993 0.478423 0.498767 0.519023 0.539184 0.559244 0.579198 0.599034 0.618742 0.638309 0.657716 0.676944 0.695968 0.714757 0.733275 0.75148 0.769317 0.786724 0.803627 0.819938 0.835556 0.850365 0.864239 0.877044 0.888645 0.898919 0.907767 0.915132 0.921008 0.92546 0.928616 0.930666 0.931839 0.932356 0.932418 0.932354 0.932205 0.931988 0.931722 0.931429 0.931127 0.93083 0.930549 0.930289 0.930053 0.929842 0.929656 0.9295 0.929377 0.929301 0.929285 0.929365 0.929613 0.930102 0.930922 0.932174 0.93396 0.936353 0.939462 0.943019 0.948845 0.948572 0.944449 0.939177 0.934966 0.93209 0.930286 0.929236 0.928663 0.928366 0.928218 0.928147 0.928111 0.92809 0.92807 0.928045 0.928004 0.927932 0.927801 0.927564 0.927136 0.926371 0.925012 0.922627 0.918486 0.911396 0.899472 0.879894 0.848791 0.80148 0.733376 0.641742 0.528111 0.400499 0.273668 0.165485 0.0873 0.0404116 0.0169474 0.00671011 0.00258474 0.000983731 0.000372372 0.000140549 5.29426e-05 1.99072e-05 7.47171e-06 2.79879e-06 1.04611e-06 3.90063e-07 1.45057e-07 5.37875e-08 1.98811e-08 7.32284e-09 2.68735e-09 9.81803e-10 3.575e-10 1.29181e-10 4.65247e-11 1.66661e-11 5.55331e-12 1.67575e-12 5.92773e-13 3.55867e-13 0 0 -9.4631e-15 -1.96359e-14 -1.54673e-14 -2.45867e-14 -2.12776e-14 -4.53208e-14 -6.51693e-14 -3.59387e-14 -1.57261e-14 -1.97888e-14 -8.92121e-14 -1.74721e-14 4.81506e-15 1.21277e-14 -3.15797e-14 7.63532e-15 -7.99758e-15 -1.134e-14 -1.69406e-14 3.8292e-14 -7.4933e-14 -6.44071e-14 -1.03889e-13 7.12651e-14 -5.62631e-14 -1.92539e-14 -7.4954e-14 -1.8438e-13 4.63225e-14 5.78065e-14 -5.16324e-14 5.46448e-14 -1.50547e-14 8.02761e-14 5.26899e-13 2.19161e-12 1.27001e-11 7.17781e-11 3.85325e-10 1.97196e-09 9.59778e-09 4.43251e-08 1.93781e-07 7.99888e-07 3.10839e-06 1.13337e-05 3.86229e-05 0.000122453 0.000359256 0.000969226 0.0023877 0.00533295 0.010736 0.0194341 0.0317398 0.0472421 0.0650617 0.0843077 0.104346 0.124807 0.145499 0.166319 0.187214 0.208152 0.229114 0.250086 0.27106 0.292021 0.312955 0.333852 0.354703 0.375498 0.39623 0.416893 0.437482 0.457993 0.478423 0.498767 0.519023 0.539184 0.559244 0.579198 0.599034 0.618742 0.638309 0.657716 0.676944 0.695968 0.714757 0.733275 0.75148 0.769317 0.786724 0.803627 0.819938 0.835556 0.850365 0.864239 0.877044 0.888645 0.898919 0.907767 0.915132 0.921008 0.92546 0.928616 0.930666 0.931839 0.932356 0.932418 0.932354 0.932205 0.931988 0.931722 0.931429 0.931127 0.93083 0.930549 0.930289 0.930053 0.929842 0.929656 0.9295 0.929377 0.929301 0.929285 0.929365 0.929613 0.930102 0.930922 0.932174 0.93396 0.936353 0.939462 0.943019 0.948845 0.948572 0.944449 0.939177 0.934966 0.93209 0.930286 0.929236 0.928663 0.928366 0.928218 0.928147 0.928111 0.92809 0.92807 0.928045 0.928004 0.927932 0.927801 0.927564 0.927136 0.926371 0.925012 0.922627 0.918486 0.911396 0.899472 0.879894 0.848791 0.80148 0.733376 0.641742 0.528111 0.400499 0.273668 0.165485 0.0873 0.0404116 0.0169474 0.00671011 0.00258474 0.000983731 0.000372372 0.000140549 5.29426e-05 1.99072e-05 7.47171e-06 2.79879e-06 1.04611e-06 3.90062e-07 1.45058e-07 5.37874e-08 1.9881e-08 7.32327e-09 2.68735e-09 9.82157e-10 3.57238e-10 1.29443e-10 4.64989e-11 1.66287e-11 5.87e-12 1.9318e-12 4.70385e-13 -3.41455e-13 0 0 -5.20116e-15 3.09501e-15 -9.07642e-15 -4.86804e-15 -3.11671e-14 -1.69558e-14 -2.55349e-14 -6.63826e-14 -1.54838e-14 -4.55938e-14 -8.08653e-14 -2.72014e-14 -4.85117e-14 6.64383e-14 1.56089e-16 -3.36211e-14 8.17991e-14 -7.28094e-14 3.1358e-14 -1.82095e-14 -1.46164e-13 1.49606e-14 -2.26137e-13 2.17816e-14 -3.94522e-14 -1.58467e-13 2.21004e-14 5.10364e-14 1.02938e-13 -6.99298e-14 5.36825e-14 8.10223e-15 1.65852e-13 3.53671e-14 4.27277e-13 2.08327e-12 1.28161e-11 7.16358e-11 3.85099e-10 1.97218e-09 9.59781e-09 4.43253e-08 1.93781e-07 7.99888e-07 3.10839e-06 1.13337e-05 3.86229e-05 0.000122453 0.000359256 0.000969226 0.0023877 0.00533295 0.010736 0.0194341 0.0317398 0.0472421 0.0650617 0.0843077 0.104346 0.124807 0.145499 0.166319 0.187214 0.208152 0.229114 0.250086 0.27106 0.292021 0.312955 0.333852 0.354703 0.375498 0.39623 0.416893 0.437482 0.457993 0.478423 0.498767 0.519023 0.539184 0.559244 0.579198 0.599034 0.618742 0.638309 0.657716 0.676944 0.695968 0.714757 0.733275 0.75148 0.769317 0.786724 0.803627 0.819938 0.835556 0.850365 0.864239 0.877044 0.888645 0.898919 0.907767 0.915132 0.921008 0.92546 0.928616 0.930666 0.931839 0.932356 0.932418 0.932354 0.932205 0.931988 0.931722 0.931429 0.931127 0.93083 0.930549 0.930289 0.930053 0.929842 0.929656 0.9295 0.929377 0.929301 0.929285 0.929365 0.929613 0.930102 0.930922 0.932174 0.93396 0.936353 0.939462 0.943019 0.948845 0.948572 0.944449 0.939177 0.934966 0.93209 0.930286 0.929236 0.928663 0.928366 0.928218 0.928147 0.928111 0.92809 0.92807 0.928045 0.928004 0.927932 0.927801 0.927564 0.927136 0.926371 0.925012 0.922627 0.918486 0.911396 0.899472 0.879894 0.848791 0.80148 0.733376 0.641742 0.528111 0.400499 0.273668 0.165485 0.0873 0.0404116 0.0169474 0.00671011 0.00258474 0.000983731 0.000372372 0.000140549 5.29426e-05 1.99072e-05 7.47171e-06 2.79879e-06 1.04611e-06 3.90062e-07 1.45058e-07 5.37876e-08 1.98808e-08 7.32331e-09 2.68719e-09 9.82544e-10 3.57332e-10 1.29298e-10 4.69342e-11 1.65554e-11 5.81136e-12 2.41798e-12 -2.32509e-13 -1.32681e-13 0 0 2.18275e-15 1.36783e-15 4.31009e-15 5.76603e-15 -1.8016e-14 -8.32449e-15 -6.65345e-14 3.66229e-14 -1.04526e-13 -9.17504e-14 -1.66674e-14 -2.94049e-14 -5.05442e-14 -2.39839e-14 8.52066e-14 9.21627e-14 -9.60801e-14 1.26134e-13 -9.92638e-14 -2.13554e-13 1.87095e-14 -3.40076e-14 -4.7298e-14 -1.90925e-13 -8.74309e-14 -3.19298e-15 -9.311e-14 2.36634e-13 -2.81271e-14 1.28687e-13 6.45062e-14 1.1294e-14 6.86116e-15 1.19375e-13 4.7854e-13 2.26254e-12 1.26535e-11 7.14465e-11 3.85156e-10 1.97185e-09 9.59813e-09 4.43254e-08 1.93781e-07 7.99888e-07 3.10839e-06 1.13337e-05 3.86229e-05 0.000122453 0.000359256 0.000969226 0.0023877 0.00533295 0.010736 0.0194341 0.0317398 0.0472421 0.0650617 0.0843077 0.104346 0.124807 0.145499 0.166319 0.187214 0.208152 0.229114 0.250086 0.27106 0.292021 0.312955 0.333852 0.354703 0.375498 0.39623 0.416893 0.437482 0.457993 0.478423 0.498767 0.519023 0.539184 0.559244 0.579198 0.599034 0.618742 0.638309 0.657716 0.676944 0.695968 0.714757 0.733275 0.75148 0.769317 0.786724 0.803627 0.819938 0.835556 0.850365 0.864239 0.877044 0.888645 0.898919 0.907767 0.915132 0.921008 0.92546 0.928616 0.930666 0.931839 0.932356 0.932418 0.932354 0.932205 0.931988 0.931722 0.931429 0.931127 0.93083 0.930549 0.930289 0.930053 0.929842 0.929656 0.9295 0.929377 0.929301 0.929285 0.929365 0.929613 0.930102 0.930922 0.932174 0.93396 0.936353 0.939462 0.943019 0.948845 0.948572 0.944449 0.939177 0.934966 0.93209 0.930286 0.929236 0.928663 0.928366 0.928218 0.928147 0.928111 0.92809 0.92807 0.928045 0.928004 0.927932 0.927801 0.927564 0.927136 0.926371 0.925012 0.922627 0.918486 0.911396 0.899472 0.879894 0.848791 0.80148 0.733376 0.641742 0.528111 0.400499 0.273668 0.165485 0.0873 0.0404116 0.0169474 0.00671011 0.00258474 0.000983731 0.000372372 0.000140549 5.29426e-05 1.99072e-05 7.47171e-06 2.79879e-06 1.04611e-06 3.90063e-07 1.45058e-07 5.37874e-08 1.98811e-08 7.32295e-09 2.68709e-09 9.82043e-10 3.58207e-10 1.29254e-10 4.65562e-11 1.67428e-11 5.49271e-12 1.9477e-12 1.06714e-12 2.81364e-13 0
				</DataArray>
				<DataArray Name="VitesseY" type="Float32" format="ascii">