<?xml version="1.0"?>
<VTKFile type="PolyData">
	<PolyData>
		<Piece NumberOfPoints="1206" NumberOfPolys="1000">
			<Points>
				<DataArray type="Float32" NumberOfComponents="3" format="ascii">
 0 0 0 0.005 0 0 0.01 0 0 0.015 0 0 0.02 0 0 0.025 0 0 0.03 0 0 0.035 0 0 0.04 0 0 0.045 0 0 0.05 0 0 0.055 0 0 0.06 0 0 0.065 0 0 0.07 0 0 0.075 0 0 0.08 0 0 0.085 0 0 0.09 0 0 0.095 0 0 0.1 0 0 0.105 0 0 0.11 0 0 0.115 0 0 0.12 0 0 0.125 0 0 0.13 0 0 0.135 0 0 0.14 0 0 0.145 0 0 0.15 0 0 0.155 0 0 0.16 0 0 0.165 0 0 0.17 0 0 0.175 0 0 0.18 0 0 0.185 0 0 0.19 0 0 0.195 0 0 0.2 0 0 0.205 0 0 0.21 0 0 0.215 0 0 0.22 0 0 0.225 0 0 0.23 0 0 0.235 0 0 0.24 0 0 0.245 0 0 0.25 0 0 0.255 0 0 0.26 0 0 0.265 0 0 0.27 0 0 0.275 0 0 0.28 0 0 0.285 0 0 0.29 0 0 0.295 0 0 0.3 0 0 0.305 0 0 0.31 0 0 0.315 0 0 0.32 0 0 0.325 0 0 0.33 0 0 0.335 0 0 0.34 0 0 0.345 0 0 0.35 0 0 0.355 0 0 0.36 0 0 0.365 0 0 0.37 0 0 0.375 0 0 0.38 0 0 0.385 0 0 0.39 0 0 0.395 0 0 0.4 0 0 0.405 0 0 0.41 0 0 0.415 0 0 0.42 0 0 0.425 0 0 0.43 0 0 0.435 0 0 0.44 0 0 0.445 0 0 0.45 0 0 0.455 0 0 0.46 0 0 0.465 0 0 0.47 0 0 0.475 0 0 0.48 0 0 0.485 0 0 0.49 0 0 0.495 0 0 0.5 0 0 0.505 0 0 0.51 0 0 0.515 0 0 0.52 0 0 0.525 0 0 0.53 0 0 0.535 0 0 0.54 0 0 0.545 0 0 0.55 0 0 0.555 0 0 0.56 0 0 0.565 0 0 0.57 0 0 0.575 0 0 0.58 0 0 0.585 0 0 0.59 0 0 0.595 0 0 0.6 0 0 0.605 0 0 0.61 0 0 0.615 0 0 0.62 0 0 0.625 0 0 0.63 0 0 0.635 0 0 0.64 0 0 0.645 0 0 0.65 0 0 0.655 0 0 0.66 0 0 0.665 0 0 0.67 0 0 0.675 0 0 0.68 0 0 0.685 0 0 0.69 0 0 0.695 0 0 0.7 0 0 0.705 0 0 0.71 0 0 0.715 0 0 0.72 0 0 0.725 0 0 0.73 0 0 0.735 0 0 0.74 0 0 0.745 0 0 0.75 0 0 0.755 0 0 0.76 0 0 0.765 0 0 0.77 0 0 0.775 0 0 0.78 0 0 0.785 0 0 0.79 0 0 0.795 0 0 0.8 0 0 0.805 0 0 0.81 0 0 0.815 0 0 0.82 0 0 0.825 0 0 0.83 0 0 0.835 0 0 0.84 0 0 0.845 0 0 0.85 0 0 0.855 0 0 0.86 0 0 0.865 0 0 0.87 0 0 0.875 0 0 0.88 0 0 0.885 0 0 0.89 0 0 0.895 0 0 0.9 0 0 0.905 0 0 0.91 0 0 0.915 0 0 0.92 0 0 0.925 0 0 0.93 0 0 0.935 0 0 0.94 0 0 0.945 0 0 0.95 0 0 0.955 0 0 0.96 0 0 0.965 0 0 0.97 0 0 0.975 0 0 0.98 0 0 0.985 0 0 0.99 0 0 0.995 0 0 1 0 0 0 0.02 0 0.005 0.02 0 0.01 0.02 0 0.015 0.02 0 0.02 0.02 0 0.025 0.02 0 0.03 0.02 0 0.035 0.02 0 0.04 0.02 0 0.045 0.02 0 0.05 0.02 0 0.055 0.02 0 0.06 0.02 0 0.065 0.02 0 0.07 0.02 0 0.075 0.02 0 0.08 0.02 0 0.085 0.02 0 0.09 0.02 0 0.095 0.02 0 0.1 0.02 0 0.105 0.02 0 0.11 0.02 0 0.115 0.02 0 0.12 0.02 0 0.125 0.02 0 0.13 0.02 0 0.135 0.02 0 0.14 0.02 0 0.145 0.02 0 0.15 0.02 0 0.155 0.02 0 0.16 0.02 0 0.165 0.02 0 0.17 0.02 0 0.175 0.02 0 0.18 0.02 0 0.185 0.02 0 0.19 0.02 0 0.195 0.02 0 0.2 0.02 0 0.205 0.02 0 0.21 0.02 0 0.215 0.02 0 0.22 0.02 0 0.225 0.02 0 0.23 0.02 0 0.235 0.02 0 0.24 0.02 0 0.245 0.02 0 0.25 0.02 0 0.255 0.02 0 0.26 0.02 0 0.265 0.02 0 0.27 0.02 0 0.275 0.02 0 0.28 0.02 0 0.285 0.02 0 0.29 0.02 0 0.295 0.02 0 0.3 0.02 0 0.305 0.02 0 0.31 0.02 0 0.315 0.02 0 0.32 0.02 0 0.325 0.02 0 0.33 0.02 0 0.335 0.02 0 0.34 0.02 0 0.345 0.02 0 0.35 0.02 0 0.355 0.02 0 0.36 0.02 0 0.365 0.02 0 0.37 0.02 0 0.375 0.02 0 0.38 0.02 0 0.385 0.02 0 0.39 0.02 0 0.395 0.02 0 0.4 0.02 0 0.405 0.02 0 0.41 0.02 0 0.415 0.02 0 0.42 0.02 0 0.425 0.02 0 0.43 0.02 0 0.435 0.02 0 0.44 0.02 0 0.445 0.02 0 0.45 0.02 0 0.455 0.02 0 0.46 0.02 0 0.465 0.02 0 0.47 0.02 0 0.475 0.02 0 0.48 0.02 0 0.485 0.02 0 0.49 0.02 0 0.495 0.02 0 0.5 0.02 0 0.505 0.02 0 0.51 0.02 0 0.515 0.02 0 0.52 0.02 0 0.525 0.02 0 0.53 0.02 0 0.535 0.02 0 0.54 0.02 0 0.545 0.02 0 0.55 0.02 0 0.555 0.02 0 0.56 0.02 0 0.565 0.02 0 0.57 0.02 0 0.575 0.02 0 0.58 0.02 0 0.585 0.02 0 0.59 0.02 0 0.595 0.02 0 0.6 0.02 0 0.605 0.02 0 0.61 0.02 0 0.615 0.02 0 0.62 0.02 0 0.625 0.02 0 0.63 0.02 0 0.635 0.02 0 0.64 0.02 0 0.645 0.02 0 0.65 0.02 0 0.655 0.02 0 0.66 0.02 0 0.665 0.02 0 0.67 0.02 0 0.675 0.02 0 0.68 0.02 0 0.685 0.02 0 0.69 0.02 0 0.695 0.02 0 0.7 0.02 0 0.705 0.02 0 0.71 0.02 0 0.715 0.02 0 0.72 0.02 0 0.725 0.02 0 0.73 0.02 0 0.735 0.02 0 0.74 0.02 0 0.745 0.02 0 0.75 0.02 0 0.755 0.02 0 0.76 0.02 0 0.765 0.02 0 0.77 0.02 0 0.775 0.02 0 0.78 0.02 0 0.785 0.02 0 0.79 0.02 0 0.795 0.02 0 0.8 0.02 0 0.805 0.02 0 0.81 0.02 0 0.815 0.02 0 0.82 0.02 0 0.825 0.02 0 0.83 0.02 0 0.835 0.02 0 0.84 0.02 0 0.845 0.02 0 0.85 0.02 0 0.855 0.02 0 0.86 0.02 0 0.865 0.02 0 0.87 0.02 0 0.875 0.02 0 0.88 0.02 0 0.885 0.02 0 0.89 0.02 0 0.895 0.02 0 0.9 0.02 0 0.905 0.02 0 0.91 0.02 0 0.915 0.02 0 0.92 0.02 0 0.925 0.02 0 0.93 0.02 0 0.935 0.02 0 0.94 0.02 0 0.945 0.02 0 0.95 0.02 0 0.955 0.02 0 0.96 0.02 0 0.965 0.02 0 0.97 0.02 0 0.975 0.02 0 0.98 0.02 0 0.985 0.02 0 0.99 0.02 0 0.995 0.02 0 1 0.02 0 0 0.04 0 0.005 0.04 0 0.01 0.04 0 0.015 0.04 0 0.02 0.04 0 0.025 0.04 0 0.03 0.04 0 0.035 0.04 0 0.04 0.04 0 0.045 0.04 0 0.05 0.04 0 0.055 0.04 0 0.06 0.04 0 0.065 0.04 0 0.07 0.04 0 0.075 0.04 0 0.08 0.04 0 0.085 0.04 0 0.09 0.04 0 0.095 0.04 0 0.1 0.04 0 0.105 0.04 0 0.11 0.04 0 0.115 0.04 0 0.12 0.04 0 0.125 0.04 0 0.13 0.04 0 0.135 0.04 0 0.14 0.04 0 0.145 0.04 0 0.15 0.04 0 0.155 0.04 0 0.16 0.04 0 0.165 0.04 0 0.17 0.04 0 0.175 0.04 0 0.18 0.04 0 0.185 0.04 0 0.19 0.04 0 0.195 0.04 0 0.2 0.04 0 0.205 0.04 0 0.21 0.04 0 0.215 0.04 0 0.22 0.04 0 0.225 0.04 0 0.23 0.04 0 0.235 0.04 0 0.24 0.04 0 0.245 0.04 0 0.25 0.04 0 0.255 0.04 0 0.26 0.04 0 0.265 0.04 0 0.27 0.04 0 0.275 0.04 0 0.28 0.04 0 0.285 0.04 0 0.29 0.04 0 0.295 0.04 0 0.3 0.04 0 0.305 0.04 0 0.31 0.04 0 0.315 0.04 0 0.32 0.04 0 0.325 0.04 0 0.33 0.04 0 0.335 0.04 0 0.34 0.04 0 0.345 0.04 0 0.35 0.04 0 0.355 0.04 0 0.36 0.04 0 0.365 0.04 0 0.37 0.04 0 0.375 0.04 0 0.38 0.04 0 0.385 0.04 0 0.39 0.04 0 0.395 0.04 0 0.4 0.04 0 0.405 0.04 0 0.41 0.04 0 0.415 0.04 0 0.42 0.04 0 0.425 0.04 0 0.43 0.04 0 0.435 0.04 0 0.44 0.04 0 0.445 0.04 0 0.45 0.04 0 0.455 0.04 0 0.46 0.04 0 0.465 0.04 0 0.47 0.04 0 0.475 0.04 0 0.48 0.04 0 0.485 0.04 0 0.49 0.04 0 0.495 0.04 0 0.5 0.04 0 0.505 0.04 0 0.51 0.04 0 0.515 0.04 0 0.52 0.04 0 0.525 0.04 0 0.53 0.04 0 0.535 0.04 0 0.54 0.04 0 0.545 0.04 0 0.55 0.04 0 0.555 0.04 0 0.56 0.04 0 0.565 0.04 0 0.57 0.04 0 0.575 0.04 0 0.58 0.04 0 0.585 0.04 0 0.59 0.04 0 0.595 0.04 0 0.6 0.04 0 0.605 0.04 0 0.61 0.04 0 0.615 0.04 0 0.62 0.04 0 0.625 0.04 0 0.63 0.04 0 0.635 0.04 0 0.64 0.04 0 0.645 0.04 0 0.65 0.04 0 0.655 0.04 0 0.66 0.04 0 0.665 0.04 0 0.67 0.04 0 0.675 0.04 0 0.68 0.04 0 0.685 0.04 0 0.69 0.04 0 0.695 0.04 0 0.7 0.04 0 0.705 0.04 0 0.71 0.04 0 0.715 0.04 0 0.72 0.04 0 0.725 0.04 0 0.73 0.04 0 0.735 0.04 0 0.74 0.04 0 0.745 0.04 0 0.75 0.04 0 0.755 0.04 0 0.76 0.04 0 0.765 0.04 0 0.77 0.04 0 0.775 0.04 0 0.78 0.04 0 0.785 0.04 0 0.79 0.04 0 0.795 0.04 0 0.8 0.04 0 0.805 0.04 0 0.81 0.04 0 0.815 0.04 0 0.82 0.04 0 0.825 0.04 0 0.83 0.04 0 0.835 0.04 0 0.84 0.04 0 0.845 0.04 0 0.85 0.04 0 0.855 0.04 0 0.86 0.04 0 0.865 0.04 0 0.87 0.04 0 0.875 0.04 0 0.88 0.04 0 0.885 0.04 0 0.89 0.04 0 0.895 0.04 0 0.9 0.04 0 0.905 0.04 0 0.91 0.04 0 0.915 0.04 0 0.92 0.04 0 0.925 0.04 0 0.93 0.04 0 0.935 0.04 0 0.94 0.04 0 0.945 0.04 0 0.95 0.04 0 0.955 0.04 0 0.96 0.04 0 0.965 0.04 0 0.97 0.04 0 0.975 0.04 0 0.98 0.04 0 0.985 0.04 0 0.99 0.04 0 0.995 0.04 0 1 0.04 0 0 0.06 0 0.005 0.06 0 0.01 0.06 0 0.015 0.06 0 0.02 0.06 0 0.025 0.06 0 0.03 0.06 0 0.035 0.06 0 0.04 0.06 0 0.045 0.06 0 0.05 0.06 0 0.055 0.06 0 0.06 0.06 0 0.065 0.06 0 0.07 0.06 0 0.075 0.06 0 0.08 0.06 0 0.085 0.06 0 0.09 0.06 0 0.095 0.06 0 0.1 0.06 0 0.105 0.06 0 0.11 0.06 0 0.115 0.06 0 0.12 0.06 0 0.125 0.06 0 0.13 0.06 0 0.135 0.06 0 0.14 0.06 0 0.145 0.06 0 0.15 0.06 0 0.155 0.06 0 0.16 0.06 0 0.165 0.06 0 0.17 0.06 0 0.175 0.06 0 0.18 0.06 0 0.185 0.06 0 0.19 0.06 0 0.195 0.06 0 0.2 0.06 0 0.205 0.06 0 0.21 0.06 0 0.215 0.06 0 0.22 0.06 0 0.225 0.06 0 0.23 0.06 0 0.235 0.06 0 0.24 0.06 0 0.245 0.06 0 0.25 0.06 0 0.255 0.06 0 0.26 0.06 0 0.265 0.06 0 0.27 0.06 0 0.275 0.06 0 0.28 0.06 0 0.285 0.06 0 0.29 0.06 0 0.295 0.06 0 0.3 0.06 0 0.305 0.06 0 0.31 0.06 0 0.315 0.06 0 0.32 0.06 0 0.325 0.06 0 0.33 0.06 0 0.335 0.06 0 0.34 0.06 0 0.345 0.06 0 0.35 0.06 0 0.355 0.06 0 0.36 0.06 0 0.365 0.06 0 0.37 0.06 0 0.375 0.06 0 0.38 0.06 0 0.385 0.06 0 0.39 0.06 0 0.395 0.06 0 0.4 0.06 0 0.405 0.06 0 0.41 0.06 0 0.415 0.06 0 0.42 0.06 0 0.425 0.06 0 0.43 0.06 0 0.435 0.06 0 0.44 0.06 0 0.445 0.06 0 0.45 0.06 0 0.455 0.06 0 0.46 0.06 0 0.465 0.06 0 0.47 0.06 0 0.475 0.06 0 0.48 0.06 0 0.485 0.06 0 0.49 0.06 0 0.495 0.06 0 0.5 0.06 0 0.505 0.06 0 0.51 0.06 0 0.515 0.06 0 0.52 0.06 0 0.525 0.06 0 0.53 0.06 0 0.535 0.06 0 0.54 0.06 0 0.545 0.06 0 0.55 0.06 0 0.555 0.06 0 0.56 0.06 0 0.565 0.06 0 0.57 0.06 0 0.575 0.06 0 0.58 0.06 0 0.585 0.06 0 0.59 0.06 0 0.595 0.06 0 0.6 0.06 0 0.605 0.06 0 0.61 0.06 0 0.615 0.06 0 0.62 0.06 0 0.625 0.06 0 0.63 0.06 0 0.635 0.06 0 0.64 0.06 0 0.645 0.06 0 0.65 0.06 0 0.655 0.06 0 0.66 0.06 0 0.665 0.06 0 0.67 0.06 0 0.675 0.06 0 0.68 0.06 0 0.685 0.06 0 0.69 0.06 0 0.695 0.06 0 0.7 0.06 0 0.705 0.06 0 0.71 0.06 0 0.715 0.06 0 0.72 0.06 0 0.725 0.06 0 0.73 0.06 0 0.735 0.06 0 0.74 0.06 0 0.745 0.06 0 0.75 0.06 0 0.755 0.06 0 0.76 0.06 0 0.765 0.06 0 0.77 0.06 0 0.775 0.06 0 0.78 0.06 0 0.785 0.06 0 0.79 0.06 0 0.795 0.06 0 0.8 0.06 0 0.805 0.06 0 0.81 0.06 0 0.815 0.06 0 0.82 0.06 0 0.825 0.06 0 0.83 0.06 0 0.835 0.06 0 0.84 0.06 0 0.845 0.06 0 0.85 0.06 0 0.855 0.06 0 0.86 0.06 0 0.865 0.06 0 0.87 0.06 0 0.875 0.06 0 0.88 0.06 0 0.885 0.06 0 0.89 0.06 0 0.895 0.06 0 0.9 0.06 0 0.905 0.06 0 0.91 0.06 0 0.915 0.06 0 0.92 0.06 0 0.925 0.06 0 0.93 0.06 0 0.935 0.06 0 0.94 0.06 0 0.945 0.06 0 0.95 0.06 0 0.955 0.06 0 0.96 0.06 0 0.965 0.06 0 0.97 0.06 0 0.975 0.06 0 0.98 0.06 0 0.985 0.06 0 0.99 0.06 0 0.995 0.06 0 1 0.06 0 0 0.08 0 0.005 0.08 0 0.01 0.08 0 0.015 0.08 0 0.02 0.08 0 0.025 0.08 0 0.03 0.08 0 0.035 0.08 0 0.04 0.08 0 0.045 0.08 0 0.05 0.08 0 0.055 0.08 0 0.06 0.08 0 0.065 0.08 0 0.07 0.08 0 0.075 0.08 0 0.08 0.08 0 0.085 0.08 0 0.09 0.08 0 0.095 0.08 0 0.1 0.08 0 0.105 0.08 0 0.11 0.08 0 0.115 0.08 0 0.12 0.08 0 0.125 0.08 0 0.13 0.08 0 0.135 0.08 0 0.14 0.08 0 0.145 0.08 0 0.15 0.08 0 0.155 0.08 0 0.16 0.08 0 0.165 0.08 0
[...]
			<PointData Scalars="VitesseX">
				<DataArray Name="VitesseX" type="Float32" format="ascii">
 0 3.37016e-14 1.9179e-16 7.71626e-14 -4.21757e-14 -2.72843e-14 2.06662e-15 6.44213e-15 -4.03823e-15 2.02611e-14 -1.73478e-14 -1.10242e-13 3.9723e-14 -1.88813e-13 2.01302e-14 1.76698e-14 -1.00301e-13 4.48272e-14 -4.13158e-14 -8.68524e-14 -1.34443e-13 -6.61172e-14 -1.50276e-13 -9.06752e-14 -6.04821e-14 -8.77506e-14 -8.92012e-14 -6.36815e-14 -5.24813e-14 -7.8688e-14 -6.69846e-14 9.44966e-14 -9.31118e-14 -5.64793e-14 -1.26541e-13 -1.47171e-13 5.77635e-14 -1.81434e-13 1.44808e-13 -5.52818e-13 -5.16107e-14 -3.84161e-13 -2.31611e-13 5.04053e-14 -7.70354e-15 9.68481e-14 1.41815e-13 -1.85698e-13 5.87681e-14 -1.41603e-13 1.78764e-13 -8.76899e-14 -4.16037e-13 1.8743e-13 -3.48394e-13 -2.70955e-13 1.42979e-13 -3.80887e-13 2.23082e-13 9.56079e-14 -1.3022e-13 -1.96853e-13 -2.03286e-13 2.53576e-13 -1.50662e-13 -1.35739e-13 5.72983e-14 -5.05119e-13 2.13715e-13 4.00166e-13 5.48739e-12 6.10544e-11 6.17321e-10 5.76837e-09 4.90996e-08 3.78745e-07 2.62924e-06 1.62921e-05 8.92187e-05 0.000426451 0.00175161 0.00606621 0.0173589 0.0404623 0.0771217 0.123851 0.175557 0.22914 0.28327 0.337388 0.390868 0.443136 0.494055 0.543702 0.592017 0.638862 0.68399 0.727045 0.767524 0.804819 0.838197 0.866933 0.890437 0.908417 0.92111 0.929263 0.93394 0.936392 0.93793 0.939709 0.942694 0.947887 0.955876 0.970979 0.968879 0.957241 0.944331 0.935384 0.928389 0.920424 0.908167 0.887204 0.852212 0.797385 0.717802 0.611817 0.483946 0.346614 0.219488 0.120226 0.0563645 0.0230675 0.00861474 0.00305567 0.00105222 0.000354886 0.000117562 3.82702e-05 1.22391e-05 3.84349e-06 1.18464e-06 3.5822e-07 1.06234e-07 3.08896e-08 8.80489e-09 2.45993e-09 6.72878e-10 1.81e-10 4.7312e-11 1.2366e-11 2.44592e-12 -3.41026e-13 4.3801e-13 -3.00578e-14 -5.49527e-14 -6.19469e-13 6.41174e-14 2.19716e-13 7.28384e-13 3.0378e-13 -1.1307e-12 -5.96119e-13 9.50162e-14 6.99152e-13 6.57362e-13 -6.66188e-13 -6.18202e-13 -1.45922e-14 -3.71091e-15 3.37375e-13 2.36932e-13 -2.48007e-13 -6.87908e-14 -9.23054e-13 3.6583e-13 -4.24582e-13 4.33344e-13 -8.52236e-13 -9.97512e-13 5.33904e-13 4.60047e-13 4.11183e-13 1.88705e-13 -7.80607e-13 6.66563e-14 6.00806e-13 -2.20746e-13 -8.12702e-13 -6.0889e-13 -2.39845e-14 2.62552e-14 -1.03748e-12 -4.10939e-13 -2.47954e-13 1.59165e-13 1.38934e-13 -8.60721e-13 -4.07352e-14 5.21355e-13 7.51596e-13 0 0 -8.4233e-15 2.20398e-14 -2.94053e-14 5.7012e-14 2.34381e-14 2.37613e-14 -2.33415e-14 -1.93763e-14 -3.23111e-14 -5.89088e-14 1.19978e-14 -1.28706e-13 3.64191e-14 -9.13583e-14 -5.53742e-15 9.44503e-15 -1.07682e-13 -2.89145e-14 -6.87305e-14 -3.92415e-14 -1.00229e-13 -6.51278e-14 -1.29964e-13 -1.04356e-13 1.18493e-14 -1.27206e-13 -7.78772e-14 -6.53119e-14 -2.6993e-14 5.84605e-14 -2.17511e-13 5.20977e-14 -3.66292e-14 -1.12731e-13 3.3956e-14 -2.60686e-13 -1.04634e-14 -3.19533e-13 1.85027e-13 -3.25108e-13 -1.48432e-13 -1.17345e-13 -1.30637e-13 5.66959e-14 7.05426e-14 -1.65941e-13 1.57207e-13 6.72169e-14 1.64589e-13 -9.31813e-14 -3.65197e-13 6.931e-15 -3.71097e-13 5.96261e-14 -1.14228e-13 -4.23951e-13 1.22739e-13 -1.22091e-13 1.45567e-14 -3.57545e-14 -1.08368e-13 7.49698e-14 -2.26478e-13 3.48038e-14 -1.30622e-13 -2.63081e-13 2.25111e-13 -2.6186e-13 5.86913e-13 5.8986e-12 6.04175e-11 6.17855e-10 5.76793e-09 4.91005e-08 3.78744e-07 2.62924e-06 1.62922e-05 8.92187e-05 0.000426451 0.00175161 0.00606621 0.0173589 0.0404623 0.0771217 0.123851 0.175557 0.22914 0.28327 0.337388 0.390868 0.443136 0.494055 0.543702 0.592017 0.638862 0.68399 0.727045 0.767524 0.804819 0.838197 0.866933 0.890437 0.908417 0.92111 0.929263 0.93394 0.936392 0.93793 0.939709 0.942694 0.947887 0.955876 0.970979 0.968879 0.957241 0.944331 0.935384 0.928389 0.920424 0.908167 0.887204 0.852212 0.797385 0.717802 0.611817 0.483946 0.346614 0.219488 0.120226 0.0563645 0.0230675 0.00861474 0.00305567 0.00105222 0.000354886 0.000117562 3.82702e-05 1.22391e-05 3.84349e-06 1.18464e-06 3.5822e-07 1.06234e-07 3.08896e-08 8.8044e-09 2.45965e-09 6.74026e-10 1.80506e-10 4.74149e-11 1.1642e-11 2.87684e-12 8.32401e-13 -4.61646e-13 -2.89003e-13 -5.35169e-13 3.55011e-13 2.99079e-13 -1.07795e-13 -4.29014e-13 -3.90524e-13 4.01379e-13 6.40976e-13 -7.68279e-13 -7.59563e-13 -4.70292e-13 3.137e-13 4.16081e-13 1.36645e-13 -7.30066e-14 -3.1681e-13 -2.16511e-13 1.70583e-13 -9.68937e-15 3.93001e-13 -7.32313e-13 -2.28993e-13 -8.42015e-13 2.62426e-14 2.53591e-13 -1.1606e-13 -1.71213e-13 3.23664e-13 -8.62209e-15 2.16749e-13 -3.40051e-13 -3.68187e-13 1.29991e-13 2.3245e-13 2.71958e-14 -3.05382e-13 -7.99094e-13 -2.58029e-14 -5.22441e-13 -1.15164e-13 -7.3108e-13 -2.85815e-13 8.79466e-13 6.70629e-13 -5.36648e-13 -1.1379e-12 0 0 1.04514e-14 -1.52418e-15 2.23489e-14 4.21004e-14 3.62682e-14 5.6642e-15 1.37262e-15 1.68664e-14 -4.40753e-14 -1.0256e-14 -7.57909e-14 -4.03939e-14 -6.04024e-14 -9.68357e-15 -3.04358e-14 -5.54229e-14 -4.84874e-15 -1.12087e-13 -6.12366e-14 -4.17889e-14 -2.23645e-14 -6.05234e-14 -4.47367e-14 -5.93816e-14 -7.2755e-14 -5.03859e-14 -5.99712e-14 -8.26829e-14 -5.7914e-14 -6.22226e-14 -4.28816e-14 -6.25046e-14 -6.97919e-14 -6.09017e-14 -6.20938e-14 2.22543e-14 -1.78624e-13 -1.06353e-13 -1.49728e-13 -4.38666e-14 -1.03125e-13 3.9293e-14 -5.36734e-14 -5.69051e-14 -7.1084e-15 1.20464e-14 -1.40301e-13 -5.24898e-14 -2.41591e-13 -5.41363e-14 -1.46511e-14 -1.17747e-13 1.87287e-14 -9.78747e-14 -2.04225e-13 -9.21957e-14 -1.82512e-13 -1.50639e-14 -1.22074e-13 1.34321e-13 6.59512e-14 -1.02082e-13 -2.22423e-13 2.52553e-15 6.8925e-15 -6.64318e-14 -3.14479e-13 2.04824e-13 5.41552e-13 5.51521e-12 6.08264e-11 6.178e-10 5.76837e-09 4.91e-08 3.78744e-07 2.62924e-06 1.62921e-05 8.92187e-05 0.000426451 0.00175161 0.00606621 0.0173589 0.0404623 0.0771217 0.123851 0.175557 0.22914 0.28327 0.337388 0.390868 0.443136 0.494055 0.543702 0.592017 0.638862 0.68399 0.727045 0.767524 0.804819 0.838197 0.866933 0.890437 0.908417 0.92111 0.929263 0.93394 0.936392 0.93793 0.939709 0.942694 0.947887 0.955876 0.970979 0.968879 0.957241 0.944331 0.935384 0.928389 0.920424 0.908167 0.887204 0.852212 0.797385 0.717802 0.611817 0.483946 0.346614 0.219488 0.120226 0.0563645 0.0230675 0.00861474 0.00305567 0.00105222 0.000354886 0.000117562 3.82702e-05 1.22391e-05 3.84349e-06 1.18464e-06 3.5822e-07 1.06234e-07 3.08897e-08 8.80474e-09 2.45967e-09 6.73158e-10 1.80875e-10 4.72209e-11 1.22297e-11 2.94278e-12 -6.55781e-14 -4.92272e-14 -6.66238e-13 2.38356e-13 5.32259e-14 6.3395e-14 -2.22168e-13 -2.65848e-13 -2.0097e-13 -2.37229e-13 -4.24077e-13 -3.75853e-13 1.52481e-14 -2.04884e-13 -5.51356e-13 1.39455e-13 1.6988e-13 3.05745e-14 -7.32897e-14 -3.96213e-15 1.39112e-13 -8.78775e-14 -2.23376e-13 2.38075e-14 -7.26983e-13 -4.77984e-13 -5.58531e-14 -2.30322e-13 4.22626e-14 5.58059e-13 -1.37843e-13 3.82234e-14 3.48954e-13 1.60599e-13 -7.83022e-13 2.36173e-13 -2.77723e-13 3.04214e-13 -6.66638e-13 4.17376e-13 -4.70711e-13 -2.35122e-13 -5.89957e-13 -1.95255e-14 3.80176e-13 1.80839e-13 2.65769e-13 2.26458e-14 2.50666e-13 0 0 3.23814e-14 3.24172e-14 6.19694e-14 1.75944e-16 8.89296e-15 1.37865e-14 -1.48774e-14 -1.37548e-14 -3.94187e-14 2.05575e-14 -2.99114e-15 -5.96344e-15 -8.61103e-14 -2.31368e-14 6.43493e-15 -8.6891e-14 -8.83064e-14 -7.67631e-14 -2.99013e-14 -7.49981e-14 2.12209e-14 -8.78626e-14 1.72717e-14 7.79586e-14 -9.84261e-14 -5.33074e-14 -7.39231e-14 -9.13545e-14 -6.29456e-14 -7.97552e-14 -2.89762e-14 -1.68905e-13 -1.60345e-13 -2.07369e-14 -1.45177e-14 -1.5457e-14 -7.60861e-14 -8.65094e-14 -2.38207e-13 -7.95829e-14 -6.312e-15 -1.36302e-13 3.70618e-14 5.38245e-14 -5.61398e-14 -1.10492e-13 -2.33059e-13 -1.21992e-13 -7.77378e-14 -4.0335e-14 -3.79349e-14 -2.79813e-13 6.76542e-14 -3.49334e-13 -4.41227e-14 4.79831e-14 8.27965e-14 4.48819e-14 3.61529e-14 -2.43237e-14 -3.6472e-14 8.18135e-14 -1.13732e-13 1.14419e-13 -2.41111e-13 -2.99256e-13 -1.87882e-13 1.74265e-13 3.37996e-13 5.35939e-12 6.11873e-11 6.18064e-10 5.76816e-09 4.91e-08 3.78745e-07 2.62924e-06 1.62921e-05 8.92187e-05 0.000426451 0.00175161 0.00606621 0.0173589 0.0404623 0.0771217 0.123851 0.175557 0.22914 0.28327 0.337388 0.390868 0.443136 0.494055 0.543702 0.592017 0.638862 0.68399 0.727045 0.767524 0.804819 0.838197 0.866933 0.890437 0.908417 0.92111 0.929263 0.93394 0.936392 0.93793 0.939709 0.942694 0.947887 0.955876 0.970979 0.968879 0.957241 0.944331 0.935384 0.928389 0.920424 0.908167 0.887204 0.852212 0.797385 0.717802 0.611817 0.483946 0.346614 0.219488 0.120226 0.0563645 0.0230675 0.00861474 0.00305567 0.00105222 0.000354886 0.000117562 3.82702e-05 1.22391e-05 3.84349e-06 1.18464e-06 3.5822e-07 1.06234e-07 3.08898e-08 8.80461e-09 2.45955e-09 6.73197e-10 1.80381e-10 4.72774e-11 1.20339e-11 2.83158e-12 4.77593e-13 -1.34404e-13 2.93183e-14 4.01825e-14 -3.97013e-13 3.89519e-13 -2.3713e-13 -1.11915e-13 -1.32156e-13 -3.08093e-13 -4.5732e-13 -1.46722e-13 4.83148e-14 -3.65025e-13 2.19387e-13 -6.72314e-13 4.16804e-13 -3.2928e-13 4.98054e-13 1.62904e-13 -3.64822e-13 -2.29229e-13 -7.48292e-13 -8.38795e-14 -2.343e-13 3.69919e-14 -5.49177e-13 -4.53442e-13 -1.82218e-13 1.28123e-13 3.63418e-14 3.92702e-13 -2.63101e-13 3.36042e-13 4.92567e-13 -3.83689e-13 -2.50505e-13 -7.66424e-13 4.73311e-14 -4.38088e-13 -6.39532e-13 3.28856e-13 -9.38437e-13 1.83374e-13 -2.31024e-13 3.01789e-13 9.39123e-15 4.52368e-13 9.12493e-13 0 0 -1.40636e-14 2.67902e-14 -1.36068e-14 3.68225e-14 2.19233e-14 1.9731e-14 -3.7604e-14 -3.43593e-14 -1.5047e-14 -4.32538e-14 7.02453e-14 -8.24036e-14 8.86326e-14 -8.64464e-14 -2.66384e-14 1.1126e-14 -1.67621e-13 3.96018e-14 3.56612e-16 -4.48713e-14 -1.15295e-14 -1.36819e-14 -3.34059e-14 1.51927e-14 -2.2055e-14 -1.88219e-13 -8.73527e-14 -8.39898e-14 -8.54852e-14 -3.10943e-14 -1.87672e-13 -3.02635e-14 -7.81944e-14 -8.37471e-14 2.74455e-14 -2.1626e-13 3.24856e-14 -2.67757e-13 4.07382e-14 -3.00375e-13 5.36701e-14 -1.73018e-13 -5.25118e-14 1.40544e-13 -3.80227e-14 -8.37433e-14 2.56989e-13 5.48827e-14 1.91811e-13 -2.02805e-13 -3.11026e-13 -1.12044e-13 -4.39236e-13 -1.5825e-13 -7.32375e-14 -2.94209e-13 5.03926e-13 -8.0854e-16 1.02922e-13 -7.49987e-14 -2.32357e-13 3.55049e-14 -2.68355e-13 4.04322e-14 -2.3002e-13 -4.75895e-13 3.19615e-13 -2.10595e-13 7.00512e-13 5.96389e-12 6.0927e-11 6.18199e-10 5.76789e-09 4.91004e-08 3.78744e-07 2.62924e-06 1.62922e-05 8.92187e-05 0.000426451 0.00175161 0.00606621 0.0173589 0.0404623 0.0771217 0.123851 0.175557 0.22914 0.28327 0.337388 0.390868 0.443136 0.494055 0.543702 0.592017 0.638862 0.68399 0.727045 0.767524 0.804819 0.838197 0.866933 0.890437 0.908417 0.92111 0.929263 0.93394 0.936392 0.93793 0.939709 0.942694 0.947887 0.955876 0.970979 0.968879 0.957241 0.944331 0.935384 0.928389 0.920424 0.908167 0.887204 0.852212 0.797385 0.717802 0.611817 0.483946 0.346614 0.219488 0.120226 0.0563645 0.0230675 0.00861474 0.00305567 0.00105222 0.000354886 0.000117562 3.82702e-05 1.22391e-05 3.84349e-06 1.18464e-06 3.5822e-07 1.06234e-07 3.08896e-08 8.80443e-09 2.45926e-09 6.73912e-10 1.79937e-10 4.75506e-11 1.1716e-11 2.60233e-12 9.68121e-13 -3.38885e-13 1.15086e-13 -7.80967e-13 3.16291e-13 2.44591e-13 6.47314e-13 -5.63159e-13 -4.15991e-13 8.59157e-13 5.59164e-13 -8.30173e-13 -4.97297e-13 -3.34124e-13 3.50184e-13 -3.95424e-13 1.65901e-14 2.70959e-13 -5.4967e-15 -8.9753e-14 -1.12541e-13 -2.43883e-13 4.6299e-15 -1.18312e-12 1.09492e-13 -9.14239e-13 -3.91404e-13 1.96253e-13 5.32921e-14 -9.101e-13 1.52482e-13 8.8528e-14 2.38641e-13 -2.64128e-13 2.9457e-13 -2.28397e-13 5.64709e-13 -6.83038e-13 5.76856e-14 -1.0807e-12 -1.13519e-13 -1.21402e-13 -2.15482e-13 -5.67767e-13 -6.7719e-13 1.2564e-12 3.16462e-13 9.79018e-14 -2.8719e-13 0 0 -2.14391e-14 -5.81903e-14 2.95187e-14 1.29431e-15 2.44366e-14 -2.22385e-14 1.04172e-14 2.72382e-14 4.54762e-14 -4.76649e-14 -1.39346e-13 6.34659e-14 -3.29707e-14 5.68604e-14 -9.82736e-14 -3.40032e-14 9.18643e-14 2.50683e-14 -1.13488e-14 -7.92839e-14 2.41113e-14 7.29371e-15 -2.15753e-14 -9.60658e-14 -1.04217e-13 -2.05382e-13 -5.47286e-14 -7.24938e-14 -1.85609e-13 -2.11029e-13 1.26364e-13 -4.50333e-14 4.14959e-14 -1.48903e-13 -2.55344e-13 2.22039e-13 -3.00612e-13 2.08674e-13 -6.64438e-13 6.92881e-14 -1.73583e-13 8.23315e-15 2.51861e-14 -6.14661e-14 -2.22195e-14 5.51288e-13 1.99381e-13 1.73104e-13 -4.14866e-13 -6.80873e-14 6.72194e-14 -3.29854e-13 -4.6699e-14 -2.81228e-13 -5.09179e-13 1.22106e-13 -1.49127e-13 3.45755e-13 -4.41148e-14 1.08582e-13 -2.39985e-13 -6.50007e-13 -4.75599e-14 -3.63193e-13 1.6147e-13 9.73195e-14 -5.69305e-13 3.77362e-13 1.03448e-12 5.92961e-12 6.13515e-11 6.17482e-10 5.76871e-09 4.90996e-08 3.78745e-07 2.62924e-06 1.62921e-05 8.92187e-05 0.000426451 0.00175161 0.00606621 0.0173589 0.0404623 0.0771217 0.123851 0.175557 0.22914 0.28327 0.337388 0.390868 0.443136 0.494055 0.543702 0.592017 0.638862 0.68399 0.727045 0.767524 0.804819 0.838197 0.866933 0.890437 0.908417 0.92111 0.929263 0.93394 0.936392 0.93793 0.939709 0.942694 0.947887 0.955876 0.970979 0.968879 0.957241 0.944331 0.935384 0.928389 0.920424 0.908167 0.887204 0.852212 0.797385 0.717802 0.611817 0.483946 0.346614 0.219488 0.120226 0.0563645 0.0230675 0.00861474 0.00305567 0.00105222 0.000354886 0.000117562 3.82702e-05 1.22391e-05 3.84349e-06 1.18464e-06 3.5822e-07 1.06234e-07 3.08892e-08 8.80522e-09 2.45938e-09 6.72571e-10 1.8085e-10 4.74706e-11 1.29057e-11 2.1193e-12 -1.15593e-12 8.53886e-13 -6.12991e-13 -1.50202e-13 2.03569e-13 -6.97106e-13 1.75986e-12 1.52226e-13 1.15217e-13 -7.34172e-14 -6.93256e-13 -4.87032e-13 1.15755e-12 1.24998e-12 -2.13471e-12 -6.17676e-13 -7.48551e-13 1.40393e-12 -1.82684e-13 1.56716e-13 1.9361e-13 -2.54474e-13 -6.49966e-13 -3.20407e-13 -7.32978e-13 -7.41056e-13 -7.00882e-13 -6.65947e-13 1.32157e-12 -1.57854e-13 -2.79551e-13 -3.25953e-13 4.87287e-13 -1.32382e-13 -6.24858e-13 3.02202e-13 -2.02619e-13 1.1192e-13 -7.25788e-13 1.17396e-12 -8.75268e-13 -7.36816e-13 2.4837e-13 7.99927e-14 5.78585e-13 -3.48747e-13 -2.36315e-13 9.3101e-13 1.12936e-12 0
				</DataArray>
				<DataArray Name="VitesseY" type="Float32" format="ascii">