<?xml version="1.0"?>
<VTKFile type="PolyData">
	<PolyData>
		<Piece NumberOfPoints="1206" NumberOfPolys="1000">
			<Points>
				<DataArray type="Float32" NumberOfComponents="3" format="ascii">
 0 0 0 0.02 0 0 0.04 0 0 0.06 0 0 0.08 0 0 0.1 0 0 0 0.005 0 0.02 0.005 0 0.04 0.005 0 0.06 0.005 0 0.08 0.005 0 0.1 0.005 0 0 0.01 0 0.02 0.01 0 0.04 0.01 0 0.06 0.01 0 0.08 0.01 0 0.1 0.01 0 0 0.015 0 0.02 0.015 0 0.04 0.015 0 0.06 0.015 0 0.08 0.015 0 0.1 0.015 0 0 0.02 0 0.02 0.02 0 0.04 0.02 0 0.06 0.02 0 0.08 0.02 0 0.1 0.02 0 0 0.025 0 0.02 0.025 0 0.04 0.025 0 0.06 0.025 0 0.08 0.025 0 0.1 0.025 0 0 0.03 0 0.02 0.03 0 0.04 0.03 0 0.06 0.03 0 0.08 0.03 0 0.1 0.03 0 0 0.035 0 0.02 0.035 0 0.04 0.035 0 0.06 0.035 0 0.08 0.035 0 0.1 0.035 0 0 0.04 0 0.02 0.04 0 0.04 0.04 0 0.06 0.04 0 0.08 0.04 0 0.1 0.04 0 0 0.045 0 0.02 0.045 0 0.04 0.045 0 0.06 0.045 0 0.08 0.045 0 0.1 0.045 0 0 0.05 0 0.02 0.05 0 0.04 0.05 0 0.06 0.05 0 0.08 0.05 0 0.1 0.05 0 0 0.055 0 0.02 0.055 0 0.04 0.055 0 0.06 0.055 0 0.08 0.055 0 0.1 0.055 0 0 0.06 0 0.02 0.06 0 0.04 0.06 0 0.06 0.06 0 0.08 0.06 0 0.1 0.06 0 0 0.065 0 0.02 0.065 0 0.04 0.065 0 0.06 0.065 0 0.08 0.065 0 0.1 0.065 0 0 0.07 0 0.02 0.07 0 0.04 0.07 0 0.06 0.07 0 0.08 0.07 0 0.1 0.07 0 0 0.075 0 0.02 0.075 0 0.04 0.075 0 0.06 0.075 0 0.08 0.075 0 0.1 0.075 0 0 0.08 0 0.02 0.08 0 0.04 0.08 0 0.06 0.08 0 0.08 0.08 0 0.1 0.08 0 0 0.085 0 0.02 0.085 0 0.04 0.085 0 0.06 0.085 0 0.08 0.085 0 0.1 0.085 0 0 0.09 0 0.02 0.09 0 0.04 0.09 0 0.06 0.09 0 0.08 0.09 0 0.1 0.09 0 0 0.095 0 0.02 0.095 0 0.04 0.095 0 0.06 0.095 0 0.08 0.095 0 0.1 0.095 0 0 0.1 0 0.02 0.1 0 0.04 0.1 0 0.06 0.1 0 0.08 0.1 0 0.1 0.1 0 0 0.105 0 0.02 0.105 0 0.04 0.105 0 0.06 0.105 0 0.08 0.105 0 0.1 0.105 0 0 0.11 0 0.02 0.11 0 0.04 0.11 0 0.06 0.11 0 0.08 0.11 0 0.1 0.11 0 0 0.115 0 0.02 0.115 0 0.04 0.115 0 0.06 0.115 0 0.08 0.115 0 0.1 0.115 0 0 0.12 0 0.02 0.12 0 0.04 0.12 0 0.06 0.12 0 0.08 0.12 0 0.1 0.12 0 0 0.125 0 0.02 0.125 0 0.04 0.125 0 0.06 0.125 0 0.08 0.125 0 0.1 0.125 0 0 0.13 0 0.02 0.13 0 0.04 0.13 0 0.06 0.13 0 0.08 0.13 0 0.1 0.13 0 0 0.135 0 0.02 0.135 0 0.04 0.135 0 0.06 0.135 0 0.08 0.135 0 0.1 0.135 0 0 0.14 0 0.02 0.14 0 0.04 0.14 0 0.06 0.14 0 0.08 0.14 0 0.1 0.14 0 0 0.145 0 0.02 0.145 0 0.04 0.145 0 0.06 0.145 0 0.08 0.145 0 0.1 0.145 0 0 0.15 0 0.02 0.15 0 0.04 0.15 0 0.06 0.15 0 0.08 0.15 0 0.1 0.15 0 0 0.155 0 0.02 0.155 0 0.04 0.155 0 0.06 0.155 0 0.08 0.155 0 0.1 0.155 0 0 0.16 0 0.02 0.16 0 0.04 0.16 0 0.06 0.16 0 0.08 0.16 0 0.1 0.16 0 0 0.165 0 0.02 0.165 0 0.04 0.165 0 0.06 0.165 0 0.08 0.165 0 0.1 0.165 0 0 0.17 0 0.02 0.17 0 0.04 0.17 0 0.06 0.17 0 0.08 0.17 0 0.1 0.17 0 0 0.175 0 0.02 0.175 0 0.04 0.175 0 0.06 0.175 0 0.08 0.175 0 0.1 0.175 0 0 0.18 0 0.02 0.18 0 0.04 0.18 0 0.06 0.18 0 0.08 0.18 0 0.1 0.18 0 0 0.185 0 0.02 0.185 0 0.04 0.185 0 0.06 0.185 0 0.08 0.185 0 0.1 0.185 0 0 0.19 0 0.02 0.19 0 0.04 0.19 0 0.06 0.19 0 0.08 0.19 0 0.1 0.19 0 0 0.195 0 0.02 0.195 0 0.04 0.195 0 0.06 0.195 0 0.08 0.195 0 0.1 0.195 0 0 0.2 0 0.02 0.2 0 0.04 0.2 0 0.06 0.2 0 0.08 0.2 0 0.1 0.2 0 0 0.205 0 0.02 0.205 0 0.04 0.205 0 0.06 0.205 0 0.08 0.205 0 0.1 0.205 0 0 0.21 0 0.02 0.21 0 0.04 0.21 0 0.06 0.21 0 0.08 0.21 0 0.1 0.21 0 0 0.215 0 0.02 0.215 0 0.04 0.215 0 0.06 0.215 0 0.08 0.215 0 0.1 0.215 0 0 0.22 0 0.02 0.22 0 0.04 0.22 0 0.06 0.22 0 0.08 0.22 0 0.1 0.22 0 0 0.225 0 0.02 0.225 0 0.04 0.225 0 0.06 0.225 0 0.08 0.225 0 0.1 0.225 0 0 0.23 0 0.02 0.23 0 0.04 0.23 0 0.06 0.23 0 0.08 0.23 0 0.1 0.23 0 0 0.235 0 0.02 0.235 0 0.04 0.235 0 0.06 0.235 0 0.08 0.235 0 0.1 0.235 0 0 0.24 0 0.02 0.24 0 0.04 0.24 0 0.06 0.24 0 0.08 0.24 0 0.1 0.24 0 0 0.245 0 0.02 0.245 0 0.04 0.245 0 0.06 0.245 0 0.08 0.245 0 0.1 0.245 0 0 0.25 0 0.02 0.25 0 0.04 0.25 0 0.06 0.25 0 0.08 0.25 0 0.1 0.25 0 0 0.255 0 0.02 0.255 0 0.04 0.255 0 0.06 0.255 0 0.08 0.255 0 0.1 0.255 0 0 0.26 0 0.02 0.26 0 0.04 0.26 0 0.06 0.26 0 0.08 0.26 0 0.1 0.26 0 0 0.265 0 0.02 0.265 0 0.04 0.265 0 0.06 0.265 0 0.08 0.265 0 0.1 0.265 0 0 0.27 0 0.02 0.27 0 0.04 0.27 0 0.06 0.27 0 0.08 0.27 0 0.1 0.27 0 0 0.275 0 0.02 0.275 0 0.04 0.275 0 0.06 0.275 0 0.08 0.275 0 0.1 0.275 0 0 0.28 0 0.02 0.28 0 0.04 0.28 0 0.06 0.28 0 0.08 0.28 0 0.1 0.28 0 0 0.285 0 0.02 0.285 0 0.04 0.285 0 0.06 0.285 0 0.08 0.285 0 0.1 0.285 0 0 0.29 0 0.02 0.29 0 0.04 0.29 0 0.06 0.29 0 0.08 0.29 0 0.1 0.29 0 0 0.295 0 0.02 0.295 0 0.04 0.295 0 0.06 0.295 0 0.08 0.295 0 0.1 0.295 0 0 0.3 0 0.02 0.3 0 0.04 0.3 0 0.06 0.3 0 0.08 0.3 0 0.1 0.3 0 0 0.305 0 0.02 0.305 0 0.04 0.305 0 0.06 0.305 0 0.08 0.305 0 0.1 0.305 0 0 0.31 0 0.02 0.31 0 0.04 0.31 0 0.06 0.31 0 0.08 0.31 0 0.1 0.31 0 0 0.315 0 0.02 0.315 0 0.04 0.315 0 0.06 0.315 0 0.08 0.315 0 0.1 0.315 0 0 0.32 0 0.02 0.32 0 0.04 0.32 0 0.06 0.32 0 0.08 0.32 0 0.1 0.32 0 0 0.325 0 0.02 0.325 0 0.04 0.325 0 0.06 0.325 0 0.08 0.325 0 0.1 0.325 0 0 0.33 0 0.02 0.33 0 0.04 0.33 0 0.06 0.33 0 0.08 0.33 0 0.1 0.33 0 0 0.335 0 0.02 0.335 0 0.04 0.335 0 0.06 0.335 0 0.08 0.335 0 0.1 0.335 0 0 0.34 0 0.02 0.34 0 0.04 0.34 0 0.06 0.34 0 0.08 0.34 0 0.1 0.34 0 0 0.345 0 0.02 0.345 0 0.04 0.345 0 0.06 0.345 0 0.08 0.345 0 0.1 0.345 0 0 0.35 0 0.02 0.35 0 0.04 0.35 0 0.06 0.35 0 0.08 0.35 0 0.1 0.35 0 0 0.355 0 0.02 0.355 0 0.04 0.355 0 0.06 0.355 0 0.08 0.355 0 0.1 0.355 0 0 0.36 0 0.02 0.36 0 0.04 0.36 0 0.06 0.36 0 0.08 0.36 0 0.1 0.36 0 0 0.365 0 0.02 0.365 0 0.04 0.365 0 0.06 0.365 0 0.08 0.365 0 0.1 0.365 0 0 0.37 0 0.02 0.37 0 0.04 0.37 0 0.06 0.37 0 0.08 0.37 0 0.1 0.37 0 0 0.375 0 0.02 0.375 0 0.04 0.375 0 0.06 0.375 0 0.08 0.375 0 0.1 0.375 0 0 0.38 0 0.02 0.38 0 0.04 0.38 0 0.06 0.38 0 0.08 0.38 0 0.1 0.38 0 0 0.385 0 0.02 0.385 0 0.04 0.385 0 0.06 0.385 0 0.08 0.385 0 0.1 0.385 0 0 0.39 0 0.02 0.39 0 0.04 0.39 0 0.06 0.39 0 0.08 0.39 0 0.1 0.39 0 0 0.395 0 0.02 0.395 0 0.04 0.395 0 0.06 0.395 0 0.08 0.395 0 0.1 0.395 0 0 0.4 0 0.02 0.4 0 0.04 0.4 0 0.06 0.4 0 0.08 0.4 0 0.1 0.4 0 0 0.405 0 0.02 0.405 0 0.04 0.405 0 0.06 0.405 0 0.08 0.405 0 0.1 0.405 0 0 0.41 0 0.02 0.41 0 0.04 0.41 0 0.06 0.41 0 0.08 0.41 0 0.1 0.41 0 0 0.415 0 0.02 0.415 0 0.04 0.415 0 0.06 0.415 0 0.08 0.415 0 0.1 0.415 0 0 0.42 0 0.02 0.42 0 0.04 0.42 0 0.06 0.42 0 0.08 0.42 0 0.1 0.42 0 0 0.425 0 0.02 0.425 0 0.04 0.425 0 0.06 0.425 0 0.08 0.425 0 0.1 0.425 0 0 0.43 0 0.02 0.43 0 0.04 0.43 0 0.06 0.43 0 0.08 0.43 0 0.1 0.43 0 0 0.435 0 0.02 0.435 0 0.04 0.435 0 0.06 0.435 0 0.08 0.435 0 0.1 0.435 0 0 0.44 0 0.02 0.44 0 0.04 0.44 0 0.06 0.44 0 0.08 0.44 0 0.1 0.44 0 0 0.445 0 0.02 0.445 0 0.04 0.445 0 0.06 0.445 0 0.08 0.445 0 0.1 0.445 0 0 0.45 0 0.02 0.45 0 0.04 0.45 0 0.06 0.45 0 0.08 0.45 0 0.1 0.45 0 0 0.455 0 0.02 0.455 0 0.04 0.455 0 0.06 0.455 0 0.08 0.455 0 0.1 0.455 0 0 0.46 0 0.02 0.46 0 0.04 0.46 0 0.06 0.46 0 0.08 0.46 0 0.1 0.46 0 0 0.465 0 0.02 0.465 0 0.04 0.465 0 0.06 0.465 0 0.08 0.465 0 0.1 0.465 0 0 0.47 0 0.02 0.47 0 0.04 0.47 0 0.06 0.47 0 0.08 0.47 0 0.1 0.47 0 0 0.475 0 0.02 0.475 0 0.04 0.475 0 0.06 0.475 0 0.08 0.475 0 0.1 0.475 0 0 0.48 0 0.02 0.48 0 0.04 0.48 0 0.06 0.48 0 0.08 0.48 0 0.1 0.48 0 0 0.485 0 0.02 0.485 0 0.04 0.485 0 0.06 0.485 0 0.08 0.485 0 0.1 0.485 0 0 0.49 0 0.02 0.49 0 0.04 0.49 0 0.06 0.49 0 0.08 0.49 0 0.1 0.49 0 0 0.495 0 0.02 0.495 0 0.04 0.495 0 0.06 0.495 0 0.08 0.495 0 0.1 0.495 0 0 0.5 0 0.02 0.5 0 0.04 0.5 0 0.06 0.5 0 0.08 0.5 0 0.1 0.5 0 0 0.505 0 0.02 0.505 0 0.04 0.505 0 0.06 0.505 0 0.08 0.505 0 0.1 0.505 0 0 0.51 0 0.02 0.51 0 0.04 0.51 0 0.06 0.51 0 0.08 0.51 0 0.1 0.51 0 0 0.515 0 0.02 0.515 0 0.04 0.515 0 0.06 0.515 0 0.08 0.515 0 0.1 0.515 0 0 0.52 0 0.02 0.52 0 0.04 0.52 0 0.06 0.52 0 0.08 0.52 0 0.1 0.52 0 0 0.525 0 0.02 0.525 0 0.04 0.525 0 0.06 0.525 0 0.08 0.525 0 0.1 0.525 0 0 0.53 0 0.02 0.53 0 0.04 0.53 0 0.06 0.53 0 0.08 0.53 0 0.1 0.53 0 0 0.535 0 0.02 0.535 0 0.04 0.535 0 0.06 0.535 0 0.08 0.535 0 0.1 0.535 0 0 0.54 0 0.02 0.54 0 0.04 0.54 0 0.06 0.54 0 0.08 0.54 0 0.1 0.54 0 0 0.545 0 0.02 0.545 0 0.04 0.545 0 0.06 0.545 0 0.08 0.545 0 0.1 0.545 0 0 0.55 0 0.02 0.55 0 0.04 0.55 0 0.06 0.55 0 0.08 0.55 0 0.1 0.55 0 0 0.555 0 0.02 0.555 0 0.04 0.555 0 0.06 0.555 0 0.08 0.555 0 0.1 0.555 0 0 0.56 0 0.02 0.56 0 0.04 0.56 0 0.06 0.56 0 0.08 0.56 0 0.1 0.56 0 0 0.565 0 0.02 0.565 0 0.04 0.565 0 0.06 0.565 0 0.08 0.565 0 0.1 0.565 0 0 0.57 0 0.02 0.57 0 0.04 0.57 0 0.06 0.57 0 0.08 0.57 0 0.1 0.57 0 0 0.575 0 0.02 0.575 0 0.04 0.575 0 0.06 0.575 0 0.08 0.575 0 0.1 0.575 0 0 0.58 0 0.02 0.58 0 0.04 0.58 0 0.06 0.58 0 0.08 0.58 0 0.1 0.58 0 0 0.585 0 0.02 0.585 0 0.04 0.585 0 0.06 0.585 0 0.08 0.585 0 0.1 0.585 0 0 0.59 0 0.02 0.59 0 0.04 0.59 0 0.06 0.59 0 0.08 0.59 0 0.1 0.59 0 0 0.595 0 0.02 0.595 0 0.04 0.595 0 0.06 0.595 0 0.08 0.595 0 0.1 0.595 0 0 0.6 0 0.02 0.6 0 0.04 0.6 0 0.06 0.6 0 0.08 0.6 0 0.1 0.6 0 0 0.605 0 0.02 0.605 0 0.04 0.605 0 0.06 0.605 0 0.08 0.605 0 0.1 0.605 0 0 0.61 0 0.02 0.61 0 0.04 0.61 0 0.06 0.61 0 0.08 0.61 0 0.1 0.61 0 0 0.615 0 0.02 0.615 0 0.04 0.615 0 0.06 0.615 0 0.08 0.615 0 0.1 0.615 0 0 0.62 0 0.02 0.62 0 0.04 0.62 0 0.06 0.62 0 0.08 0.62 0 0.1 0.62 0 0 0.625 0 0.02 0.625 0 0.04 0.625 0 0.06 0.625 0 0.08 0.625 0 0.1 0.625 0 0 0.63 0 0.02 0.63 0 0.04 0.63 0 0.06 0.63 0 0.08 0.63 0 0.1 0.63 0 0 0.635 0 0.02 0.635 0 0.04 0.635 0 0.06 0.635 0 0.08 0.635 0 0.1 0.635 0 0 0.64 0 0.02 0.64 0 0.04 0.64 0 0.06 0.64 0 0.08 0.64 0 0.1 0.64 0 0 0.645 0 0.02 0.645 0 0.04 0.645 0 0.06 0.645 0 0.08 0.645 0 0.1 0.645 0 0 0.65 0 0.02 0.65 0 0.04 0.65 0 0.06 0.65 0 0.08 0.65 0 0.1 0.65 0 0 0.655 0 0.02 0.655 0 0.04 0.655 0 0.06 0.655 0 0.08 0.655 0 0.1 0.655 0 0 0.66 0 0.02 0.66 0 0.04 0.66 0 0.06 0.66 0 0.08 0.66 0 0.1 0.66 0 0 0.665 0 0.02 0.665 0 0.04 0.665 0 0.06 0.665 0 0.08 0.665 0 0.1 0.665 0 0 0.67 0 0.02 0.67 0 0.04 0.67 0 0.06 0.67 0 0.08 0.67 0 0.1 0.67 0 0 0.675 0 0.02 0.675 0 0.04 0.675 0 0.06 0.675 0 0.08 0.675 0 0.1 0.675 0 0 0.68 0 0.02 0.68 0 0.04 0.68 0 0.06 0.68 0 0.08 0.68 0 0.1 0.68 0 0 0.685 0 0.02 0.685 0 0.04 0.685 0 0.06 0.685 0 0.08 0.685 0 0.1 0.685 0 0 0.69 0 0.02 0.69 0 0.04 0.69 0 0.06 0.69 0 0.08 0.69 0 0.1 
[...]
			<CellData Scalars="Density">
				<DataArray Name="Density" type="Float32" format="ascii">
 1 1 1 1 1 1 1 1 1 1 1 1 1 1 1 1 1 1 1 1 1 1 1 1 1 1 1 1 1 1 1 1 1 1 1 1 1 1 1 1 1 1 1 1 1 1 1 1 1 1 1 1 1 1 1 1 1 1 1 1 1 1 1 1 1 1 1 1 1 1 1 1 1 1 1 1 1 1 1 1 1 1 1 1 1 1 1 1 1 1 1 1 1 1 1 1 1 1 1 1 1 1 1 1 1 1 1 1 1 1 1 1 1 1 1 1 1 1 1 1 1 1 1 1 1 1 1 1 1 1 1 1 1 1 1 1 1 1 1 1 1 1 1 1 1 1 1 1 1 1 1 1 1 1 1 1 1 1 1 1 1 1 1 1 1 1 1 1 1 1 1 1 1 1 1 1 1 1 1 1 1 1 1 1 1 1 1 1 1 1 1 1 1 1 1 1 1 1 1 1 1 1 1 1 1 1 1 1 1 1 1 1 1 1 1 1 1 1 1 1 1 1 1 1 1 1 1 1 1 1 1 1 1 1 1 1 1 1 1 1 1 1 1 1 1 1 1 1 1 1 1 1 1 1 1 1 1 1 1 1 1 1 1 1 1 1 1 1 1 1 1 1 1 1 1 0.999999 0.999999 0.999999 0.999999 0.999999 0.999997 0.999997 0.999997 0.999997 0.999997 0.999992 0.999992 0.999992 0.999992 0.999992 0.999979 0.999979 0.999979 0.999979 0.999979 0.999942 0.999942 0.999942 0.999942 0.999942 0.999846 0.999846 0.999846 0.999846 0.999846 0.999596 0.999596 0.999596 0.999596 0.999596 0.998981 0.998981 0.998981 0.998981 0.998981 0.997706 0.997706 0.997706 0.997706 0.997706 0.995373 0.995373 0.995373 0.995373 0.995373 0.991584 0.991584 0.991584 0.991584 0.991584 0.98598 0.98598 0.98598 0.98598 0.98598 0.978349 0.978349 0.978349 0.978349 0.978349 0.968614 0.968614 0.968614 0.968614 0.968614 0.956849 0.956849 0.956849 0.956849 0.956849 0.943228 0.943228 0.943228 0.943228 0.943228 0.92798 0.92798 0.92798 0.92798 0.92798 0.911375 0.911375 0.911375 0.911375 0.911375 0.893655 0.893655 0.893655 0.893655 0.893655 0.87507 0.87507 0.87507 0.87507 0.87507 0.855817 0.855817 0.855817 0.855817 0.855817 0.83611 0.83611 0.83611 0.83611 0.83611 0.81612 0.81612 0.81612 0.81612 0.81612 0.796007 0.796007 0.796007 0.796007 0.796007 0.775907 0.775907 0.775907 0.775907 0.775907 0.755851 0.755851 0.755851 0.755851 0.755851 0.736042 0.736042 0.736042 0.736042 0.736042 0.716372 0.716372 0.716372 0.716372 0.716372 0.697102 0.697102 0.697102 0.697102 0.697102 0.678044 0.678044 0.678044 0.678044 0.678044 0.659461 0.659461 0.659461 0.659461 0.659461 0.641192 0.641192 0.641192 0.641192 0.641192 0.623384 0.623384 0.623384 0.623384 0.623384 0.606044 0.606044 0.606044 0.606044 0.606044 0.589136 0.589136 0.589136 0.589136 0.589136 0.572766 0.572766 0.572766 0.572766 0.572766 0.556945 0.556945 0.556945 0.556945 0.556945 0.541683 0.541683 0.541683 0.541683 0.541683 0.52701 0.52701 0.52701 0.52701 0.52701 0.513093 0.513093 0.513093 0.513093 0.513093 0.499897 0.499897 0.499897 0.499897 0.499897 0.487516 0.487516 0.487516 0.487516 0.487516 0.475988 0.475988 0.475988 0.475988 0.475988 0.465564 0.465564 0.465564 0.465564 0.465564 0.456332 0.456332 0.456332 0.456332 0.456332 0.448264 0.448264 0.448264 0.448264 0.448264 0.44131 0.44131 0.44131 0.44131 0.44131 0.435697 0.435697 0.435697 0.435697 0.435697 0.431443 0.431443 0.431443 0.431443 0.431443 0.428248 0.428248 0.428248 0.428248 0.428248 0.425907 0.425907 0.425907 0.425907 0.425907 0.424393 0.424393 0.424393 0.424393 0.424393 0.423396 0.423396 0.423396 0.423396 0.423396 0.422621 0.422621 0.422621 0.422621 0.422621 0.4221 0.4221 0.4221 0.4221 0.4221 0.421783 0.421783 0.421783 0.421783 0.421783 0.421517 0.421517 0.421517 0.421517 0.421517 0.421265 0.421265 0.421265 0.421265 0.421265 0.420972 0.420972 0.420972 0.420972 0.420972 0.420482 0.420482 0.420482 0.420482 0.420482 0.419544 0.419544 0.419544 0.419544 0.419544 0.417746 0.417746 0.417746 0.417746 0.417746 0.41443 0.41443 0.41443 0.41443 0.41443 0.40865 0.40865 0.40865 0.40865 0.40865 0.399217 0.399217 0.399217 0.399217 0.399217 0.384897 0.384897 0.384897 0.384897 0.384897 0.36481 0.36481 0.36481 0.36481 0.36481 0.338691 0.338691 0.338691 0.338691 0.338691 0.309544 0.309544 0.309544 0.309544 0.309544 0.290582 0.290582 0.290582 0.290582 0.290582 0.278983 0.278983 0.278983 0.278983 0.278983 0.272375 0.272375 0.272375 0.272375 0.272375 0.268961 0.268961 0.268961 0.268961 0.268961 0.267383 0.267383 0.267383 0.267383 0.267383 0.266761 0.266761 0.266761 0.266761 0.266761 0.266585 0.266585 0.266585 0.266585 0.266585 0.266597 0.266597 0.266597 0.266597 0.266597 0.266642 0.266642 0.266642 0.266642 0.266642 0.266702 0.266702 0.266702 0.266702 0.266702 0.266713 0.266713 0.266713 0.266713 0.266713 0.266732 0.266732 0.266732 0.266732 0.266732 0.266688 0.266688 0.266688 0.266688 0.266688 0.26668 0.26668 0.26668 0.26668 0.26668 0.266238 0.266238 0.266238 0.266238 0.266238 0.265829 0.265829 0.265829 0.265829 0.265829 0.262971 0.262971 0.262971 0.262971 0.262971 0.258467 0.258467 0.258467 0.258467 0.258467 0.241941 0.241941 0.241941 0.241941 0.241941 0.213333 0.213333 0.213333 0.213333 0.213333 0.159989 0.159989 0.159989 0.159989 0.159989 0.131279 0.131279 0.131279 0.131279 0.131279 0.125989 0.125989 0.125989 0.125989 0.125989 0.125151 0.125151 0.125151 0.125151 0.125151 0.125023 0.125023 0.125023 0.125023 0.125023 0.125003 0.125003 0.125003 0.125003 0.125003 0.125001 0.125001 0.125001 0.125001 0.125001 0.125 0.125 0.125 0.125 0.125 0.125 0.125 0.125 0.125 0.125 0.125 0.125 0.125 0.125 0.125 0.125 0.125 0.125 0.125 0.125 0.125 0.125 0.125 0.125 0.125 0.125 0.125 0.125 0.125 0.125 0.125 0.125 0.125 0.125 0.125 0.125 0.125 0.125 0.125 0.125 0.125 0.125 0.125 0.125 0.125 0.125 0.125 0.125 0.125 0.125 0.125 0.125 0.125 0.125 0.125 0.125 0.125 0.125 0.125 0.125 0.125 0.125 0.125 0.125 0.125 0.125 0.125 0.125 0.125 0.125 0.125 0.125 0.125 0.125 0.125 0.125 0.125 0.125 0.125 0.125 0.125 0.125 0.125 0.125 0.125 0.125 0.125 0.125 0.125 0.125 0.125 0.125 0.125 0.125 0.125 0.125 0.125 0.125 0.125 0.125 0.125 0.125 0.125 0.125 0.125 0.125 0.125 0.125 0.125 0.125 0.125 0.125 0.125 0.125 0.125 0.125 0.125 0.125 0.125 0.125 0.125 0.125 0.125 0.125 0.125 0.125 0.125 0.125 0.125 0.125 0.125 0.125 0.125 0.125 0.125 0.125 0.125 0.125 0.125 0.125 0.125 0.125 0.125 0.125 0.125 0.125 0.125 0.125 0.125 0.125 0.125 0.125 0.125 0.125 0.125 0.125 0.125 0.125 0.125 0.125 0.125 0.125 0.125 0.125 0.125 0.125 0.125 0.125 0.125 0.125 0.125 0.125 0.125 0.125 0.125 0.125 0.125 0.125 0.125 0.125 0.125 0.125 0.125 0.125 0.125 0.125 0.125 0.125 0.125 0.125 0.125 0.125 0.125 0.125 0.125 0.125 0.125 0.125 0.125 0.125 0.125 0.125 0.125 0.125 0.125 0.125 0.125 0.125 0.125 0.125 0.125 0.125 0.125 0.125 0.125 0.125 0.125 0.125 0.125 0.125 0.125 0.125 0.125 0.125 0.125 0.125 0.125 0.125 0.125 0.125 0.125 0.125 0.125 0.125 0.125 0.125 0.125 0.125 0.125 0.125 0.125 0.125 0.125 0.125 0.125
				</DataArray>
				<DataArray Name="Energy" type="Float32" format="ascii">
 2.5 2.5 2.5 2.5 2.5 2.5 2.5 2.5 2.5 2.5 2.5 2.5 2.5 2.5 2.5 2.5 2.5 2.5 2.5 2.5 2.5 2.5 2.5 2.5 2.5 2.5 2.5 2.5 2.5 2.5 2.5 2.5 2.5 2.5 2.5 2.5 2.5 2.5 2.5 2.5 2.5 2.5 2.5 2.5 2.5 2.5 2.5 2.5 2.5 2.5 2.5 2.5 2.5 2.5 2.5 2.5 2.5 2.5 2.5 2.5 2.5 2.5 2.5 2.5 2.5 2.5 2.5 2.5 2.5 2.5 2.5 2.5 2.5 2.5 2.5 2.5 2.5 2.5 2.5 2.5 2.5 2.5 2.5 2.5 2.5 2.5 2.5 2.5 2.5 2.5 2.5 2.5 2.5 2.5 2.5 2.5 2.5 2.5 2.5 2.5 2.5 2.5 2.5 2.5 2.5 2.5 2.5 2.5 2.5 2.5 2.5 2.5 2.5 2.5 2.5 2.5 2.5 2.5 2.5 2.5 2.5 2.5 2.5 2.5 2.5 2.5 2.5 2.5 2.5 2.5 2.5 2.5 2.5 2.5 2.5 2.5 2.5 2.5 2.5 2.5 2.5 2.5 2.5 2.5 2.5 2.5 2.5 2.5 2.5 2.5 2.5 2.5 2.5 2.5 2.5 2.5 2.5 2.5 2.5 2.5 2.5 2.5 2.5 2.5 2.5 2.5 2.5 2.5 2.5 2.5 2.5 2.5 2.5 2.5 2.5 2.5 2.5 2.5 2.5 2.5 2.5 2.5 2.5 2.5 2.5 2.5 2.5 2.5 2.5 2.5 2.5 2.5 2.5 2.5 2.5 2.5 2.5 2.5 2.5 2.5 2.5 2.5 2.5 2.5 2.5 2.5 2.5 2.5 2.5 2.5 2.5 2.5 2.5 2.5 2.5 2.5 2.5 2.5 2.5 2.5 2.5 2.5 2.5 2.5 2.5 2.5 2.5 2.5 2.5 2.5 2.5 2.5 2.5 2.5 2.5 2.5 2.5 2.5 2.5 2.5 2.5 2.5 2.5 2.5 2.5 2.5 2.5 2.5 2.5 2.5 2.5 2.5 2.5 2.5 2.5 2.5 2.5 2.5 2.5 2.5 2.5 2.5 2.5 2.5 2.5 2.5 2.5 2.5 2.5 2.5 2.5 2.5 2.5 2.5 2.5 2.5 2.5 2.5 2.5 2.5 2.5 2.5 2.5 2.5 2.5 2.49999 2.49999 2.49999 2.49999 2.49999 2.49998 2.49998 2.49998 2.49998 2.49998 2.49994 2.49994 2.49994 2.49994 2.49994 2.49985 2.49985 2.49985 2.49985 2.49985 2.4996 2.4996 2.4996 2.4996 2.4996 2.49898 2.49898 2.49898 2.49898 2.49898 2.49771 2.49771 2.49771 2.49771 2.49771 2.49537 2.49537 2.49537 2.49537 2.49537 2.49157 2.49157 2.49157 2.49157 2.49157 2.48595 2.48595 2.48595 2.48595 2.48595 2.47827 2.47827 2.47827 2.47827 2.47827 2.46843 2.46843 2.46843 2.46843 2.46843 2.45648 2.45648 2.45648 2.45648 2.45648 2.44255 2.44255 2.44255 2.44255 2.44255 2.42683 2.42683 2.42683 2.42683 2.42683 2.40956 2.40956 2.40956 2.40956 2.40956 2.39094 2.39094 2.39094 2.39094 2.39094 2.37119 2.37119 2.37119 2.37119 2.37119 2.35049 2.35049 2.35049 2.35049 2.35049 2.32902 2.32902 2.32902 2.32902 2.32902 2.30694 2.30694 2.30694 2.30694 2.30694 2.28436 2.28436 2.28436 2.28436 2.28436 2.2615 2.2615 2.2615 2.2615 2.2615 2.23837 2.23837 2.23837 2.23837 2.23837 2.21516 2.21516 2.21516 2.21516 2.21516 2.19177 2.19177 2.19177 2.19177 2.19177 2.16849 2.16849 2.16849 2.16849 2.16849 2.1451 2.1451 2.1451 2.1451 2.1451 2.12194 2.12194 2.12194 2.12194 2.12194 2.09874 2.09874 2.09874 2.09874 2.09874 2.07593 2.07593 2.07593 2.07593 2.07593 2.05305 2.05305 2.05305 2.05305 2.05305 2.03072 2.03072 2.03072 2.03072 2.03072 2.00858 2.00858 2.00858 2.00858 2.00858 1.98672 1.98672 1.98672 1.98672 1.98672 1.96552 1.96552 1.96552 1.96552 1.96552 1.94484 1.94484 1.94484 1.94484 1.94484 1.92471 1.92471 1.92471 1.92471 1.92471 1.90529 1.90529 1.90529 1.90529 1.90529 1.88706 1.88706 1.88706 1.88706 1.88706 1.87009 1.87009 1.87009 1.87009 1.87009 1.85429 1.85429 1.85429 1.85429 1.85429 1.83967 1.83967 1.83967 1.83967 1.83967 1.82711 1.82711 1.82711 1.82711 1.82711 1.81702 1.81702 1.81702 1.81702 1.81702 1.80875 1.80875 1.80875 1.80875 1.80875 1.80187 1.80187 1.80187 1.80187 1.80187 1.79702 1.79702 1.79702 1.79702 1.79702 1.79409 1.79409 1.79409 1.79409 1.79409 1.79209 1.79209 1.79209 1.79209 1.79209 1.79104 1.79104 1.79104 1.79104 1.79104 1.79136 1.79136 1.79136 1.79136 1.79136 1.79229 1.79229 1.79229 1.79229 1.79229 1.79314 1.79314 1.79314 1.79314 1.79314 1.79409 1.79409 1.79409 1.79409 1.79409 1.79525 1.79525 1.79525 1.79525 1.79525 1.79674 1.79674 1.79674 1.79674 1.79674 1.79904 1.79904 1.79904 1.79904 1.79904 1.80315 1.80315 1.80315 1.80315 1.80315 1.81092 1.81092 1.81092 1.81092 1.81092 1.82537 1.82537 1.82537 1.82537 1.82537 1.85114 1.85114 1.85114 1.85114 1.85114 1.89484 1.89484 1.89484 1.89484 1.89484 1.9653 1.9653 1.9653 1.9653 1.9653 2.07363 2.07363 2.07363 2.07363 2.07363 2.23186 2.23186 2.23186 2.23186 2.23186 2.44072 2.44072 2.44072 2.44072 2.44072 2.60257 2.60257 2.60257 2.60257 2.60257 2.71128 2.71128 2.71128 2.71128 2.71128 2.77703 2.77703 2.77703 2.77703 2.77703 2.81222 2.81222 2.81222 2.81222 2.81222 2.82874 2.82874 2.82874 2.82874 2.82874 2.83525 2.83525 2.83525 2.83525 2.83525 2.83697 2.83697 2.83697 2.83697 2.83697 2.8368 2.8368 2.8368 2.8368 2.8368 2.83604 2.83604 2.83604 2.83604 2.83604 2.83532 2.83532 2.83532 2.83532 2.83532 2.83468 2.83468 2.83468 2.83468 2.83468 2.83427 2.83427 2.83427 2.83427 2.83427 2.8337 2.8337 2.8337 2.8337 2.8337 2.83322 2.83322 2.83322 2.83322 2.83322 2.83112 2.83112 2.83112 2.83112 2.83112 2.8293 2.8293 2.8293 2.8293 2.8293 2.81695 2.81695 2.81695 2.81695 2.81695 2.79689 2.79689 2.79689 2.79689 2.79689 2.72107 2.72107 2.72107 2.72107 2.72107 2.56683 2.56683 2.56683 2.56683 2.56683 2.2417 2.2417 2.2417 2.2417 2.2417 2.04195 2.04195 2.04195 2.04195 2.04195 2.00637 2.00637 2.00637 2.00637 2.00637 2.00097 2.00097 2.00097 2.00097 2.00097 2.00015 2.00015 2.00015 2.00015 2.00015 2.00002 2.00002 2.00002 2.00002 2.00002 2 2 2 2 2 2 2 2 2 2 2 2 2 2 2 2 2 2 2 2 2 2 2 2 2 2 2 2 2 2 2 2 2 2 2 2 2 2 2 2 2 2 2 2 2 2 2 2 2 2 2 2 2 2 2 2 2 2 2 2 2 2 2 2 2 2 2 2 2 2 2 2 2 2 2 2 2 2 2 2 2 2 2 2 2 2 2 2 2 2 2 2 2 2 2 2 2 2 2 2 2 2 2 2 2 2 2 2 2 2 2 2 2 2 2 2 2 2 2 2 2 2 2 2 2 2 2 2 2 2 2 2 2 2 2 2 2 2 2 2 2 2 2 2 2 2 2 2 2 2 2 2 2 2 2 2 2 2 2 2 2 2 2 2 2 2 2 2 2 2 2 2 2 2 2 2 2 2 2 2 2 2 2 2 2 2 2 2 2 2 2 2 2 2 2 2 2 2 2 2 2 2 2 2 2 2 2 2 2 2 2 2 2 2 2 2 2 2 2 2 2 2 2 2 2 2 2 2 2 2 2 2 2 2 2 2 2 2 2 2 2 2 2 2 2 2 2 2 2 2
				</DataArray>
				<DataArray Name="F1" type="Float32" format="ascii">
 1 1 1 1 1 1 1 1 1 1 1 1 1 1 1 1 1 1 1 1 1 1 1 1 1 1 1 1 1 1 1 1 1 1 1 1 1 1 1 1 1 1 1 1 1 1 1 1 1 1 1 1 1 1 1 1 1 1 1 1 1 1 1 1 1 1 1 1 1 1 1 1 1 1 1 1 1 1 1 1 1 1 1 1 1 1 1 1 1 1 1 1 1 1 1 1 1 1 1 1 1 1 1 1 1 1 1 1 1 1 1 1 1 1 1 1 1 1 1 1 1 1 1 1 1 1 1 1 1 1 1 1 1 1 1 1 1 1 1 1 1 1 1 1 1 1 1 1 1 1 1 1 1 1 1 1 1 1 1 1 1 1 1 1 1 1 1 1 1 1 1 1 1 1 1 1 1 1 1 1 1 1 1 1 1 1 1 1 1 1 1 1 1 1 1 1 1 1 1 1 1 1 1 1 1 1 1 1 1 1 1 1 1 1 1 1 1 1 1 1 1 1 1 1 1 1 1 1 1 1 1 1 1 1 1 1 1 1 1 1 1 1 1 1 1 1 1 1 1 1 1 1 1 1 1 1 1 1 1 1 1 1 1 1 1 1 1 1 1 1 1 1 1 1 1 1 1 1 1 1 1 1 1 1 1 1 1 1 1 1 1 1 1 1 1 1 1 1 1 1 1 1 1 1 1 1 1 1 1 1 1 1 1 1 1 1 1 1 1 1 1 1 1 1 1 1 1 1 1 1 1 1 1 1 1 1 1 1 1 1 1 1 1 1 1 1 1 1 1 1 1 1 1 1 1 1 1 1 1 1 1 1 1 1 1 1 1 1 1 1 1 1 1 1 1 1 1 1 1 1 1 1 1 1 1 1 1 1 1 1 1 1 1 1 1 1 1 1 1 1 1 1 1 1 1 1 1 1 1 1 1 1 1 1 1 1 1 1 1 1 1 1 1 1 1 1 1 1 1 1 1 1 1 1 1 1 1 1 1 1 1 1 1 1 1 1 1 1 1 1 1 1 1 1 1 1 1 1 1 1 1 1 1 1 1 1 1 1 1 1 1 1 1 1 1 1 1 1 1 1 1 1 1 1 1 1 1 1 1 1 1 1 1 1 1 1 1 1 1 1 1 1 1 1 1 1 1 1 1 1 1 1 1 1 1 1 1 1 1 1 1 1 1 1 1 1 1 1 1 1 1 1 1 1 1 1 1 1 1 1 0.999998 0.999998 0.999998 0.999998 0.999998 0.999992 0.999992 0.999992 0.999992 0.999992 0.999971 0.999971 0.999971 0.999971 0.999971 0.9999 0.9999 0.9999 0.9999 0.9999 0.999682 0.999682 0.999682 0.999682 0.999682 0.999075 0.999075 0.999075 0.999075 0.999075 0.997514 0.997514 0.997514 0.997514 0.997514 0.993815 0.993815 0.993815 0.993815 0.993815 0.985736 0.985736 0.985736 0.985736 0.985736 0.969457 0.969457 0.969457 0.969457 0.969457 0.93919 0.93919 0.93919 0.93919 0.93919 0.887293 0.887293 0.887293 0.887293 0.887293 0.805343 0.805343 0.805343 0.805343 0.805343 0.686467 0.686467 0.686467 0.686467 0.686467 0.528741 0.528741 0.528741 0.528741 0.528741 0.348303 0.348303 0.348303 0.348303 0.348303 0.208521 0.208521 0.208521 0.208521 0.208521 0.11712 0.11712 0.11712 0.11712 0.11712 0.0618891 0.0618891 0.0618891 0.0618891 0.0618891 0.0308574 0.0308574 0.0308574 0.0308574 0.0308574 0.0145503 0.0145503 0.0145503 0.0145503 0.0145503 0.00650065 0.00650065 0.00650065 0.00650065 0.00650065 0.00275561 0.00275561 0.00275561 0.00275561 0.00275561 0.00110933 0.00110933 0.00110933 0.00110933 0.00110933 0.000424303 0.000424303 0.000424303 0.000424303 0.000424303 0.000154174 0.000154174 0.000154174 0.000154174 0.000154174 5.31709e-05 5.31709e-05 5.31709e-05 5.31709e-05 5.31709e-05 1.73742e-05 1.73742e-05 1.73742e-05 1.73742e-05 1.73742e-05 5.36131e-06 5.36131e-06 5.36131e-06 5.36131e-06 5.36131e-06 1.5538e-06 1.5538e-06 1.5538e-06 1.5538e-06 1.5538e-06 4.18943e-07 4.18943e-07 4.18943e-07 4.18943e-07 4.18943e-07 1.0354e-07 1.0354e-07 1.0354e-07 1.0354e-07 1.0354e-07 2.27769e-08 2.27769e-08 2.27769e-08 2.27769e-08 2.27769e-08 4.27675e-09 4.27675e-09 4.27675e-09 4.27675e-09 4.27675e-09 6.17446e-10 6.17446e-10 6.17446e-10 6.17446e-10 6.17446e-10 5.94185e-11 5.94185e-11 5.94185e-11 5.94185e-11 5.94185e-11 2.38498e-12 2.38498e-12 2.38498e-12 2.38498e-12 2.38498e-12 1.46851e-14 1.46851e-14 1.46851e-14 1.46851e-14 1.46851e-14 0 0 0 0 0 0 0 0 0 0 0 0 0 0 0 0 0 0 0 0 0 0 0 0 0 0 0 0 0 0 0 0 0 0 0 0 0 0 0 0 0 0 0 0 0 0 0 0 0 0 0 0 0 0 0 0 0 0 0 0 0 0 0 0 0 0 0 0 0 0 0 0 0 0 0 0 0 0 0 0 0 0 0 0 0 0 0 0 0 0 0 0 0 0 0 0 0 0 0 0 0 0 0 0 0 0 0 0 0 0 0 0 0 0 0 0 0 0 0 0 0 0 0 0 0 0 0 0 0 0 0 0 0 0 0 0 0 0 0 0 0 0 0 0 0 0 0 0 0 0 0 0 0 0 0 0 0 0 0 0 0 0 0 0 0 0 0 0 0 0 0 0 0 0 0 0 0 0 0 0 0 0 0 0 0 0 0 0 0 0 0 0 0 0 0 0 0 0 0 0 0 0 0 0 0 0 0 0 0 0 0 0 0 0 0 0 0 0 0 0 0 0 0 0 0 0 0 0 0 0 0 0 0 0 0 0 0 0 0 0 0 0 0 0 0 0 0 0 0 0 0 0 0 0 0 0 0 0 0 0 0 0 0 0 0 0 0 0 0 0
				</DataArray>
				<DataArray Name="F2" type="Float32" format="ascii">
 0 0 0 0 0 0 0 0 0 0 0 0 0 0 0 0 0 0 0 0 0 0 0 0 0 0 0 0 0 0 0 0 0 0 0 0 0 0 0 0 0 0 0 0 0 0 0 0 0 0 0 0 0 0 0 0 0 0 0 0 0 0 0 0 0 0 0 0 0 0 0 0 0 0 0 0 0 0 0 0 0 0 0 0 0 0 0 0 0 0 0 0 0 0 0 0 0 0 0 0 0 0 0 0 0 0 0 0 0 0 0 0 0 0 0 0 0 0 0 0 0 0 0 0 0 0 0 0 0 0 0 0 0 0 0 0 0 0 0 0 0 0 0 0 0 0 0 0 0 0 0 0 0 0 0 0 0 0 0 0 0 0 0 0 0 0 0 0 0 0 0 0 0 0 0 0 0 0 0 0 0 0 0 0 0 0 0 0 0 0 0 0 0 0 0 0 0 0 0 0 0 0 0 0 0 0 0 0 0 0 0 0 0 0 0 0 0 0 0 0 0 0 0 0 0 0 0 0 0 0 0 0 0 0 0 0 0 0 0 0 0 0 0 0 0 0 0 0 0 0 0 0 0 0 0 0 0 0 0 0 0 0 0 0 0 0 0 0 0 0 0 0 0 0 0 0 0 0 0 0 0 0 0 0 0 0 0 0 0 0 0 0 0 0 0 0 0 0 0 0 0 0 0 0 0 0 0 0 0 0 0 0 0 0 0 0 0 0 0 0 0 0 0 0 0 0 0 0 0 0 0 0 0 0 0 0 0 0 0 0 0 0 0 0 0 0 0 0 0 0 0 0 0 0 0 0 0 0 0 0 0 0 0 0 0 0 0 0 0 0 0 0 0 0 0 0 0 0 0 0 0 0 0 0 0 0 0 0 0 0 0 0 0 0 0 0 0 0 0 0 0 0 0 0 0 0 0 0 0 0 0 0 0 0 0 0 0 0 0 0 0 0 0 0 0 0 0 0 0 0 0 0 0 0 0 0 0 0 0 0 0 0 0 0 0 0 0 0 0 0 0 0 0 0 0 0 0 0 0 0 0 0 0 0 0 0 0 0 0 0 0 0 0 0 0 0 0 0 0 0 0 0 0 0 0 0 0 0 0 0 0 0 0 0 0 0 0 0 0 0 5.30115e-14 5.30115e-14 5.30115e-14 5.30115e-14 5.30115e-14 1.52928e-12 1.52928e-12 1.52928e-12 1.52928e-12 1.52928e-12 2.30738e-11 2.30738e-11 2.30738e-11 2.30738e-11 2.30738e-11 2.42349e-10 2.42349e-10 2.42349e-10 2.42349e-10 2.42349e-10 1.98758e-09 1.98758e-09 1.98758e-09 1.98758e-09 1.98758e-09 1.35217e-08 1.35217e-08 1.35217e-08 1.35217e-08 1.35217e-08 7.90924e-08 7.90924e-08 7.90924e-08 7.90924e-08 7.90924e-08 4.06905e-07 4.06905e-07 4.06905e-07 4.06905e-07 4.06905e-07 1.86915e-06 1.86915e-06 1.86915e-06 1.86915e-06 1.86915e-06 7.74648e-06 7.74648e-06 7.74648e-06 7.74648e-06 7.74648e-06 2.91823e-05 2.91823e-05 2.91823e-05 2.91823e-05 2.91823e-05 0.000100487 0.000100487 0.000100487 0.000100487 0.000100487 0.000317636 0.000317636 0.000317636 0.000317636 0.000317636 0.000924782 0.000924782 0.000924782 0.000924782 0.000924782 0.00248627 0.00248627 0.00248627 0.00248627 0.00248627 0.0061852 0.0061852 0.0061852 0.0061852 0.0061852 0.014264 0.014264 0.014264 0.014264 0.014264 0.0305431 0.0305431 0.0305431 0.0305431 0.0305431 0.0608103 0.0608103 0.0608103 0.0608103 0.0608103 0.112707 0.112707 0.112707 0.112707 0.112707 0.194657 0.194657 0.194657 0.194657 0.194657 0.313533 0.313533 0.313533 0.313533 0.313533 0.471259 0.471259 0.471259 0.471259 0.471259 0.651697 0.651697 0.651697 0.651697 0.651697 0.791479 0.791479 0.791479 0.791479 0.791479 0.88288 0.88288 0.88288 0.88288 0.88288 0.938111 0.938111 0.938111 0.938111 0.938111 0.969143 0.969143 0.969143 0.969143 0.969143 0.98545 0.98545 0.98545 0.98545 0.98545 0.993499 0.993499 0.993499 0.993499 0.993499 0.997244 0.997244 0.997244 0.997244 0.997244 0.998891 0.998891 0.998891 0.998891 0.998891 0.999576 0.999576 0.999576 0.999576 0.999576 0.999846 0.999846 0.999846 0.999846 0.999846 0.999947 0.999947 0.999947 0.999947 0.999947 0.999983 0.999983 0.999983 0.999983 0.999983 0.999995 0.999995 0.999995 0.999995 0.999995 0.999998 0.999998 0.999998 0.999998 0.999998 1 1 1 1 1 1 1 1 1 1 1 1 1 1 1 1 1 1 1 1 1 1 1 1 1 1 1 1 1 1 1 1 1 1 1 1 1 1 1 1 1 1 1 1 1 1 1 1 1 1 1 1 1 1 1 1 1 1 1 1 1 1 1 1 1 1 1 1 1 1 1 1 1 1 1 1 1 1 1 1 1 1 1 1 1 1 1 1 1 1 1 1 1 1 1 1 1 1 1 1 1 1 1 1 1 1 1 1 1 1 1 1 1 1 1 1 1 1 1 1 1 1 1 1 1 1 1 1 1 1 1 1 1 1 1 1 1 1 1 1 1 1 1 1 1 1 1 1 1 1 1 1 1 1 1 1 1 1 1 1 1 1 1 1 1 1 1 1 1 1 1 1 1 1 1 1 1 1 1 1 1 1 1 1 1 1 1 1 1 1 1 1 1 1 1 1 1 1 1 1 1 1 1 1 1 1 1 1 1 1 1 1 1 1 1 1 1 1 1 1 1 1 1 1 1 1 1 1 1 1 1 1 1 1 1 1 1 1 1 1 1 1 1 1 1 1 1 1 1 1 1 1 1 1 1 1 1 1 1 1 1 1 1 1 1 1 1 1 1 1 1 1 1 1 1 1 1 1 1 1 1 1 1 1 1 1 1 1 1 1 1 1 1 1 1 1 1 1 1 1 1 1 1 1 1 1 1 1 1 1
				</DataArray>
				<DataArray Name="F3" type="Float32" format="ascii">