<?xml version="1.0"?>
<VTKFile type="PolyData">
	<PolyData>
		<Piece NumberOfPoints="1206" NumberOfPolys="1000">
			<Points>
				<DataArray type="Float32" NumberOfComponents="3" format="ascii">
 0 0 0 0.02 0 0 0.04 0 0 0.06 0 0 0.08 0 0 0.1 0 0 0 0.005 0 0.02 0.005 0 0.04 0.005 0 0.06 0.005 0 0.08 0.005 0 0.1 0.005 0 0 0.01 0 0.02 0.01 0 0.04 0.01 0 0.06 0.01 0 0.08 0.01 0 0.1 0.01 0 0 0.015 0 0.02 0.015 0 0.04 0.015 0 0.06 0.015 0 0.08 0.015 0 0.1 0.015 0 0 0.02 0 0.02 0.02 0 0.04 0.02 0 0.06 0.02 0 0.08 0.02 0 0.1 0.02 0 0 0.025 0 0.02 0.025 0 0.04 0.025 0 0.06 0.025 0 0.08 0.025 0 0.1 0.025 0 0 0.03 0 0.02 0.03 0 0.04 0.03 0 0.06 0.03 0 0.08 0.03 0 0.1 0.03 0 0 0.035 0 0.02 0.035 0 0.04 0.035 0 0.06 0.035 0 0.08 0.035 0 0.1 0.035 0 0 0.04 0 0.02 0.04 0 0.04 0.04 0 0.06 0.04 0 0.08 0.04 0 0.1 0.04 0 0 0.045 0 0.02 0.045 0 0.04 0.045 0 0.06 0.045 0 0.08 0.045 0 0.1 0.045 0 0 0.05 0 0.02 0.05 0 0.04 0.05 0 0.06 0.05 0 0.08 0.05 0 0.1 0.05 0 0 0.055 0 0.02 0.055 0 0.04 0.055 0 0.06 0.055 0 0.08 0.055 0 0.1 0.055 0 0 0.06 0 0.02 0.06 0 0.04 0.06 0 0.06 0.06 0 0.08 0.06 0 0.1 0.06 0 0 0.065 0 0.02 0.065 0 0.04 0.065 0 0.06 0.065 0 0.08 0.065 0 0.1 0.065 0 0 0.07 0 0.02 0.07 0 0.04 0.07 0 0.06 0.07 0 0.08 0.07 0 0.1 0.07 0 0 0.075 0 0.02 0.075 0 0.04 0.075 0 0.06 0.075 0 0.08 0.075 0 0.1 0.075 0 0 0.08 0 0.02 0.08 0 0.04 0.08 0 0.06 0.08 0 0.08 0.08 0 0.1 0.08 0 0 0.085 0 0.02 0.085 0 0.04 0.085 0 0.06 0.085 0 0.08 0.085 0 0.1 0.085 0 0 0.09 0 0.02 0.09 0 0.04 0.09 0 0.06 0.09 0 0.08 0.09 0 0.1 0.09 0 0 0.095 0 0.02 0.095 0 0.04 0.095 0 0.06 0.095 0 0.08 0.095 0 0.1 0.095 0 0 0.1 0 0.02 0.1 0 0.04 0.1 0 0.06 0.1 0 0.08 0.1 0 0.1 0.1 0 0 0.105 0 0.02 0.105 0 0.04 0.105 0 0.06 0.105 0 0.08 0.105 0 0.1 0.105 0 0 0.11 0 0.02 0.11 0 0.04 0.11 0 0.06 0.11 0 0.08 0.11 0 0.1 0.11 0 0 0.115 0 0.02 0.115 0 0.04 0.115 0 0.06 0.115 0 0.08 0.115 0 0.1 0.115 0 0 0.12 0 0.02 0.12 0 0.04 0.12 0 0.06 0.12 0 0.08 0.12 0 0.1 0.12 0 0 0.125 0 0.02 0.125 0 0.04 0.125 0 0.06 0.125 0 0.08 0.125 0 0.1 0.125 0 0 0.13 0 0.02 0.13 0 0.04 0.13 0 0.06 0.13 0 0.08 0.13 0 0.1 0.13 0 0 0.135 0 0.02 0.135 0 0.04 0.135 0 0.06 0.135 0 0.08 0.135 0 0.1 0.135 0 0 0.14 0 0.02 0.14 0 0.04 0.14 0 0.06 0.14 0 0.08 0.14 0 0.1 0.14 0 0 0.145 0 0.02 0.145 0 0.04 0.145 0 0.06 0.145 0 0.08 0.145 0 0.1 0.145 0 0 0.15 0 0.02 0.15 0 0.04 0.15 0 0.06 0.15 0 0.08 0.15 0 0.1 0.15 0 0 0.155 0 0.02 0.155 0 0.04 0.155 0 0.06 0.155 0 0.08 0.155 0 0.1 0.155 0 0 0.16 0 0.02 0.16 0 0.04 0.16 0 0.06 0.16 0 0.08 0.16 0 0.1 0.16 0 0 0.165 0 0.02 0.165 0 0.04 0.165 0 0.06 0.165 0 0.08 0.165 0 0.1 0.165 0 0 0.17 0 0.02 0.17 0 0.04 0.17 0 0.06 0.17 0 0.08 0.17 0 0.1 0.17 0 0 0.175 0 0.02 0.175 0 0.04 0.175 0 0.06 0.175 0 0.08 0.175 0 0.1 0.175 0 0 0.18 0 0.02 0.18 0 0.04 0.18 0 0.06 0.18 0 0.08 0.18 0 0.1 0.18 0 0 0.185 0 0.02 0.185 0 0.04 0.185 0 0.06 0.185 0 0.08 0.185 0 0.1 0.185 0 0 0.19 0 0.02 0.19 0 0.04 0.19 0 0.06 0.19 0 0.08 0.19 0 0.1 0.19 0 0 0.195 0 0.02 0.195 0 0.04 0.195 0 0.06 0.195 0 0.08 0.195 0 0.1 0.195 0 0 0.2 0 0.02 0.2 0 0.04 0.2 0 0.06 0.2 0 0.08 0.2 0 0.1 0.2 0 0 0.205 0 0.02 0.205 0 0.04 0.205 0 0.06 0.205 0 0.08 0.205 0 0.1 0.205 0 0 0.21 0 0.02 0.21 0 0.04 0.21 0 0.06 0.21 0 0.08 0.21 0 0.1 0.21 0 0 0.215 0 0.02 0.215 0 0.04 0.215 0 0.06 0.215 0 0.08 0.215 0 0.1 0.215 0 0 0.22 0 0.02 0.22 0 0.04 0.22 0 0.06 0.22 0 0.08 0.22 0 0.1 0.22 0 0 0.225 0 0.02 0.225 0 0.04 0.225 0 0.06 0.225 0 0.08 0.225 0 0.1 0.225 0 0 0.23 0 0.02 0.23 0 0.04 0.23 0 0.06 0.23 0 0.08 0.23 0 0.1 0.23 0 0 0.235 0 0.02 0.235 0 0.04 0.235 0 0.06 0.235 0 0.08 0.235 0 0.1 0.235 0 0 0.24 0 0.02 0.24 0 0.04 0.24 0 0.06 0.24 0 0.08 0.24 0 0.1 0.24 0 0 0.245 0 0.02 0.245 0 0.04 0.245 0 0.06 0.245 0 0.08 0.245 0 0.1 0.245 0 0 0.25 0 0.02 0.25 0 0.04 0.25 0 0.06 0.25 0 0.08 0.25 0 0.1 0.25 0 0 0.255 0 0.02 0.255 0 0.04 0.255 0 0.06 0.255 0 0.08 0.255 0 0.1 0.255 0 0 0.26 0 0.02 0.26 0 0.04 0.26 0 0.06 0.26 0 0.08 0.26 0 0.1 0.26 0 0 0.265 0 0.02 0.265 0 0.04 0.265 0 0.06 0.265 0 0.08 0.265 0 0.1 0.265 0 0 0.27 0 0.02 0.27 0 0.04 0.27 0 0.06 0.27 0 0.08 0.27 0 0.1 0.27 0 0 0.275 0 0.02 0.275 0 0.04 0.275 0 0.06 0.275 0 0.08 0.275 0 0.1 0.275 0 0 0.28 0 0.02 0.28 0 0.04 0.28 0 0.06 0.28 0 0.08 0.28 0 0.1 0.28 0 0 0.285 0 0.02 0.285 0 0.04 0.285 0 0.06 0.285 0 0.08 0.285 0 0.1 0.285 0 0 0.29 0 0.02 0.29 0 0.04 0.29 0 0.06 0.29 0 0.08 0.29 0 0.1 0.29 0 0 0.295 0 0.02 0.295 0 0.04 0.295 0 0.06 0.295 0 0.08 0.295 0 0.1 0.295 0 0 0.3 0 0.02 0.3 0 0.04 0.3 0 0.06 0.3 0 0.08 0.3 0 0.1 0.3 0 0 0.305 0 0.02 0.305 0 0.04 0.305 0 0.06 0.305 0 0.08 0.305 0 0.1 0.305 0 0 0.31 0 0.02 0.31 0 0.04 0.31 0 0.06 0.31 0 0.08 0.31 0 0.1 0.31 0 0 0.315 0 0.02 0.315 0 0.04 0.315 0 0.06 0.315 0 0.08 0.315 0 0.1 0.315 0 0 0.32 0 0.02 0.32 0 0.04 0.32 0 0.06 0.32 0 0.08 0.32 0 0.1 0.32 0 0 0.325 0 0.02 0.325 0 0.04 0.325 0 0.06 0.325 0 0.08 0.325 0 0.1 0.325 0 0 0.33 0 0.02 0.33 0 0.04 0.33 0 0.06 0.33 0 0.08 0.33 0 0.1 0.33 0 0 0.335 0 0.02 0.335 0 0.04 0.335 0 0.06 0.335 0 0.08 0.335 0 0.1 0.335 0 0 0.34 0 0.02 0.34 0 0.04 0.34 0 0.06 0.34 0 0.08 0.34 0 0.1 0.34 0 0 0.345 0 0.02 0.345 0 0.04 0.345 0 0.06 0.345 0 0.08 0.345 0 0.1 0.345 0 0 0.35 0 0.02 0.35 0 0.04 0.35 0 0.06 0.35 0 0.08 0.35 0 0.1 0.35 0 0 0.355 0 0.02 0.355 0 0.04 0.355 0 0.06 0.355 0 0.08 0.355 0 0.1 0.355 0 0 0.36 0 0.02 0.36 0 0.04 0.36 0 0.06 0.36 0 0.08 0.36 0 0.1 0.36 0 0 0.365 0 0.02 0.365 0 0.04 0.365 0 0.06 0.365 0 0.08 0.365 0 0.1 0.365 0 0 0.37 0 0.02 0.37 0 0.04 0.37 0 0.06 0.37 0 0.08 0.37 0 0.1 0.37 0 0 0.375 0 0.02 0.375 0 0.04 0.375 0 0.06 0.375 0 0.08 0.375 0 0.1 0.375 0 0 0.38 0 0.02 0.38 0 0.04 0.38 0 0.06 0.38 0 0.08 0.38 0 0.1 0.38 0 0 0.385 0 0.02 0.385 0 0.04 0.385 0 0.06 0.385 0 0.08 0.385 0 0.1 0.385 0 0 0.39 0 0.02 0.39 0 0.04 0.39 0 0.06 0.39 0 0.08 0.39 0 0.1 0.39 0 0 0.395 0 0.02 0.395 0 0.04 0.395 0 0.06 0.395 0 0.08 0.395 0 0.1 0.395 0 0 0.4 0 0.02 0.4 0 0.04 0.4 0 0.06 0.4 0 0.08 0.4 0 0.1 0.4 0 0 0.405 0 0.02 0.405 0 0.04 0.405 0 0.06 0.405 0 0.08 0.405 0 0.1 0.405 0 0 0.41 0 0.02 0.41 0 0.04 0.41 0 0.06 0.41 0 0.08 0.41 0 0.1 0.41 0 0 0.415 0 0.02 0.415 0 0.04 0.415 0 0.06 0.415 0 0.08 0.415 0 0.1 0.415 0 0 0.42 0 0.02 0.42 0 0.04 0.42 0 0.06 0.42 0 0.08 0.42 0 0.1 0.42 0 0 0.425 0 0.02 0.425 0 0.04 0.425 0 0.06 0.425 0 0.08 0.425 0 0.1 0.425 0 0 0.43 0 0.02 0.43 0 0.04 0.43 0 0.06 0.43 0 0.08 0.43 0 0.1 0.43 0 0 0.435 0 0.02 0.435 0 0.04 0.435 0 0.06 0.435 0 0.08 0.435 0 0.1 0.435 0 0 0.44 0 0.02 0.44 0 0.04 0.44 0 0.06 0.44 0 0.08 0.44 0 0.1 0.44 0 0 0.445 0 0.02 0.445 0 0.04 0.445 0 0.06 0.445 0 0.08 0.445 0 0.1 0.445 0 0 0.45 0 0.02 0.45 0 0.04 0.45 0 0.06 0.45 0 0.08 0.45 0 0.1 0.45 0 0 0.455 0 0.02 0.455 0 0.04 0.455 0 0.06 0.455 0 0.08 0.455 0 0.1 0.455 0 0 0.46 0 0.02 0.46 0 0.04 0.46 0 0.06 0.46 0 0.08 0.46 0 0.1 0.46 0 0 0.465 0 0.02 0.465 0 0.04 0.465 0 0.06 0.465 0 0.08 0.465 0 0.1 0.465 0 0 0.47 0 0.02 0.47 0 0.04 0.47 0 0.06 0.47 0 0.08 0.47 0 0.1 0.47 0 0 0.475 0 0.02 0.475 0 0.04 0.475 0 0.06 0.475 0 0.08 0.475 0 0.1 0.475 0 0 0.48 0 0.02 0.48 0 0.04 0.48 0 0.06 0.48 0 0.08 0.48 0 0.1 0.48 0 0 0.485 0 0.02 0.485 0 0.04 0.485 0 0.06 0.485 0 0.08 0.485 0 0.1 0.485 0 0 0.49 0 0.02 0.49 0 0.04 0.49 0 0.06 0.49 0 0.08 0.49 0 0.1 0.49 0 0 0.495 0 0.02 0.495 0 0.04 0.495 0 0.06 0.495 0 0.08 0.495 0 0.1 0.495 0 0 0.5 0 0.02 0.5 0 0.04 0.5 0 0.06 0.5 0 0.08 0.5 0 0.1 0.5 0 0 0.505 0 0.02 0.505 0 0.04 0.505 0 0.06 0.505 0 0.08 0.505 0 0.1 0.505 0 0 0.51 0 0.02 0.51 0 0.04 0.51 0 0.06 0.51 0 0.08 0.51 0 0.1 0.51 0 0 0.515 0 0.02 0.515 0 0.04 0.515 0 0.06 0.515 0 0.08 0.515 0 0.1 0.515 0 0 0.52 0 0.02 0.52 0 0.04 0.52 0 0.06 0.52 0 0.08 0.52 0 0.1 0.52 0 0 0.525 0 0.02 0.525 0 0.04 0.525 0 0.06 0.525 0 0.08 0.525 0 0.1 0.525 0 0 0.53 0 0.02 0.53 0 0.04 0.53 0 0.06 0.53 0 0.08 0.53 0 0.1 0.53 0 0 0.535 0 0.02 0.535 0 0.04 0.535 0 0.06 0.535 0 0.08 0.535 0 0.1 0.535 0 0 0.54 0 0.02 0.54 0 0.04 0.54 0 0.06 0.54 0 0.08 0.54 0 0.1 0.54 0 0 0.545 0 0.02 0.545 0 0.04 0.545 0 0.06 0.545 0 0.08 0.545 0 0.1 0.545 0 0 0.55 0 0.02 0.55 0 0.04 0.55 0 0.06 0.55 0 0.08 0.55 0 0.1 0.55 0 0 0.555 0 0.02 0.555 0 0.04 0.555 0 0.06 0.555 0 0.08 0.555 0 0.1 0.555 0 0 0.56 0 0.02 0.56 0 0.04 0.56 0 0.06 0.56 0 0.08 0.56 0 0.1 0.56 0 0 0.565 0 0.02 0.565 0 0.04 0.565 0 0.06 0.565 0 0.08 0.565 0 0.1 0.565 0 0 0.57 0 0.02 0.57 0 0.04 0.57 0 0.06 0.57 0 0.08 0.57 0 0.1 0.57 0 0 0.575 0 0.02 0.575 0 0.04 0.575 0 0.06 0.575 0 0.08 0.575 0 0.1 0.575 0 0 0.58 0 0.02 0.58 0 0.04 0.58 0 0.06 0.58 0 0.08 0.58 0 0.1 0.58 0 0 0.585 0 0.02 0.585 0 0.04 0.585 0 0.06 0.585 0 0.08 0.585 0 0.1 0.585 0 0 0.59 0 0.02 0.59 0 0.04 0.59 0 0.06 0.59 0 0.08 0.59 0 0.1 0.59 0 0 0.595 0 0.02 0.595 0 0.04 0.595 0 0.06 0.595 0 0.08 0.595 0 0.1 0.595 0 0 0.6 0 0.02 0.6 0 0.04 0.6 0 0.06 0.6 0 0.08 0.6 0 0.1 0.6 0 0 0.605 0 0.02 0.605 0 0.04 0.605 0 0.06 0.605 0 0.08 0.605 0 0.1 0.605 0 0 0.61 0 0.02 0.61 0 0.04 0.61 0 0.06 0.61 0 0.08 0.61 0 0.1 0.61 0 0 0.615 0 0.02 0.615 0 0.04 0.615 0 0.06 0.615 0 0.08 0.615 0 0.1 0.615 0 0 0.62 0 0.02 0.62 0 0.04 0.62 0 0.06 0.62 0 0.08 0.62 0 0.1 0.62 0 0 0.625 0 0.02 0.625 0 0.04 0.625 0 0.06 0.625 0 0.08 0.625 0 0.1 0.625 0 0 0.63 0 0.02 0.63 0 0.04 0.63 0 0.06 0.63 0 0.08 0.63 0 0.1 0.63 0 0 0.635 0 0.02 0.635 0 0.04 0.635 0 0.06 0.635 0 0.08 0.635 0 0.1 0.635 0 0 0.64 0 0.02 0.64 0 0.04 0.64 0 0.06 0.64 0 0.08 0.64 0 0.1 0.64 0 0 0.645 0 0.02 0.645 0 0.04 0.645 0 0.06 0.645 0 0.08 0.645 0 0.1 0.645 0 0 0.65 0 0.02 0.65 0 0.04 0.65 0 0.06 0.65 0 0.08 0.65 0 0.1 0.65 0 0 0.655 0 0.02 0.655 0 0.04 0.655 0 0.06 0.655 0 0.08 0.655 0 0.1 0.655 0 0 0.66 0 0.02 0.66 0 0.04 0.66 0 0.06 0.66 0 0.08 0.66 0 0.1 0.66 0 0 0.665 0 0.02 0.665 0 0.04 0.665 0 0.06 0.665 0 0.08 0.665 0 0.1 0.665 0 0 0.67 0 0.02 0.67 0 0.04 0.67 0 0.06 0.67 0 0.08 0.67 0 0.1 0.67 0 0 0.675 0 0.02 0.675 0 0.04 0.675 0 0.06 0.675 0 0.08 0.675 0 0.1 0.675 0 0 0.68 0 0.02 0.68 0 0.04 0.68 0 0.06 0.68 0 0.08 0.68 0 0.1 0.68 0 0 0.685 0 0.02 0.685 0 0.04 0.685 0 0.06 0.685 0 0.08 0.685 0 0.1 0.685 0 0 0.69 0 0.02 0.69 0 0.04 0.69 0 0.06 0.69 0 0.08 0.69 0 0.1 
[...]
			<CellData Scalars="Density">
				<DataArray Name="Density" type="Float32" format="ascii">
 1 1 1 1 1 1 1 1 1 1 1 1 1 1 1 1 1 1 1 1 1 1 1 1 1 1 1 1 1 1 1 1 1 1 1 1 1 1 1 1 1 1 1 1 1 1 1 1 1 1 1 1 1 1 1 1 1 1 1 1 1 1 1 1 1 1 1 1 1 1 1 1 1 1 1 1 1 1 1 1 1 1 1 1 1 1 1 1 1 1 1 1 1 1 1 1 1 1 1 1 1 1 1 1 1 1 1 1 1 1 1 1 1 1 1 1 1 1 1 1 1 1 1 1 1 1 1 1 1 1 1 1 1 1 1 1 1 1 1 1 1 1 1 1 1 1 1 1 1 1 1 1 1 1 1 1 1 1 1 1 1 1 1 1 1 1 1 1 1 1 1 1 1 1 1 1 1 1 1 1 1 1 1 1 1 1 1 1 1 1 1 1 1 1 1 1 1 1 1 1 1 1 1 1 1 1 1 1 1 1 1 1 1 1 1 1 1 1 1 1 1 1 1 1 1 1 1 1 1 1 0.999999 0.999999 0.999999 0.999999 0.999999 0.999998 0.999998 0.999998 0.999998 0.999998 0.999996 0.999996 0.999996 0.999996 0.999996 0.999988 0.999988 0.999988 0.999988 0.999988 0.999969 0.999969 0.999969 0.999969 0.999969 0.999919 0.999919 0.999919 0.999919 0.999919 0.99979 0.99979 0.99979 0.99979 0.99979 0.999483 0.999483 0.999483 0.999483 0.999483 0.998848 0.998848 0.998848 0.998848 0.998848 0.997662 0.997662 0.997662 0.997662 0.997662 0.995669 0.995669 0.995669 0.995669 0.995669 0.992601 0.992601 0.992601 0.992601 0.992601 0.988228 0.988228 0.988228 0.988228 0.988228 0.982392 0.982392 0.982392 0.982392 0.982392 0.975021 0.975021 0.975021 0.975021 0.975021 0.966138 0.966138 0.966138 0.966138 0.966138 0.955825 0.955825 0.955825 0.955825 0.955825 0.944223 0.944223 0.944223 0.944223 0.944223 0.93149 0.93149 0.93149 0.93149 0.93149 0.9178 0.9178 0.9178 0.9178 0.9178 0.903317 0.903317 0.903317 0.903317 0.903317 0.888192 0.888192 0.888192 0.888192 0.888192 0.872564 0.872564 0.872564 0.872564 0.872564 0.856554 0.856554 0.856554 0.856554 0.856554 0.840281 0.840281 0.840281 0.840281 0.840281 0.823838 0.823838 0.823838 0.823838 0.823838 0.807326 0.807326 0.807326 0.807326 0.807326 0.790794 0.790794 0.790794 0.790794 0.790794 0.774306 0.774306 0.774306 0.774306 0.774306 0.757919 0.757919 0.757919 0.757919 0.757919 0.741646 0.741646 0.741646 0.741646 0.741646 0.725562 0.725562 0.725562 0.725562 0.725562 0.709631 0.709631 0.709631 0.709631 0.709631 0.693959 0.693959 0.693959 0.693959 0.693959 0.678459 0.678459 0.678459 0.678459 0.678459 0.663269 0.663269 0.663269 0.663269 0.663269 0.648278 0.648278 0.648278 0.648278 0.648278 0.633613 0.633613 0.633613 0.633613 0.633613 0.619201 0.619201 0.619201 0.619201 0.619201 0.605097 0.605097 0.605097 0.605097 0.605097 0.591307 0.591307 0.591307 0.591307 0.591307 0.577846 0.577846 0.577846 0.577846 0.577846 0.5647 0.5647 0.5647 0.5647 0.5647 0.551935 0.551935 0.551935 0.551935 0.551935 0.539551 0.539551 0.539551 0.539551 0.539551 0.527541 0.527541 0.527541 0.527541 0.527541 0.51598 0.51598 0.51598 0.51598 0.51598 0.504892 0.504892 0.504892 0.504892 0.504892 0.494329 0.494329 0.494329 0.494329 0.494329 0.484301 0.484301 0.484301 0.484301 0.484301 0.474894 0.474894 0.474894 0.474894 0.474894 0.466188 0.466188 0.466188 0.466188 0.466188 0.458284 0.458284 0.458284 0.458284 0.458284 0.451186 0.451186 0.451186 0.451186 0.451186 0.444907 0.444907 0.444907 0.444907 0.444907 0.439532 0.439532 0.439532 0.439532 0.439532 0.435156 0.435156 0.435156 0.435156 0.435156 0.431682 0.431682 0.431682 0.431682 0.431682 0.428941 0.428941 0.428941 0.428941 0.428941 0.426875 0.426875 0.426875 0.426875 0.426875 0.425428 0.425428 0.425428 0.425428 0.425428 0.424427 0.424427 0.424427 0.424427 0.424427 0.423743 0.423743 0.423743 0.423743 0.423743 0.423324 0.423324 0.423324 0.423324 0.423324 0.423077 0.423077 0.423077 0.423077 0.423077 0.422885 0.422885 0.422885 0.422885 0.422885 0.422688 0.422688 0.422688 0.422688 0.422688 0.422477 0.422477 0.422477 0.422477 0.422477 0.422257 0.422257 0.422257 0.422257 0.422257 0.422026 0.422026 0.422026 0.422026 0.422026 0.421782 0.421782 0.421782 0.421782 0.421782 0.421505 0.421505 0.421505 0.421505 0.421505 0.421154 0.421154 0.421154 0.421154 0.421154 0.42064 0.42064 0.42064 0.42064 0.42064 0.419785 0.419785 0.419785 0.419785 0.419785 0.418285 0.418285 0.418285 0.418285 0.418285 0.415656 0.415656 0.415656 0.415656 0.415656 0.411203 0.411203 0.411203 0.411203 0.411203 0.404043 0.404043 0.404043 0.404043 0.404043 0.393183 0.393183 0.393183 0.393183 0.393183 0.377733 0.377733 0.377733 0.377733 0.377733 0.357236 0.357236 0.357236 0.357236 0.357236 0.331796 0.331796 0.331796 0.331796 0.331796 0.305969 0.305969 0.305969 0.305969 0.305969 0.289828 0.289828 0.289828 0.289828 0.289828 0.279357 0.279357 0.279357 0.279357 0.279357 0.273105 0.273105 0.273105 0.273105 0.273105 0.269655 0.269655 0.269655 0.269655 0.269655 0.267913 0.267913 0.267913 0.267913 0.267913 0.267123 0.267123 0.267123 0.267123 0.267123 0.266825 0.266825 0.266825 0.266825 0.266825 0.26675 0.26675 0.26675 0.26675 0.26675 0.26676 0.26676 0.26676 0.26676 0.26676 0.266794 0.266794 0.266794 0.266794 0.266794 0.266827 0.266827 0.266827 0.266827 0.266827 0.266849 0.266849 0.266849 0.266849 0.266849 0.266863 0.266863 0.266863 0.266863 0.266863 0.266867 0.266867 0.266867 0.266867 0.266867 0.266875 0.266875 0.266875 0.266875 0.266875 0.266863 0.266863 0.266863 0.266863 0.266863 0.266861 0.266861 0.266861 0.266861 0.266861 0.266782 0.266782 0.266782 0.266782 0.266782 0.26672 0.26672 0.26672 0.26672 0.26672 0.266175 0.266175 0.266175 0.266175 0.266175 0.265547 0.265547 0.265547 0.265547 0.265547 0.262066 0.262066 0.262066 0.262066 0.262066 0.256223 0.256223 0.256223 0.256223 0.256223 0.236178 0.236178 0.236178 0.236178 0.236178 0.20308 0.20308 0.20308 0.20308 0.20308 0.149104 0.149104 0.149104 0.149104 0.149104 0.129082 0.129082 0.129082 0.129082 0.129082 0.125638 0.125638 0.125638 0.125638 0.125638 0.125097 0.125097 0.125097 0.125097 0.125097 0.125015 0.125015 0.125015 0.125015 0.125015 0.125002 0.125002 0.125002 0.125002 0.125002 0.125 0.125 0.125 0.125 0.125 0.125 0.125 0.125 0.125 0.125 0.125 0.125 0.125 0.125 0.125 0.125 0.125 0.125 0.125 0.125 0.125 0.125 0.125 0.125 0.125 0.125 0.125 0.125 0.125 0.125 0.125 0.125 0.125 0.125 0.125 0.125 0.125 0.125 0.125 0.125 0.125 0.125 0.125 0.125 0.125 0.125 0.125 0.125 0.125 0.125 0.125 0.125 0.125 0.125 0.125 0.125 0.125 0.125 0.125 0.125 0.125 0.125 0.125 0.125 0.125 0.125 0.125 0.125 0.125 0.125 0.125 0.125 0.125 0.125 0.125 0.125 0.125 0.125 0.125 0.125 0.125 0.125 0.125 0.125 0.125 0.125 0.125 0.125 0.125 0.125 0.125 0.125 0.125 0.125 0.125 0.125 0.125 0.125 0.125 0.125 0.125 0.125 0.125 0.125 0.125 0.125 0.125 0.125 0.125 0.125 0.125 0.125 0.125 0.125 0.125 0.125 0.125 0.125 0.125 0.125 0.125 0.125 0.125 0.125 0.125 0.125 0.125 0.125 0.125 0.125 0.125 0.125 0.125 0.125 0.125 0.125 0.125 0.125 0.125 0.125 0.125 0.125 0.125 0.125 0.125 0.125 0.125 0.125 0.125 0.125 0.125 0.125 0.125 0.125 0.125 0.125 0.125 0.125 0.125 0.125 0.125 0.125 0.125 0.125 0.125 0.125 0.125 0.125 0.125 0.125 0.125 0.125 0.125 0.125 0.125 0.125 0.125 0.125 0.125 0.125 0.125 0.125 0.125 0.125 0.125 0.125 0.125 0.125 0.125 0.125 0.125 0.125 0.125 0.125 0.125
				</DataArray>
				<DataArray Name="Energy" type="Float32" format="ascii">
 2.5 2.5 2.5 2.5 2.5 2.5 2.5 2.5 2.5 2.5 2.5 2.5 2.5 2.5 2.5 2.5 2.5 2.5 2.5 2.5 2.5 2.5 2.5 2.5 2.5 2.5 2.5 2.5 2.5 2.5 2.5 2.5 2.5 2.5 2.5 2.5 2.5 2.5 2.5 2.5 2.5 2.5 2.5 2.5 2.5 2.5 2.5 2.5 2.5 2.5 2.5 2.5 2.5 2.5 2.5 2.5 2.5 2.5 2.5 2.5 2.5 2.5 2.5 2.5 2.5 2.5 2.5 2.5 2.5 2.5 2.5 2.5 2.5 2.5 2.5 2.5 2.5 2.5 2.5 2.5 2.5 2.5 2.5 2.5 2.5 2.5 2.5 2.5 2.5 2.5 2.5 2.5 2.5 2.5 2.5 2.5 2.5 2.5 2.5 2.5 2.5 2.5 2.5 2.5 2.5 2.5 2.5 2.5 2.5 2.5 2.5 2.5 2.5 2.5 2.5 2.5 2.5 2.5 2.5 2.5 2.5 2.5 2.5 2.5 2.5 2.5 2.5 2.5 2.5 2.5 2.5 2.5 2.5 2.5 2.5 2.5 2.5 2.5 2.5 2.5 2.5 2.5 2.5 2.5 2.5 2.5 2.5 2.5 2.5 2.5 2.5 2.5 2.5 2.5 2.5 2.5 2.5 2.5 2.5 2.5 2.5 2.5 2.5 2.5 2.5 2.5 2.5 2.5 2.5 2.5 2.5 2.5 2.5 2.5 2.5 2.5 2.5 2.5 2.5 2.5 2.5 2.5 2.5 2.5 2.5 2.5 2.5 2.5 2.5 2.5 2.5 2.5 2.5 2.5 2.5 2.5 2.5 2.5 2.5 2.5 2.5 2.5 2.5 2.5 2.5 2.5 2.5 2.5 2.5 2.5 2.5 2.5 2.5 2.5 2.5 2.5 2.5 2.5 2.5 2.5 2.5 2.5 2.5 2.5 2.5 2.5 2.5 2.5 2.5 2.5 2.5 2.5 2.5 2.5 2.5 2.5 2.5 2.5 2.5 2.5 2.5 2.5 2.5 2.5 2.5 2.49999 2.49999 2.49999 2.49999 2.49999 2.49997 2.49997 2.49997 2.49997 2.49997 2.49992 2.49992 2.49992 2.49992 2.49992 2.49979 2.49979 2.49979 2.49979 2.49979 2.49948 2.49948 2.49948 2.49948 2.49948 2.49885 2.49885 2.49885 2.49885 2.49885 2.49766 2.49766 2.49766 2.49766 2.49766 2.49567 2.49567 2.49567 2.49567 2.49567 2.49259 2.49259 2.49259 2.49259 2.49259 2.4882 2.4882 2.4882 2.4882 2.4882 2.48234 2.48234 2.48234 2.48234 2.48234 2.4749 2.4749 2.4749 2.4749 2.4749 2.4659 2.4659 2.4659 2.4659 2.4659 2.45541 2.45541 2.45541 2.45541 2.45541 2.44353 2.44353 2.44353 2.44353 2.44353 2.4304 2.4304 2.4304 2.4304 2.4304 2.41618 2.41618 2.41618 2.41618 2.41618 2.401 2.401 2.401 2.401 2.401 2.38501 2.38501 2.38501 2.38501 2.38501 2.36833 2.36833 2.36833 2.36833 2.36833 2.35106 2.35106 2.35106 2.35106 2.35106 2.33331 2.33331 2.33331 2.33331 2.33331 2.31518 2.31518 2.31518 2.31518 2.31518 2.29673 2.29673 2.29673 2.29673 2.29673 2.27805 2.27805 2.27805 2.27805 2.27805 2.25921 2.25921 2.25921 2.25921 2.25921 2.24025 2.24025 2.24025 2.24025 2.24025 2.22119 2.22119 2.22119 2.22119 2.22119 2.20211 2.20211 2.20211 2.20211 2.20211 2.18296 2.18296 2.18296 2.18296 2.18296 2.16389 2.16389 2.16389 2.16389 2.16389 2.14478 2.14478 2.14478 2.14478 2.14478 2.1258 2.1258 2.1258 2.1258 2.1258 2.10681 2.10681 2.10681 2.10681 2.10681 2.08803 2.08803 2.08803 2.08803 2.08803 2.06923 2.06923 2.06923 2.06923 2.06923 2.05074 2.05074 2.05074 2.05074 2.05074 2.03225 2.03225 2.03225 2.03225 2.03225 2.01404 2.01404 2.01404 2.01404 2.01404 1.99608 1.99608 1.99608 1.99608 1.99608 1.97831 1.97831 1.97831 1.97831 1.97831 1.96084 1.96084 1.96084 1.96084 1.96084 1.94377 1.94377 1.94377 1.94377 1.94377 1.92712 1.92712 1.92712 1.92712 1.92712 1.91086 1.91086 1.91086 1.91086 1.91086 1.89518 1.89518 1.89518 1.89518 1.89518 1.88021 1.88021 1.88021 1.88021 1.88021 1.8661 1.8661 1.8661 1.8661 1.8661 1.85282 1.85282 1.85282 1.85282 1.85282 1.84046 1.84046 1.84046 1.84046 1.84046 1.82934 1.82934 1.82934 1.82934 1.82934 1.8198 1.8198 1.8198 1.8198 1.8198 1.8117 1.8117 1.8117 1.8117 1.8117 1.8047 1.8047 1.8047 1.8047 1.8047 1.79902 1.79902 1.79902 1.79902 1.79902 1.79498 1.79498 1.79498 1.79498 1.79498 1.79222 1.79222 1.79222 1.79222 1.79222 1.79031 1.79031 1.79031 1.79031 1.79031 1.78921 1.78921 1.78921 1.78921 1.78921 1.78877 1.78877 1.78877 1.78877 1.78877 1.78858 1.78858 1.78858 1.78858 1.78858 1.78852 1.78852 1.78852 1.78852 1.78852 1.78879 1.78879 1.78879 1.78879 1.78879 1.78945 1.78945 1.78945 1.78945 1.78945 1.79036 1.79036 1.79036 1.79036 1.79036 1.79138 1.79138 1.79138 1.79138 1.79138 1.79246 1.79246 1.79246 1.79246 1.79246 1.79355 1.79355 1.79355 1.79355 1.79355 1.79477 1.79477 1.79477 1.79477 1.79477 1.79628 1.79628 1.79628 1.79628 1.79628 1.79847 1.79847 1.79847 1.79847 1.79847 1.80213 1.80213 1.80213 1.80213 1.80213 1.8086 1.8086 1.8086 1.8086 1.8086 1.82006 1.82006 1.82006 1.82006 1.82006 1.83979 1.83979 1.83979 1.83979 1.83979 1.87242 1.87242 1.87242 1.87242 1.87242 1.92416 1.92416 1.92416 1.92416 1.92416 2.00283 2.00283 2.00283 2.00283 2.00283 2.1178 2.1178 2.1178 2.1178 2.1178 2.27855 2.27855 2.27855 2.27855 2.27855 2.47016 2.47016 2.47016 2.47016 2.47016 2.6102 2.6102 2.6102 2.6102 2.6102 2.70812 2.70812 2.70812 2.70812 2.70812 2.77018 2.77018 2.77018 2.77018 2.77018 2.8056 2.8056 2.8056 2.8056 2.8056 2.82383 2.82383 2.82383 2.82383 2.82383 2.83213 2.83213 2.83213 2.83213 2.83213 2.83526 2.83526 2.83526 2.83526 2.83526 2.83602 2.83602 2.83602 2.83602 2.83602 2.83585 2.83585 2.83585 2.83585 2.83585 2.83542 2.83542 2.83542 2.83542 2.83542 2.83498 2.83498 2.83498 2.83498 2.83498 2.83463 2.83463 2.83463 2.83463 2.83463 2.83437 2.83437 2.83437 2.83437 2.83437 2.83414 2.83414 2.83414 2.83414 2.83414 2.83395 2.83395 2.83395 2.83395 2.83395 2.83373 2.83373 2.83373 2.83373 2.83373 2.83358 2.83358 2.83358 2.83358 2.83358 2.83316 2.83316 2.83316 2.83316 2.83316 2.83287 2.83287 2.83287 2.83287 2.83287 2.83053 2.83053 2.83053 2.83053 2.83053 2.82782 2.82782 2.82782 2.82782 2.82782 2.81281 2.81281 2.81281 2.81281 2.81281 2.78674 2.78674 2.78674 2.78674 2.78674 2.69249 2.69249 2.69249 2.69249 2.69249 2.50751 2.50751 2.50751 2.50751 2.50751 2.16625 2.16625 2.16625 2.16625 2.16625 2.02688 2.02688 2.02688 2.02688 2.02688 2.0041 2.0041 2.0041 2.0041 2.0041 2.00062 2.00062 2.00062 2.00062 2.00062 2.00009 2.00009 2.00009 2.00009 2.00009 2.00001 2.00001 2.00001 2.00001 2.00001 2 2 2 2 2 2 2 2 2 2 2 2 2 2 2 2 2 2 2 2 2 2 2 2 2 2 2 2 2 2 2 2 2 2 2 2 2 2 2 2 2 2 2 2 2 2 2 2 2 2 2 2 2 2 2 2 2 2 2 2 2 2 2 2 2 2 2 2 2 2 2 2 2 2 2 2 2 2 2 2 2 2 2 2 2 2 2 2 2 2 2 2 2 2 2 2 2 2 2 2 2 2 2 2 2 2 2 2 2 2 2 2 2 2 2 2 2 2 2 2 2 2 2 2 2 2 2 2 2 2 2 2 2 2 2 2 2 2 2 2 2 2 2 2 2 2 2 2 2 2 2 2 2 2 2 2 2 2 2 2 2 2 2 2 2 2 2 2 2 2 2 2 2 2 2 2 2 2 2 2 2 2 2 2 2 2 2 2 2 2 2 2 2 2 2
				</DataArray>
				<DataArray Name="F1" type="Float32" format="ascii">
 1 1 1 1 1 1 1 1 1 1 1 1 1 1 1 1 1 1 1 1 1 1 1 1 1 1 1 1 1 1 1 1 1 1 1 1 1 1 1 1 1 1 1 1 1 1 1 1 1 1 1 1 1 1 1 1 1 1 1 1 1 1 1 1 1 1 1 1 1 1 1 1 1 1 1 1 1 1 1 1 1 1 1 1 1 1 1 1 1 1 1 1 1 1 1 1 1 1 1 1 1 1 1 1 1 1 1 1 1 1 1 1 1 1 1 1 1 1 1 1 1 1 1 1 1 1 1 1 1 1 1 1 1 1 1 1 1 1 1 1 1 1 1 1 1 1 1 1 1 1 1 1 1 1 1 1 1 1 1 1 1 1 1 1 1 1 1 1 1 1 1 1 1 1 1 1 1 1 1 1 1 1 1 1 1 1 1 1 1 1 1 1 1 1 1 1 1 1 1 1 1 1 1 1 1 1 1 1 1 1 1 1 1 1 1 1 1 1 1 1 1 1 1 1 1 1 1 1 1 1 1 1 1 1 1 1 1 1 1 1 1 1 1 1 1 1 1 1 1 1 1 1 1 1 1 1 1 1 1 1 1 1 1 1 1 1 1 1 1 1 1 1 1 1 1 1 1 1 1 1 1 1 1 1 1 1 1 1 1 1 1 1 1 1 1 1 1 1 1 1 1 1 1 1 1 1 1 1 1 1 1 1 1 1 1 1 1 1 1 1 1 1 1 1 1 1 1 1 1 1 1 1 1 1 1 1 1 1 1 1 1 1 1 1 1 1 1 1 1 1 1 1 1 1 1 1 1 1 1 1 1 1 1 1 1 1 1 1 1 1 1 1 1 1 1 1 1 1 1 1 1 1 1 1 1 1 1 1 1 1 1 1 1 1 1 1 1 1 1 1 1 1 1 1 1 1 1 1 1 1 1 1 1 1 1 1 1 1 1 1 1 1 1 1 1 1 1 1 1 1 1 1 1 1 1 1 1 1 1 1 1 1 1 1 1 1 1 1 1 1 1 1 1 1 1 1 1 1 1 1 1 1 1 1 1 1 1 1 1 1 1 1 1 1 1 1 1 1 1 1 1 1 1 1 1 1 1 1 1 1 1 1 1 1 1 1 1 1 1 1 1 1 1 1 1 1 1 1 1 1 1 1 1 1 1 1 1 1 1 1 1 1 1 1 1 1 1 1 1 1 1 1 1 1 1 1 1 1 1 1 1 1 1 1 1 1 1 1 1 1 1 1 1 1 1 1 1 1 1 1 0.999999 0.999999 0.999999 0.999999 0.999999 0.999995 0.999995 0.999995 0.999995 0.999995 0.999985 0.999985 0.999985 0.999985 0.999985 0.999951 0.999951 0.999951 0.999951 0.999951 0.999854 0.999854 0.999854 0.999854 0.999854 0.999596 0.999596 0.999596 0.999596 0.999596 0.99895 0.99895 0.99895 0.99895 0.99895 0.99744 0.99744 0.99744 0.99744 0.99744 0.994136 0.994136 0.994136 0.994136 0.994136 0.98737 0.98737 0.98737 0.98737 0.98737 0.974391 0.974391 0.974391 0.974391 0.974391 0.951085 0.951085 0.951085 0.951085 0.951085 0.911924 0.911924 0.911924 0.911924 0.911924 0.850429 0.850429 0.850429 0.850429 0.850429 0.760357 0.760357 0.760357 0.760357 0.760357 0.637652 0.637652 0.637652 0.637652 0.637652 0.482874 0.482874 0.482874 0.482874 0.482874 0.319753 0.319753 0.319753 0.319753 0.319753 0.198165 0.198165 0.198165 0.198165 0.198165 0.116247 0.116247 0.116247 0.116247 0.116247 0.0647618 0.0647618 0.0647618 0.0647618 0.0647618 0.0343468 0.0343468 0.0343468 0.0343468 0.0343468 0.017377 0.017377 0.017377 0.017377 0.017377 0.00840128 0.00840128 0.00840128 0.00840128 0.00840128 0.00388728 0.00388728 0.00388728 0.00388728 0.00388728 0.00172349 0.00172349 0.00172349 0.00172349 0.00172349 0.000732944 0.000732944 0.000732944 0.000732944 0.000732944 0.000299197 0.000299197 0.000299197 0.000299197 0.000299197 0.000117298 0.000117298 0.000117298 0.000117298 0.000117298 4.41754e-05 4.41754e-05 4.41754e-05 4.41754e-05 4.41754e-05 1.59806e-05 1.59806e-05 1.59806e-05 1.59806e-05 1.59806e-05 5.5506e-06 5.5506e-06 5.5506e-06 5.5506e-06 5.5506e-06 1.84933e-06 1.84933e-06 1.84933e-06 1.84933e-06 1.84933e-06 5.90048e-07 5.90048e-07 5.90048e-07 5.90048e-07 5.90048e-07 1.7981e-07 1.7981e-07 1.7981e-07 1.7981e-07 1.7981e-07 5.21104e-08 5.21104e-08 5.21104e-08 5.21104e-08 5.21104e-08 1.42672e-08 1.42672e-08 1.42672e-08 1.42672e-08 1.42672e-08 3.64899e-09 3.64899e-09 3.64899e-09 3.64899e-09 3.64899e-09 8.56935e-10 8.56935e-10 8.56935e-10 8.56935e-10 8.56935e-10 1.78571e-10 1.78571e-10 1.78571e-10 1.78571e-10 1.78571e-10 3.14523e-11 3.14523e-11 3.14523e-11 3.14523e-11 3.14523e-11 4.13394e-12 4.13394e-12 4.13394e-12 4.13394e-12 4.13394e-12 3.46173e-13 3.46173e-13 3.46173e-13 3.46173e-13 3.46173e-13 9.45693e-15 9.45693e-15 9.45693e-15 9.45693e-15 9.45693e-15 0 0 0 0 0 0 0 0 0 0 0 0 0 0 0 0 0 0 0 0 0 0 0 0 0 0 0 0 0 0 0 0 0 0 0 0 0 0 0 0 0 0 0 0 0 0 0 0 0 0 0 0 0 0 0 0 0 0 0 0 0 0 0 0 0 0 0 0 0 0 0 0 0 0 0 0 0 0 0 0 0 0 0 0 0 0 0 0 0 0 0 0 0 0 0 0 0 0 0 0 0 0 0 0 0 0 0 0 0 0 0 0 0 0 0 0 0 0 0 0 0 0 0 0 0 0 0 0 0 0 0 0 0 0 0 0 0 0 0 0 0 0 0 0 0 0 0 0 0 0 0 0 0 0 0 0 0 0 0 0 0 0 0 0 0 0 0 0 0 0 0 0 0 0 0 0 0 0 0 0 0 0 0 0 0 0 0 0 0 0 0 0 0 0 0 0 0 0 0 0 0 0 0 0 0 0 0 0 0 0 0 0 0 0 0 0 0 0 0 0
				</DataArray>
				<DataArray Name="F2" type="Float32" format="ascii">