<?xml version="1.0"?>
<VTKFile type="PolyData">
	<PolyData>
		<Piece NumberOfPoints="1206" NumberOfPolys="1000">
			<Points>
				<DataArray type="Float32" NumberOfComponents="3" format="ascii">
 0 0 0 0.02 0 0 0.04 0 0 0.06 0 0 0.08 0 0 0.1 0 0 0 0.005 0 0.02 0.005 0 0.04 0.005 0 0.06 0.005 0 0.08 0.005 0 0.1 0.005 0 0 0.01 0 0.02 0.01 0 0.04 0.01 0 0.06 0.01 0 0.08 0.01 0 0.1 0.01 0 0 0.015 0 0.02 0.015 0 0.04 0.015 0 0.06 0.015 0 0.08 0.015 0 0.1 0.015 0 0 0.02 0 0.02 0.02 0 0.04 0.02 0 0.06 0.02 0 0.08 0.02 0 0.1 0.02 0 0 0.025 0 0.02 0.025 0 0.04 0.025 0 0.06 0.025 0 0.08 0.025 0 0.1 0.025 0 0 0.03 0 0.02 0.03 0 0.04 0.03 0 0.06 0.03 0 0.08 0.03 0 0.1 0.03 0 0 0.035 0 0.02 0.035 0 0.04 0.035 0 0.06 0.035 0 0.08 0.035 0 0.1 0.035 0 0 0.04 0 0.02 0.04 0 0.04 0.04 0 0.06 0.04 0 0.08 0.04 0 0.1 0.04 0 0 0.045 0 0.02 0.045 0 0.04 0.045 0 0.06 0.045 0 0.08 0.045 0 0.1 0.045 0 0 0.05 0 0.02 0.05 0 0.04 0.05 0 0.06 0.05 0 0.08 0.05 0 0.1 0.05 0 0 0.055 0 0.02 0.055 0 0.04 0.055 0 0.06 0.055 0 0.08 0.055 0 0.1 0.055 0 0 0.06 0 0.02 0.06 0 0.04 0.06 0 0.06 0.06 0 0.08 0.06 0 0.1 0.06 0 0 0.065 0 0.02 0.065 0 0.04 0.065 0 0.06 0.065 0 0.08 0.065 0 0.1 0.065 0 0 0.07 0 0.02 0.07 0 0.04 0.07 0 0.06 0.07 0 0.08 0.07 0 0.1 0.07 0 0 0.075 0 0.02 0.075 0 0.04 0.075 0 0.06 0.075 0 0.08 0.075 0 0.1 0.075 0 0 0.08 0 0.02 0.08 0 0.04 0.08 0 0.06 0.08 0 0.08 0.08 0 0.1 0.08 0 0 0.085 0 0.02 0.085 0 0.04 0.085 0 0.06 0.085 0 0.08 0.085 0 0.1 0.085 0 0 0.09 0 0.02 0.09 0 0.04 0.09 0 0.06 0.09 0 0.08 0.09 0 0.1 0.09 0 0 0.095 0 0.02 0.095 0 0.04 0.095 0 0.06 0.095 0 0.08 0.095 0 0.1 0.095 0 0 0.1 0 0.02 0.1 0 0.04 0.1 0 0.06 0.1 0 0.08 0.1 0 0.1 0.1 0 0 0.105 0 0.02 0.105 0 0.04 0.105 0 0.06 0.105 0 0.08 0.105 0 0.1 0.105 0 0 0.11 0 0.02 0.11 0 0.04 0.11 0 0.06 0.11 0 0.08 0.11 0 0.1 0.11 0 0 0.115 0 0.02 0.115 0 0.04 0.115 0 0.06 0.115 0 0.08 0.115 0 0.1 0.115 0 0 0.12 0 0.02 0.12 0 0.04 0.12 0 0.06 0.12 0 0.08 0.12 0 0.1 0.12 0 0 0.125 0 0.02 0.125 0 0.04 0.125 0 0.06 0.125 0 0.08 0.125 0 0.1 0.125 0 0 0.13 0 0.02 0.13 0 0.04 0.13 0 0.06 0.13 0 0.08 0.13 0 0.1 0.13 0 0 0.135 0 0.02 0.135 0 0.04 0.135 0 0.06 0.135 0 0.08 0.135 0 0.1 0.135 0 0 0.14 0 0.02 0.14 0 0.04 0.14 0 0.06 0.14 0 0.08 0.14 0 0.1 0.14 0 0 0.145 0 0.02 0.145 0 0.04 0.145 0 0.06 0.145 0 0.08 0.145 0 0.1 0.145 0 0 0.15 0 0.02 0.15 0 0.04 0.15 0 0.06 0.15 0 0.08 0.15 0 0.1 0.15 0 0 0.155 0 0.02 0.155 0 0.04 0.155 0 0.06 0.155 0 0.08 0.155 0 0.1 0.155 0 0 0.16 0 0.02 0.16 0 0.04 0.16 0 0.06 0.16 0 0.08 0.16 0 0.1 0.16 0 0 0.165 0 0.02 0.165 0 0.04 0.165 0 0.06 0.165 0 0.08 0.165 0 0.1 0.165 0 0 0.17 0 0.02 0.17 0 0.04 0.17 0 0.06 0.17 0 0.08 0.17 0 0.1 0.17 0 0 0.175 0 0.02 0.175 0 0.04 0.175 0 0.06 0.175 0 0.08 0.175 0 0.1 0.175 0 0 0.18 0 0.02 0.18 0 0.04 0.18 0 0.06 0.18 0 0.08 0.18 0 0.1 0.18 0 0 0.185 0 0.02 0.185 0 0.04 0.185 0 0.06 0.185 0 0.08 0.185 0 0.1 0.185 0 0 0.19 0 0.02 0.19 0 0.04 0.19 0 0.06 0.19 0 0.08 0.19 0 0.1 0.19 0 0 0.195 0 0.02 0.195 0 0.04 0.195 0 0.06 0.195 0 0.08 0.195 0 0.1 0.195 0 0 0.2 0 0.02 0.2 0 0.04 0.2 0 0.06 0.2 0 0.08 0.2 0 0.1 0.2 0 0 0.205 0 0.02 0.205 0 0.04 0.205 0 0.06 0.205 0 0.08 0.205 0 0.1 0.205 0 0 0.21 0 0.02 0.21 0 0.04 0.21 0 0.06 0.21 0 0.08 0.21 0 0.1 0.21 0 0 0.215 0 0.02 0.215 0 0.04 0.215 0 0.06 0.215 0 0.08 0.215 0 0.1 0.215 0 0 0.22 0 0.02 0.22 0 0.04 0.22 0 0.06 0.22 0 0.08 0.22 0 0.1 0.22 0 0 0.225 0 0.02 0.225 0 0.04 0.225 0 0.06 0.225 0 0.08 0.225 0 0.1 0.225 0 0 0.23 0 0.02 0.23 0 0.04 0.23 0 0.06 0.23 0 0.08 0.23 0 0.1 0.23 0 0 0.235 0 0.02 0.235 0 0.04 0.235 0 0.06 0.235 0 0.08 0.235 0 0.1 0.235 0 0 0.24 0 0.02 0.24 0 0.04 0.24 0 0.06 0.24 0 0.08 0.24 0 0.1 0.24 0 0 0.245 0 0.02 0.245 0 0.04 0.245 0 0.06 0.245 0 0.08 0.245 0 0.1 0.245 0 0 0.25 0 0.02 0.25 0 0.04 0.25 0 0.06 0.25 0 0.08 0.25 0 0.1 0.25 0 0 0.255 0 0.02 0.255 0 0.04 0.255 0 0.06 0.255 0 0.08 0.255 0 0.1 0.255 0 0 0.26 0 0.02 0.26 0 0.04 0.26 0 0.06 0.26 0 0.08 0.26 0 0.1 0.26 0 0 0.265 0 0.02 0.265 0 0.04 0.265 0 0.06 0.265 0 0.08 0.265 0 0.1 0.265 0 0 0.27 0 0.02 0.27 0 0.04 0.27 0 0.06 0.27 0 0.08 0.27 0 0.1 0.27 0 0 0.275 0 0.02 0.275 0 0.04 0.275 0 0.06 0.275 0 0.08 0.275 0 0.1 0.275 0 0 0.28 0 0.02 0.28 0 0.04 0.28 0 0.06 0.28 0 0.08 0.28 0 0.1 0.28 0 0 0.285 0 0.02 0.285 0 0.04 0.285 0 0.06 0.285 0 0.08 0.285 0 0.1 0.285 0 0 0.29 0 0.02 0.29 0 0.04 0.29 0 0.06 0.29 0 0.08 0.29 0 0.1 0.29 0 0 0.295 0 0.02 0.295 0 0.04 0.295 0 0.06 0.295 0 0.08 0.295 0 0.1 0.295 0 0 0.3 0 0.02 0.3 0 0.04 0.3 0 0.06 0.3 0 0.08 0.3 0 0.1 0.3 0 0 0.305 0 0.02 0.305 0 0.04 0.305 0 0.06 0.305 0 0.08 0.305 0 0.1 0.305 0 0 0.31 0 0.02 0.31 0 0.04 0.31 0 0.06 0.31 0 0.08 0.31 0 0.1 0.31 0 0 0.315 0 0.02 0.315 0 0.04 0.315 0 0.06 0.315 0 0.08 0.315 0 0.1 0.315 0 0 0.32 0 0.02 0.32 0 0.04 0.32 0 0.06 0.32 0 0.08 0.32 0 0.1 0.32 0 0 0.325 0 0.02 0.325 0 0.04 0.325 0 0.06 0.325 0 0.08 0.325 0 0.1 0.325 0 0 0.33 0 0.02 0.33 0 0.04 0.33 0 0.06 0.33 0 0.08 0.33 0 0.1 0.33 0 0 0.335 0 0.02 0.335 0 0.04 0.335 0 0.06 0.335 0 0.08 0.335 0 0.1 0.335 0 0 0.34 0 0.02 0.34 0 0.04 0.34 0 0.06 0.34 0 0.08 0.34 0 0.1 0.34 0 0 0.345 0 0.02 0.345 0 0.04 0.345 0 0.06 0.345 0 0.08 0.345 0 0.1 0.345 0 0 0.35 0 0.02 0.35 0 0.04 0.35 0 0.06 0.35 0 0.08 0.35 0 0.1 0.35 0 0 0.355 0 0.02 0.355 0 0.04 0.355 0 0.06 0.355 0 0.08 0.355 0 0.1 0.355 0 0 0.36 0 0.02 0.36 0 0.04 0.36 0 0.06 0.36 0 0.08 0.36 0 0.1 0.36 0 0 0.365 0 0.02 0.365 0 0.04 0.365 0 0.06 0.365 0 0.08 0.365 0 0.1 0.365 0 0 0.37 0 0.02 0.37 0 0.04 0.37 0 0.06 0.37 0 0.08 0.37 0 0.1 0.37 0 0 0.375 0 0.02 0.375 0 0.04 0.375 0 0.06 0.375 0 0.08 0.375 0 0.1 0.375 0 0 0.38 0 0.02 0.38 0 0.04 0.38 0 0.06 0.38 0 0.08 0.38 0 0.1 0.38 0 0 0.385 0 0.02 0.385 0 0.04 0.385 0 0.06 0.385 0 0.08 0.385 0 0.1 0.385 0 0 0.39 0 0.02 0.39 0 0.04 0.39 0 0.06 0.39 0 0.08 0.39 0 0.1 0.39 0 0 0.395 0 0.02 0.395 0 0.04 0.395 0 0.06 0.395 0 0.08 0.395 0 0.1 0.395 0 0 0.4 0 0.02 0.4 0 0.04 0.4 0 0.06 0.4 0 0.08 0.4 0 0.1 0.4 0 0 0.405 0 0.02 0.405 0 0.04 0.405 0 0.06 0.405 0 0.08 0.405 0 0.1 0.405 0 0 0.41 0 0.02 0.41 0 0.04 0.41 0 0.06 0.41 0 0.08 0.41 0 0.1 0.41 0 0 0.415 0 0.02 0.415 0 0.04 0.415 0 0.06 0.415 0 0.08 0.415 0 0.1 0.415 0 0 0.42 0 0.02 0.42 0 0.04 0.42 0 0.06 0.42 0 0.08 0.42 0 0.1 0.42 0 0 0.425 0 0.02 0.425 0 0.04 0.425 0 0.06 0.425 0 0.08 0.425 0 0.1 0.425 0 0 0.43 0 0.02 0.43 0 0.04 0.43 0 0.06 0.43 0 0.08 0.43 0 0.1 0.43 0 0 0.435 0 0.02 0.435 0 0.04 0.435 0 0.06 0.435 0 0.08 0.435 0 0.1 0.435 0 0 0.44 0 0.02 0.44 0 0.04 0.44 0 0.06 0.44 0 0.08 0.44 0 0.1 0.44 0 0 0.445 0 0.02 0.445 0 0.04 0.445 0 0.06 0.445 0 0.08 0.445 0 0.1 0.445 0 0 0.45 0 0.02 0.45 0 0.04 0.45 0 0.06 0.45 0 0.08 0.45 0 0.1 0.45 0 0 0.455 0 0.02 0.455 0 0.04 0.455 0 0.06 0.455 0 0.08 0.455 0 0.1 0.455 0 0 0.46 0 0.02 0.46 0 0.04 0.46 0 0.06 0.46 0 0.08 0.46 0 0.1 0.46 0 0 0.465 0 0.02 0.465 0 0.04 0.465 0 0.06 0.465 0 0.08 0.465 0 0.1 0.465 0 0 0.47 0 0.02 0.47 0 0.04 0.47 0 0.06 0.47 0 0.08 0.47 0 0.1 0.47 0 0 0.475 0 0.02 0.475 0 0.04 0.475 0 0.06 0.475 0 0.08 0.475 0 0.1 0.475 0 0 0.48 0 0.02 0.48 0 0.04 0.48 0 0.06 0.48 0 0.08 0.48 0 0.1 0.48 0 0 0.485 0 0.02 0.485 0 0.04 0.485 0 0.06 0.485 0 0.08 0.485 0 0.1 0.485 0 0 0.49 0 0.02 0.49 0 0.04 0.49 0 0.06 0.49 0 0.08 0.49 0 0.1 0.49 0 0 0.495 0 0.02 0.495 0 0.04 0.495 0 0.06 0.495 0 0.08 0.495 0 0.1 0.495 0 0 0.5 0 0.02 0.5 0 0.04 0.5 0 0.06 0.5 0 0.08 0.5 0 0.1 0.5 0 0 0.505 0 0.02 0.505 0 0.04 0.505 0 0.06 0.505 0 0.08 0.505 0 0.1 0.505 0 0 0.51 0 0.02 0.51 0 0.04 0.51 0 0.06 0.51 0 0.08 0.51 0 0.1 0.51 0 0 0.515 0 0.02 0.515 0 0.04 0.515 0 0.06 0.515 0 0.08 0.515 0 0.1 0.515 0 0 0.52 0 0.02 0.52 0 0.04 0.52 0 0.06 0.52 0 0.08 0.52 0 0.1 0.52 0 0 0.525 0 0.02 0.525 0 0.04 0.525 0 0.06 0.525 0 0.08 0.525 0 0.1 0.525 0 0 0.53 0 0.02 0.53 0 0.04 0.53 0 0.06 0.53 0 0.08 0.53 0 0.1 0.53 0 0 0.535 0 0.02 0.535 0 0.04 0.535 0 0.06 0.535 0 0.08 0.535 0 0.1 0.535 0 0 0.54 0 0.02 0.54 0 0.04 0.54 0 0.06 0.54 0 0.08 0.54 0 0.1 0.54 0 0 0.545 0 0.02 0.545 0 0.04 0.545 0 0.06 0.545 0 0.08 0.545 0 0.1 0.545 0 0 0.55 0 0.02 0.55 0 0.04 0.55 0 0.06 0.55 0 0.08 0.55 0 0.1 0.55 0 0 0.555 0 0.02 0.555 0 0.04 0.555 0 0.06 0.555 0 0.08 0.555 0 0.1 0.555 0 0 0.56 0 0.02 0.56 0 0.04 0.56 0 0.06 0.56 0 0.08 0.56 0 0.1 0.56 0 0 0.565 0 0.02 0.565 0 0.04 0.565 0 0.06 0.565 0 0.08 0.565 0 0.1 0.565 0 0 0.57 0 0.02 0.57 0 0.04 0.57 0 0.06 0.57 0 0.08 0.57 0 0.1 0.57 0 0 0.575 0 0.02 0.575 0 0.04 0.575 0 0.06 0.575 0 0.08 0.575 0 0.1 0.575 0 0 0.58 0 0.02 0.58 0 0.04 0.58 0 0.06 0.58 0 0.08 0.58 0 0.1 0.58 0 0 0.585 0 0.02 0.585 0 0.04 0.585 0 0.06 0.585 0 0.08 0.585 0 0.1 0.585 0 0 0.59 0 0.02 0.59 0 0.04 0.59 0 0.06 0.59 0 0.08 0.59 0 0.1 0.59 0 0 0.595 0 0.02 0.595 0 0.04 0.595 0 0.06 0.595 0 0.08 0.595 0 0.1 0.595 0 0 0.6 0 0.02 0.6 0 0.04 0.6 0 0.06 0.6 0 0.08 0.6 0 0.1 0.6 0 0 0.605 0 0.02 0.605 0 0.04 0.605 0 0.06 0.605 0 0.08 0.605 0 0.1 0.605 0 0 0.61 0 0.02 0.61 0 0.04 0.61 0 0.06 0.61 0 0.08 0.61 0 0.1 0.61 0 0 0.615 0 0.02 0.615 0 0.04 0.615 0 0.06 0.615 0 0.08 0.615 0 0.1 0.615 0 0 0.62 0 0.02 0.62 0 0.04 0.62 0 0.06 0.62 0 0.08 0.62 0 0.1 0.62 0 0 0.625 0 0.02 0.625 0 0.04 0.625 0 0.06 0.625 0 0.08 0.625 0 0.1 0.625 0 0 0.63 0 0.02 0.63 0 0.04 0.63 0 0.06 0.63 0 0.08 0.63 0 0.1 0.63 0 0 0.635 0 0.02 0.635 0 0.04 0.635 0 0.06 0.635 0 0.08 0.635 0 0.1 0.635 0 0 0.64 0 0.02 0.64 0 0.04 0.64 0 0.06 0.64 0 0.08 0.64 0 0.1 0.64 0 0 0.645 0 0.02 0.645 0 0.04 0.645 0 0.06 0.645 0 0.08 0.645 0 0.1 0.645 0 0 0.65 0 0.02 0.65 0 0.04 0.65 0 0.06 0.65 0 0.08 0.65 0 0.1 0.65 0 0 0.655 0 0.02 0.655 0 0.04 0.655 0 0.06 0.655 0 0.08 0.655 0 0.1 0.655 0 0 0.66 0 0.02 0.66 0 0.04 0.66 0 0.06 0.66 0 0.08 0.66 0 0.1 0.66 0 0 0.665 0 0.02 0.665 0 0.04 0.665 0 0.06 0.665 0 0.08 0.665 0 0.1 0.665 0 0 0.67 0 0.02 0.67 0 0.04 0.67 0 0.06 0.67 0 0.08 0.67 0 0.1 0.67 0 0 0.675 0 0.02 0.675 0 0.04 0.675 0 0.06 0.675 0 0.08 0.675 0 0.1 0.675 0 0 0.68 0 0.02 0.68 0 0.04 0.68 0 0.06 0.68 0 0.08 0.68 0 0.1 0.68 0 0 0.685 0 0.02 0.685 0 0.04 0.685 0 0.06 0.685 0 0.08 0.685 0 0.1 0.685 0 0 0.69 0 0.02 0.69 0 0.04 0.69 0 0.06 0.69 0 0.08 0.69 0 0.1 
[...]
			<CellData Scalars="Density">
				<DataArray Name="Density" type="Float32" format="ascii">
 1 1 1 1 1 1 1 1 1 1 1 1 1 1 1 1 1 1 1 1 1 1 1 1 1 1 1 1 1 1 1 1 1 1 1 1 1 1 1 1 1 1 1 1 1 1 1 1 1 1 1 1 1 1 1 1 1 1 1 1 1 1 1 1 1 1 1 1 1 1 1 1 1 1 1 1 1 1 1 1 1 1 1 1 1 1 1 1 1 1 1 1 1 1 1 1 1 1 1 1 1 1 1 1 1 1 1 1 1 1 1 1 1 1 1 1 1 1 1 1 1 1 1 1 1 1 1 1 1 1 1 1 1 1 1 1 1 1 1 1 1 1 1 1 1 1 1 1 1 1 1 1 1 1 1 1 1 1 1 1 1 1 1 1 1 1 1 1 1 1 1 1 1 1 1 1 1 1 1 1 1 1 1 1 1 1 1 1 1 1 0.999999 0.999999 0.999999 0.999999 0.999999 0.999998 0.999998 0.999998 0.999998 0.999998 0.999994 0.999994 0.999994 0.999994 0.999994 0.999984 0.999984 0.999984 0.999984 0.999984 0.999957 0.999957 0.999957 0.999957 0.999957 0.999891 0.999891 0.999891 0.999891 0.999891 0.999737 0.999737 0.999737 0.999737 0.999737 0.999414 0.999414 0.999414 0.999414 0.999414 0.998801 0.998801 0.998801 0.998801 0.998801 0.997739 0.997739 0.997739 0.997739 0.997739 0.996043 0.996043 0.996043 0.996043 0.996043 0.993524 0.993524 0.993524 0.993524 0.993524 0.990018 0.990018 0.990018 0.990018 0.990018 0.985401 0.985401 0.985401 0.985401 0.985401 0.979608 0.979608 0.979608 0.979608 0.979608 0.972633 0.972633 0.972633 0.972633 0.972633 0.964517 0.964517 0.964517 0.964517 0.964517 0.955342 0.955342 0.955342 0.955342 0.955342 0.945214 0.945214 0.945214 0.945214 0.945214 0.93425 0.93425 0.93425 0.93425 0.93425 0.922569 0.922569 0.922569 0.922569 0.922569 0.910288 0.910288 0.910288 0.910288 0.910288 0.897512 0.897512 0.897512 0.897512 0.897512 0.884338 0.884338 0.884338 0.884338 0.884338 0.870849 0.870849 0.870849 0.870849 0.870849 0.857125 0.857125 0.857125 0.857125 0.857125 0.843237 0.843237 0.843237 0.843237 0.843237 0.829243 0.829243 0.829243 0.829243 0.829243 0.815203 0.815203 0.815203 0.815203 0.815203 0.801148 0.801148 0.801148 0.801148 0.801148 0.787125 0.787125 0.787125 0.787125 0.787125 0.773151 0.773151 0.773151 0.773151 0.773151 0.759268 0.759268 0.759268 0.759268 0.759268 0.74548 0.74548 0.74548 0.74548 0.74548 0.731818 0.731818 0.731818 0.731818 0.731818 0.718293 0.718293 0.718293 0.718293 0.718293 0.704911 0.704911 0.704911 0.704911 0.704911 0.6917 0.6917 0.6917 0.6917 0.6917 0.678642 0.678642 0.678642 0.678642 0.678642 0.665785 0.665785 0.665785 0.665785 0.665785 0.653085 0.653085 0.653085 0.653085 0.653085 0.640607 0.640607 0.640607 0.640607 0.640607 0.628302 0.628302 0.628302 0.628302 0.628302 0.61622 0.61622 0.61622 0.61622 0.61622 0.604339 0.604339 0.604339 0.604339 0.604339 0.59268 0.59268 0.59268 0.59268 0.59268 0.581237 0.581237 0.581237 0.581237 0.581237 0.570046 0.570046 0.570046 0.570046 0.570046 0.559076 0.559076 0.559076 0.559076 0.559076 0.548363 0.548363 0.548363 0.548363 0.548363 0.537924 0.537924 0.537924 0.537924 0.537924 0.527758 0.527758 0.527758 0.527758 0.527758 0.517885 0.517885 0.517885 0.517885 0.517885 0.508331 0.508331 0.508331 0.508331 0.508331 0.499132 0.499132 0.499132 0.499132 0.499132 0.490303 0.490303 0.490303 0.490303 0.490303 0.48188 0.48188 0.48188 0.48188 0.48188 0.473902 0.473902 0.473902 0.473902 0.473902 0.466432 0.466432 0.466432 0.466432 0.466432 0.459517 0.459517 0.459517 0.459517 0.459517 0.453198 0.453198 0.453198 0.453198 0.453198 0.447494 0.447494 0.447494 0.447494 0.447494 0.442454 0.442454 0.442454 0.442454 0.442454 0.43814 0.43814 0.43814 0.43814 0.43814 0.434547 0.434547 0.434547 0.434547 0.434547 0.431594 0.431594 0.431594 0.431594 0.431594 0.42922 0.42922 0.42922 0.42922 0.42922 0.427409 0.427409 0.427409 0.427409 0.427409 0.426097 0.426097 0.426097 0.426097 0.426097 0.425166 0.425166 0.425166 0.425166 0.425166 0.424514 0.424514 0.424514 0.424514 0.424514 0.424069 0.424069 0.424069 0.424069 0.424069 0.423754 0.423754 0.423754 0.423754 0.423754 0.423517 0.423517 0.423517 0.423517 0.423517 0.423348 0.423348 0.423348 0.423348 0.423348 0.423234 0.423234 0.423234 0.423234 0.423234 0.423141 0.423141 0.423141 0.423141 0.423141 0.423045 0.423045 0.423045 0.423045 0.423045 0.422942 0.422942 0.422942 0.422942 0.422942 0.422817 0.422817 0.422817 0.422817 0.422817 0.422658 0.422658 0.422658 0.422658 0.422658 0.422463 0.422463 0.422463 0.422463 0.422463 0.422236 0.422236 0.422236 0.422236 0.422236 0.42198 0.42198 0.42198 0.42198 0.42198 0.421688 0.421688 0.421688 0.421688 0.421688 0.421332 0.421332 0.421332 0.421332 0.421332 0.420842 0.420842 0.420842 0.420842 0.420842 0.420084 0.420084 0.420084 0.420084 0.420084 0.418827 0.418827 0.418827 0.418827 0.418827 0.416714 0.416714 0.416714 0.416714 0.416714 0.413229 0.413229 0.413229 0.413229 0.413229 0.407697 0.407697 0.407697 0.407697 0.407697 0.399327 0.399327 0.399327 0.399327 0.399327 0.38732 0.38732 0.38732 0.38732 0.38732 0.371057 0.371057 0.371057 0.371057 0.371057 0.350333 0.350333 0.350333 0.350333 0.350333 0.325601 0.325601 0.325601 0.325601 0.325601 0.303142 0.303142 0.303142 0.303142 0.303142 0.288927 0.288927 0.288927 0.288927 0.288927 0.279404 0.279404 0.279404 0.279404 0.279404 0.273522 0.273522 0.273522 0.273522 0.273522 0.270128 0.270128 0.270128 0.270128 0.270128 0.268307 0.268307 0.268307 0.268307 0.268307 0.267407 0.267407 0.267407 0.267407 0.267407 0.267011 0.267011 0.267011 0.267011 0.267011 0.266866 0.266866 0.266866 0.266866 0.266866 0.266836 0.266836 0.266836 0.266836 0.266836 0.266849 0.266849 0.266849 0.266849 0.266849 0.266871 0.266871 0.266871 0.266871 0.266871 0.266892 0.266892 0.266892 0.266892 0.266892 0.266912 0.266912 0.266912 0.266912 0.266912 0.266923 0.266923 0.266923 0.266923 0.266923 0.266929 0.266929 0.266929 0.266929 0.266929 0.266934 0.266934 0.266934 0.266934 0.266934 0.266935 0.266935 0.266935 0.266935 0.266935 0.266936 0.266936 0.266936 0.266936 0.266936 0.266931 0.266931 0.266931 0.266931 0.266931 0.266927 0.266927 0.266927 0.266927 0.266927 0.266909 0.266909 0.266909 0.266909 0.266909 0.266891 0.266891 0.266891 0.266891 0.266891 0.266809 0.266809 0.266809 0.266809 0.266809 0.266677 0.266677 0.266677 0.266677 0.266677 0.266132 0.266132 0.266132 0.266132 0.266132 0.265018 0.265018 0.265018 0.265018 0.265018 0.261229 0.261229 0.261229 0.261229 0.261229 0.252943 0.252943 0.252943 0.252943 0.252943 0.230193 0.230193 0.230193 0.230193 0.230193 0.190619 0.190619 0.190619 0.190619 0.190619 0.14099 0.14099 0.14099 0.14099 0.14099 0.127662 0.127662 0.127662 0.127662 0.127662 0.125412 0.125412 0.125412 0.125412 0.125412 0.125063 0.125063 0.125063 0.125063 0.125063 0.12501 0.12501 0.12501 0.12501 0.12501 0.125001 0.125001 0.125001 0.125001 0.125001 0.125 0.125 0.125 0.125 0.125 0.125 0.125 0.125 0.125 0.125 0.125 0.125 0.125 0.125 0.125 0.125 0.125 0.125 0.125 0.125 0.125 0.125 0.125 0.125 0.125 0.125 0.125 0.125 0.125 0.125 0.125 0.125 0.125 0.125 0.125 0.125 0.125 0.125 0.125 0.125 0.125 0.125 0.125 0.125 0.125 0.125 0.125 0.125 0.125 0.125 0.125 0.125 0.125 0.125 0.125 0.125 0.125 0.125 0.125 0.125 0.125 0.125 0.125 0.125 0.125 0.125 0.125 0.125 0.125 0.125 0.125 0.125 0.125 0.125 0.125 0.125 0.125 0.125 0.125 0.125 0.125 0.125 0.125 0.125 0.125 0.125 0.125 0.125 0.125 0.125 0.125 0.125 0.125 0.125 0.125 0.125 0.125 0.125 0.125 0.125 0.125 0.125 0.125 0.125 0.125 0.125 0.125 0.125 0.125 0.125 0.125 0.125 0.125 0.125 0.125 0.125 0.125 0.125 0.125 0.125 0.125 0.125 0.125 0.125 0.125 0.125 0.125 0.125 0.125 0.125 0.125 0.125 0.125 0.125 0.125 0.125 0.125 0.125 0.125 0.125
				</DataArray>
				<DataArray Name="Energy" type="Float32" format="ascii">
 2.5 2.5 2.5 2.5 2.5 2.5 2.5 2.5 2.5 2.5 2.5 2.5 2.5 2.5 2.5 2.5 2.5 2.5 2.5 2.5 2.5 2.5 2.5 2.5 2.5 2.5 2.5 2.5 2.5 2.5 2.5 2.5 2.5 2.5 2.5 2.5 2.5 2.5 2.5 2.5 2.5 2.5 2.5 2.5 2.5 2.5 2.5 2.5 2.5 2.5 2.5 2.5 2.5 2.5 2.5 2.5 2.5 2.5 2.5 2.5 2.5 2.5 2.5 2.5 2.5 2.5 2.5 2.5 2.5 2.5 2.5 2.5 2.5 2.5 2.5 2.5 2.5 2.5 2.5 2.5 2.5 2.5 2.5 2.5 2.5 2.5 2.5 2.5 2.5 2.5 2.5 2.5 2.5 2.5 2.5 2.5 2.5 2.5 2.5 2.5 2.5 2.5 2.5 2.5 2.5 2.5 2.5 2.5 2.5 2.5 2.5 2.5 2.5 2.5 2.5 2.5 2.5 2.5 2.5 2.5 2.5 2.5 2.5 2.5 2.5 2.5 2.5 2.5 2.5 2.5 2.5 2.5 2.5 2.5 2.5 2.5 2.5 2.5 2.5 2.5 2.5 2.5 2.5 2.5 2.5 2.5 2.5 2.5 2.5 2.5 2.5 2.5 2.5 2.5 2.5 2.5 2.5 2.5 2.5 2.5 2.5 2.5 2.5 2.5 2.5 2.5 2.5 2.5 2.5 2.5 2.5 2.5 2.5 2.5 2.5 2.5 2.5 2.5 2.5 2.5 2.5 2.5 2.5 2.5 2.5 2.5 2.5 2.5 2.5 2.5 2.5 2.5 2.5 2.5 2.5 2.5 2.5 2.5 2.5 2.5 2.49999 2.49999 2.49999 2.49999 2.49999 2.49998 2.49998 2.49998 2.49998 2.49998 2.49996 2.49996 2.49996 2.49996 2.49996 2.49989 2.49989 2.49989 2.49989 2.49989 2.49974 2.49974 2.49974 2.49974 2.49974 2.49941 2.49941 2.49941 2.49941 2.49941 2.4988 2.4988 2.4988 2.4988 2.4988 2.49774 2.49774 2.49774 2.49774 2.49774 2.49604 2.49604 2.49604 2.49604 2.49604 2.49352 2.49352 2.49352 2.49352 2.49352 2.49 2.49 2.49 2.49 2.49 2.48536 2.48536 2.48536 2.48536 2.48536 2.47953 2.47953 2.47953 2.47953 2.47953 2.47248 2.47248 2.47248 2.47248 2.47248 2.46424 2.46424 2.46424 2.46424 2.46424 2.45489 2.45489 2.45489 2.45489 2.45489 2.44451 2.44451 2.44451 2.44451 2.44451 2.43321 2.43321 2.43321 2.43321 2.43321 2.42109 2.42109 2.42109 2.42109 2.42109 2.40825 2.40825 2.40825 2.40825 2.40825 2.39479 2.39479 2.39479 2.39479 2.39479 2.3808 2.3808 2.3808 2.3808 2.3808 2.36635 2.36635 2.36635 2.36635 2.36635 2.35152 2.35152 2.35152 2.35152 2.35152 2.33636 2.33636 2.33636 2.33636 2.33636 2.32094 2.32094 2.32094 2.32094 2.32094 2.30531 2.30531 2.30531 2.30531 2.30531 2.2895 2.2895 2.2895 2.2895 2.2895 2.27358 2.27358 2.27358 2.27358 2.27358 2.25755 2.25755 2.25755 2.25755 2.25755 2.24146 2.24146 2.24146 2.24146 2.24146 2.2253 2.2253 2.2253 2.2253 2.2253 2.20913 2.20913 2.20913 2.20913 2.20913 2.19293 2.19293 2.19293 2.19293 2.19293 2.17674 2.17674 2.17674 2.17674 2.17674 2.16057 2.16057 2.16057 2.16057 2.16057 2.14441 2.14441 2.14441 2.14441 2.14441 2.12833 2.12833 2.12833 2.12833 2.12833 2.11226 2.11226 2.11226 2.11226 2.11226 2.0963 2.0963 2.0963 2.0963 2.0963 2.08036 2.08036 2.08036 2.08036 2.08036 2.06458 2.06458 2.06458 2.06458 2.06458 2.04881 2.04881 2.04881 2.04881 2.04881 2.03324 2.03324 2.03324 2.03324 2.03324 2.01775 2.01775 2.01775 2.01775 2.01775 2.00238 2.00238 2.00238 2.00238 2.00238 1.98722 1.98722 1.98722 1.98722 1.98722 1.97224 1.97224 1.97224 1.97224 1.97224 1.95743 1.95743 1.95743 1.95743 1.95743 1.94286 1.94286 1.94286 1.94286 1.94286 1.9286 1.9286 1.9286 1.9286 1.9286 1.91463 1.91463 1.91463 1.91463 1.91463 1.90101 1.90101 1.90101 1.90101 1.90101 1.8878 1.8878 1.8878 1.8878 1.8878 1.87512 1.87512 1.87512 1.87512 1.87512 1.86302 1.86302 1.86302 1.86302 1.86302 1.85155 1.85155 1.85155 1.85155 1.85155 1.84079 1.84079 1.84079 1.84079 1.84079 1.83089 1.83089 1.83089 1.83089 1.83089 1.82204 1.82204 1.82204 1.82204 1.82204 1.81426 1.81426 1.81426 1.81426 1.81426 1.80744 1.80744 1.80744 1.80744 1.80744 1.8016 1.8016 1.8016 1.8016 1.8016 1.79697 1.79697 1.79697 1.79697 1.79697 1.79352 1.79352 1.79352 1.79352 1.79352 1.79095 1.79095 1.79095 1.79095 1.79095 1.78902 1.78902 1.78902 1.78902 1.78902 1.78772 1.78772 1.78772 1.78772 1.78772 1.78697 1.78697 1.78697 1.78697 1.78697 1.78658 1.78658 1.78658 1.78658 1.78658 1.7865 1.7865 1.7865 1.7865 1.7865 1.78674 1.78674 1.78674 1.78674 1.78674 1.7871 1.7871 1.7871 1.7871 1.7871 1.78742 1.78742 1.78742 1.78742 1.78742 1.78774 1.78774 1.78774 1.78774 1.78774 1.78813 1.78813 1.78813 1.78813 1.78813 1.7886 1.7886 1.7886 1.7886 1.7886 1.78917 1.78917 1.78917 1.78917 1.78917 1.78987 1.78987 1.78987 1.78987 1.78987 1.79071 1.79071 1.79071 1.79071 1.79071 1.79169 1.79169 1.79169 1.79169 1.79169 1.79279 1.79279 1.79279 1.79279 1.79279 1.79404 1.79404 1.79404 1.79404 1.79404 1.79558 1.79558 1.79558 1.79558 1.79558 1.79769 1.79769 1.79769 1.79769 1.79769 1.80096 1.80096 1.80096 1.80096 1.80096 1.80639 1.80639 1.80639 1.80639 1.80639 1.81558 1.81558 1.81558 1.81558 1.81558 1.83091 1.83091 1.83091 1.83091 1.83091 1.85577 1.85577 1.85577 1.85577 1.85577 1.89469 1.89469 1.89469 1.89469 1.89469 1.95345 1.95345 1.95345 1.95345 1.95345 2.03904 2.03904 2.03904 2.03904 2.03904 2.15934 2.15934 2.15934 2.15934 2.15934 2.3222 2.3222 2.3222 2.3222 2.3222 2.49415 2.49415 2.49415 2.49415 2.49415 2.61846 2.61846 2.61846 2.61846 2.61846 2.70789 2.70789 2.70789 2.70789 2.70789 2.76616 2.76616 2.76616 2.76616 2.76616 2.80091 2.80091 2.80091 2.80091 2.80091 2.81993 2.81993 2.81993 2.81993 2.81993 2.8294 2.8294 2.8294 2.8294 2.8294 2.83359 2.83359 2.83359 2.83359 2.83359 2.83511 2.83511 2.83511 2.83511 2.83511 2.83543 2.83543 2.83543 2.83543 2.83543 2.83528 2.83528 2.83528 2.83528 2.83528 2.835 2.835 2.835 2.835 2.835 2.83472 2.83472 2.83472 2.83472 2.83472 2.83449 2.83449 2.83449 2.83449 2.83449 2.83431 2.83431 2.83431 2.83431 2.83431 2.83416 2.83416 2.83416 2.83416 2.83416 2.83405 2.83405 2.83405 2.83405 2.83405 2.83394 2.83394 2.83394 2.83394 2.83394 2.83385 2.83385 2.83385 2.83385 2.83385 2.83377 2.83377 2.83377 2.83377 2.83377 2.83371 2.83371 2.83371 2.83371 2.83371 2.83361 2.83361 2.83361 2.83361 2.83361 2.83353 2.83353 2.83353 2.83353 2.83353 2.83316 2.83316 2.83316 2.83316 2.83316 2.83257 2.83257 2.83257 2.83257 2.83257 2.83022 2.83022 2.83022 2.83022 2.83022 2.82544 2.82544 2.82544 2.82544 2.82544 2.809 2.809 2.809 2.809 2.809 2.77197 2.77197 2.77197 2.77197 2.77197 2.66113 2.66113 2.66113 2.66113 2.66113 2.43417 2.43417 2.43417 2.43417 2.43417 2.10986 2.10986 2.10986 2.10986 2.10986 2.01736 2.01736 2.01736 2.01736 2.01736 2.00265 2.00265 2.00265 2.00265 2.00265 2.0004 2.0004 2.0004 2.0004 2.0004 2.00006 2.00006 2.00006 2.00006 2.00006 2.00001 2.00001 2.00001 2.00001 2.00001 2 2 2 2 2 2 2 2 2 2 2 2 2 2 2 2 2 2 2 2 2 2 2 2 2 2 2 2 2 2 2 2 2 2 2 2 2 2 2 2 2 2 2 2 2 2 2 2 2 2 2 2 2 2 2 2 2 2 2 2 2 2 2 2 2 2 2 2 2 2 2 2 2 2 2 2 2 2 2 2 2 2 2 2 2 2 2 2 2 2 2 2 2 2 2 2 2 2 2 2 2 2 2 2 2 2 2 2 2 2 2 2 2 2 2 2 2 2 2 2 2 2 2 2 2 2 2 2 2 2 2 2 2 2 2 2 2 2 2 2
				</DataArray>
				<DataArray Name="F1" type="Float32" format="ascii">
 1 1 1 1 1 1 1 1 1 1 1 1 1 1 1 1 1 1 1 1 1 1 1 1 1 1 1 1 1 1 1 1 1 1 1 1 1 1 1 1 1 1 1 1 1 1 1 1 1 1 1 1 1 1 1 1 1 1 1 1 1 1 1 1 1 1 1 1 1 1 1 1 1 1 1 1 1 1 1 1 1 1 1 1 1 1 1 1 1 1 1 1 1 1 1 1 1 1 1 1 1 1 1 1 1 1 1 1 1 1 1 1 1 1 1 1 1 1 1 1 1 1 1 1 1 1 1 1 1 1 1 1 1 1 1 1 1 1 1 1 1 1 1 1 1 1 1 1 1 1 1 1 1 1 1 1 1 1 1 1 1 1 1 1 1 1 1 1 1 1 1 1 1 1 1 1 1 1 1 1 1 1 1 1 1 1 1 1 1 1 1 1 1 1 1 1 1 1 1 1 1 1 1 1 1 1 1 1 1 1 1 1 1 1 1 1 1 1 1 1 1 1 1 1 1 1 1 1 1 1 1 1 1 1 1 1 1 1 1 1 1 1 1 1 1 1 1 1 1 1 1 1 1 1 1 1 1 1 1 1 1 1 1 1 1 1 1 1 1 1 1 1 1 1 1 1 1 1 1 1 1 1 1 1 1 1 1 1 1 1 1 1 1 1 1 1 1 1 1 1 1 1 1 1 1 1 1 1 1 1 1 1 1 1 1 1 1 1 1 1 1 1 1 1 1 1 1 1 1 1 1 1 1 1 1 1 1 1 1 1 1 1 1 1 1 1 1 1 1 1 1 1 1 1 1 1 1 1 1 1 1 1 1 1 1 1 1 1 1 1 1 1 1 1 1 1 1 1 1 1 1 1 1 1 1 1 1 1 1 1 1 1 1 1 1 1 1 1 1 1 1 1 1 1 1 1 1 1 1 1 1 1 1 1 1 1 1 1 1 1 1 1 1 1 1 1 1 1 1 1 1 1 1 1 1 1 1 1 1 1 1 1 1 1 1 1 1 1 1 1 1 1 1 1 1 1 1 1 1 1 1 1 1 1 1 1 1 1 1 1 1 1 1 1 1 1 1 1 1 1 1 1 1 1 1 1 1 1 1 1 1 1 1 1 1 1 1 1 1 1 1 1 1 1 1 1 1 1 1 1 1 1 1 1 1 1 1 1 1 1 1 1 1 1 1 1 1 1 1 1 1 1 1 1 1 1 1 1 1 1 1 1 1 1 1 1 1 1 1 1 1 1 1 1 1 1 1 1 1 1 1 1 1 1 1 1 1 1 1 1 1 1 1 1 1 1 1 1 1 1 0.999999 0.999999 0.999999 0.999999 0.999999 0.999998 0.999998 0.999998 0.999998 0.999998 0.999992 0.999992 0.999992 0.999992 0.999992 0.999977 0.999977 0.999977 0.999977 0.999977 0.999934 0.999934 0.999934 0.999934 0.999934 0.999824 0.999824 0.999824 0.999824 0.999824 0.999553 0.999553 0.999553 0.999553 0.999553 0.998926 0.998926 0.998926 0.998926 0.998926 0.997552 0.997552 0.997552 0.997552 0.997552 0.994706 0.994706 0.994706 0.994706 0.994706 0.989128 0.989128 0.989128 0.989128 0.989128 0.978788 0.978788 0.978788 0.978788 0.978788 0.960659 0.960659 0.960659 0.960659 0.960659 0.930626 0.930626 0.930626 0.930626 0.930626 0.883652 0.883652 0.883652 0.883652 0.883652 0.814393 0.814393 0.814393 0.814393 0.814393 0.718336 0.718336 0.718336 0.718336 0.718336 0.593404 0.593404 0.593404 0.593404 0.593404 0.44194 0.44194 0.44194 0.44194 0.44194 0.29572 0.29572 0.29572 0.29572 0.29572 0.187785 0.187785 0.187785 0.187785 0.187785 0.113715 0.113715 0.113715 0.113715 0.113715 0.0658266 0.0658266 0.0658266 0.0658266 0.0658266 0.0364994 0.0364994 0.0364994 0.0364994 0.0364994 0.0194198 0.0194198 0.0194198 0.0194198 0.0194198 0.00993009 0.00993009 0.00993009 0.00993009 0.00993009 0.00488663 0.00488663 0.00488663 0.00488663 0.00488663 0.00231703 0.00231703 0.00231703 0.00231703 0.00231703 0.00105967 0.00105967 0.00105967 0.00105967 0.00105967 0.000467857 0.000467857 0.000467857 0.000467857 0.000467857 0.000199565 0.000199565 0.000199565 0.000199565 0.000199565 8.22913e-05 8.22913e-05 8.22913e-05 8.22913e-05 8.22913e-05 3.28193e-05 3.28193e-05 3.28193e-05 3.28193e-05 3.28193e-05 1.26634e-05 1.26634e-05 1.26634e-05 1.26634e-05 1.26634e-05 4.72816e-06 4.72816e-06 4.72816e-06 4.72816e-06 4.72816e-06 1.70825e-06 1.70825e-06 1.70825e-06 1.70825e-06 1.70825e-06 5.97063e-07 5.97063e-07 5.97063e-07 5.97063e-07 5.97063e-07 2.01778e-07 2.01778e-07 2.01778e-07 2.01778e-07 2.01778e-07 6.58749e-08 6.58749e-08 6.58749e-08 6.58749e-08 6.58749e-08 2.07468e-08 2.07468e-08 2.07468e-08 2.07468e-08 2.07468e-08 6.28962e-09 6.28962e-09 6.28962e-09 6.28962e-09 6.28962e-09 1.82953e-09 1.82953e-09 1.82953e-09 1.82953e-09 1.82953e-09 5.08048e-10 5.08048e-10 5.08048e-10 5.08048e-10 5.08048e-10 1.33652e-10 1.33652e-10 1.33652e-10 1.33652e-10 1.33652e-10 3.28847e-11 3.28847e-11 3.28847e-11 3.28847e-11 3.28847e-11 7.41502e-12 7.41502e-12 7.41502e-12 7.41502e-12 7.41502e-12 1.47541e-12 1.47541e-12 1.47541e-12 1.47541e-12 1.47541e-12 2.43622e-13 2.43622e-13 2.43622e-13 2.43622e-13 2.43622e-13 2.89794e-14 2.89794e-14 2.89794e-14 2.89794e-14 2.89794e-14 1.96136e-15 1.96136e-15 1.96136e-15 1.96136e-15 1.96136e-15 0 0 0 0 0 0 0 0 0 0 0 0 0 0 0 0 0 0 0 0 0 0 0 0 0 0 0 0 0 0 0 0 0 0 0 0 0 0 0 0 0 0 0 0 0 0 0 0 0 0 0 0 0 0 0 0 0 0 0 0 0 0 0 0 0 0 0 0 0 0 0 0 0 0 0 0 0 0 0 0 0 0 0 0 0 0 0 0 0 0 0 0 0 0 0 0 0 0 0 0 0 0 0 0 0 0 0 0 0 0 0 0 0 0 0 0 0 0 0 0 0 0 0 0 0 0 0 0 0 0 0 0 0 0 0 0 0 0 0 0 0 0 0 0 0 0 0 0 0 0 0 0 0 0 0 0 0 0 0 0 0 0 0 0 0 0 0 0 0 0
				</DataArray>
				<DataArray Name="F2" type="Float32" format="ascii">