<?xml version="1.0"?>
<VTKFile type="PolyData">
	<PolyData>
		<Piece NumberOfPoints="1206" NumberOfPolys="1000">
			<Points>
				<DataArray type="Float32" NumberOfComponents="3" format="ascii">
 0 0 0 0.02 0 0 0.04 0 0 0.06 0 0 0.08 0 0 0.1 0 0 0 0.005 0 0.02 0.005 0 0.04 0.005 0 0.06 0.005 0 0.08 0.005 0 0.1 0.005 0 0 0.01 0 0.02 0.01 0 0.04 0.01 0 0.06 0.01 0 0.08 0.01 0 0.1 0.01 0 0 0.015 0 0.02 0.015 0 0.04 0.015 0 0.06 0.015 0 0.08 0.015 0 0.1 0.015 0 0 0.02 0 0.02 0.02 0 0.04 0.02 0 0.06 0.02 0 0.08 0.02 0 0.1 0.02 0 0 0.025 0 0.02 0.025 0 0.04 0.025 0 0.06 0.025 0 0.08 0.025 0 0.1 0.025 0 0 0.03 0 0.02 0.03 0 0.04 0.03 0 0.06 0.03 0 0.08 0.03 0 0.1 0.03 0 0 0.035 0 0.02 0.035 0 0.04 0.035 0 0.06 0.035 0 0.08 0.035 0 0.1 0.035 0 0 0.04 0 0.02 0.04 0 0.04 0.04 0 0.06 0.04 0 0.08 0.04 0 0.1 0.04 0 0 0.045 0 0.02 0.045 0 0.04 0.045 0 0.06 0.045 0 0.08 0.045 0 0.1 0.045 0 0 0.05 0 0.02 0.05 0 0.04 0.05 0 0.06 0.05 0 0.08 0.05 0 0.1 0.05 0 0 0.055 0 0.02 0.055 0 0.04 0.055 0 0.06 0.055 0 0.08 0.055 0 0.1 0.055 0 0 0.06 0 0.02 0.06 0 0.04 0.06 0 0.06 0.06 0 0.08 0.06 0 0.1 0.06 0 0 0.065 0 0.02 0.065 0 0.04 0.065 0 0.06 0.065 0 0.08 0.065 0 0.1 0.065 0 0 0.07 0 0.02 0.07 0 0.04 0.07 0 0.06 0.07 0 0.08 0.07 0 0.1 0.07 0 0 0.075 0 0.02 0.075 0 0.04 0.075 0 0.06 0.075 0 0.08 0.075 0 0.1 0.075 0 0 0.08 0 0.02 0.08 0 0.04 0.08 0 0.06 0.08 0 0.08 0.08 0 0.1 0.08 0 0 0.085 0 0.02 0.085 0 0.04 0.085 0 0.06 0.085 0 0.08 0.085 0 0.1 0.085 0 0 0.09 0 0.02 0.09 0 0.04 0.09 0 0.06 0.09 0 0.08 0.09 0 0.1 0.09 0 0 0.095 0 0.02 0.095 0 0.04 0.095 0 0.06 0.095 0 0.08 0.095 0 0.1 0.095 0 0 0.1 0 0.02 0.1 0 0.04 0.1 0 0.06 0.1 0 0.08 0.1 0 0.1 0.1 0 0 0.105 0 0.02 0.105 0 0.04 0.105 0 0.06 0.105 0 0.08 0.105 0 0.1 0.105 0 0 0.11 0 0.02 0.11 0 0.04 0.11 0 0.06 0.11 0 0.08 0.11 0 0.1 0.11 0 0 0.115 0 0.02 0.115 0 0.04 0.115 0 0.06 0.115 0 0.08 0.115 0 0.1 0.115 0 0 0.12 0 0.02 0.12 0 0.04 0.12 0 0.06 0.12 0 0.08 0.12 0 0.1 0.12 0 0 0.125 0 0.02 0.125 0 0.04 0.125 0 0.06 0.125 0 0.08 0.125 0 0.1 0.125 0 0 0.13 0 0.02 0.13 0 0.04 0.13 0 0.06 0.13 0 0.08 0.13 0 0.1 0.13 0 0 0.135 0 0.02 0.135 0 0.04 0.135 0 0.06 0.135 0 0.08 0.135 0 0.1 0.135 0 0 0.14 0 0.02 0.14 0 0.04 0.14 0 0.06 0.14 0 0.08 0.14 0 0.1 0.14 0 0 0.145 0 0.02 0.145 0 0.04 0.145 0 0.06 0.145 0 0.08 0.145 0 0.1 0.145 0 0 0.15 0 0.02 0.15 0 0.04 0.15 0 0.06 0.15 0 0.08 0.15 0 0.1 0.15 0 0 0.155 0 0.02 0.155 0 0.04 0.155 0 0.06 0.155 0 0.08 0.155 0 0.1 0.155 0 0 0.16 0 0.02 0.16 0 0.04 0.16 0 0.06 0.16 0 0.08 0.16 0 0.1 0.16 0 0 0.165 0 0.02 0.165 0 0.04 0.165 0 0.06 0.165 0 0.08 0.165 0 0.1 0.165 0 0 0.17 0 0.02 0.17 0 0.04 0.17 0 0.06 0.17 0 0.08 0.17 0 0.1 0.17 0 0 0.175 0 0.02 0.175 0 0.04 0.175 0 0.06 0.175 0 0.08 0.175 0 0.1 0.175 0 0 0.18 0 0.02 0.18 0 0.04 0.18 0 0.06 0.18 0 0.08 0.18 0 0.1 0.18 0 0 0.185 0 0.02 0.185 0 0.04 0.185 0 0.06 0.185 0 0.08 0.185 0 0.1 0.185 0 0 0.19 0 0.02 0.19 0 0.04 0.19 0 0.06 0.19 0 0.08 0.19 0 0.1 0.19 0 0 0.195 0 0.02 0.195 0 0.04 0.195 0 0.06 0.195 0 0.08 0.195 0 0.1 0.195 0 0 0.2 0 0.02 0.2 0 0.04 0.2 0 0.06 0.2 0 0.08 0.2 0 0.1 0.2 0 0 0.205 0 0.02 0.205 0 0.04 0.205 0 0.06 0.205 0 0.08 0.205 0 0.1 0.205 0 0 0.21 0 0.02 0.21 0 0.04 0.21 0 0.06 0.21 0 0.08 0.21 0 0.1 0.21 0 0 0.215 0 0.02 0.215 0 0.04 0.215 0 0.06 0.215 0 0.08 0.215 0 0.1 0.215 0 0 0.22 0 0.02 0.22 0 0.04 0.22 0 0.06 0.22 0 0.08 0.22 0 0.1 0.22 0 0 0.225 0 0.02 0.225 0 0.04 0.225 0 0.06 0.225 0 0.08 0.225 0 0.1 0.225 0 0 0.23 0 0.02 0.23 0 0.04 0.23 0 0.06 0.23 0 0.08 0.23 0 0.1 0.23 0 0 0.235 0 0.02 0.235 0 0.04 0.235 0 0.06 0.235 0 0.08 0.235 0 0.1 0.235 0 0 0.24 0 0.02 0.24 0 0.04 0.24 0 0.06 0.24 0 0.08 0.24 0 0.1 0.24 0 0 0.245 0 0.02 0.245 0 0.04 0.245 0 0.06 0.245 0 0.08 0.245 0 0.1 0.245 0 0 0.25 0 0.02 0.25 0 0.04 0.25 0 0.06 0.25 0 0.08 0.25 0 0.1 0.25 0 0 0.255 0 0.02 0.255 0 0.04 0.255 0 0.06 0.255 0 0.08 0.255 0 0.1 0.255 0 0 0.26 0 0.02 0.26 0 0.04 0.26 0 0.06 0.26 0 0.08 0.26 0 0.1 0.26 0 0 0.265 0 0.02 0.265 0 0.04 0.265 0 0.06 0.265 0 0.08 0.265 0 0.1 0.265 0 0 0.27 0 0.02 0.27 0 0.04 0.27 0 0.06 0.27 0 0.08 0.27 0 0.1 0.27 0 0 0.275 0 0.02 0.275 0 0.04 0.275 0 0.06 0.275 0 0.08 0.275 0 0.1 0.275 0 0 0.28 0 0.02 0.28 0 0.04 0.28 0 0.06 0.28 0 0.08 0.28 0 0.1 0.28 0 0 0.285 0 0.02 0.285 0 0.04 0.285 0 0.06 0.285 0 0.08 0.285 0 0.1 0.285 0 0 0.29 0 0.02 0.29 0 0.04 0.29 0 0.06 0.29 0 0.08 0.29 0 0.1 0.29 0 0 0.295 0 0.02 0.295 0 0.04 0.295 0 0.06 0.295 0 0.08 0.295 0 0.1 0.295 0 0 0.3 0 0.02 0.3 0 0.04 0.3 0 0.06 0.3 0 0.08 0.3 0 0.1 0.3 0 0 0.305 0 0.02 0.305 0 0.04 0.305 0 0.06 0.305 0 0.08 0.305 0 0.1 0.305 0 0 0.31 0 0.02 0.31 0 0.04 0.31 0 0.06 0.31 0 0.08 0.31 0 0.1 0.31 0 0 0.315 0 0.02 0.315 0 0.04 0.315 0 0.06 0.315 0 0.08 0.315 0 0.1 0.315 0 0 0.32 0 0.02 0.32 0 0.04 0.32 0 0.06 0.32 0 0.08 0.32 0 0.1 0.32 0 0 0.325 0 0.02 0.325 0 0.04 0.325 0 0.06 0.325 0 0.08 0.325 0 0.1 0.325 0 0 0.33 0 0.02 0.33 0 0.04 0.33 0 0.06 0.33 0 0.08 0.33 0 0.1 0.33 0 0 0.335 0 0.02 0.335 0 0.04 0.335 0 0.06 0.335 0 0.08 0.335 0 0.1 0.335 0 0 0.34 0 0.02 0.34 0 0.04 0.34 0 0.06 0.34 0 0.08 0.34 0 0.1 0.34 0 0 0.345 0 0.02 0.345 0 0.04 0.345 0 0.06 0.345 0 0.08 0.345 0 0.1 0.345 0 0 0.35 0 0.02 0.35 0 0.04 0.35 0 0.06 0.35 0 0.08 0.35 0 0.1 0.35 0 0 0.355 0 0.02 0.355 0 0.04 0.355 0 0.06 0.355 0 0.08 0.355 0 0.1 0.355 0 0 0.36 0 0.02 0.36 0 0.04 0.36 0 0.06 0.36 0 0.08 0.36 0 0.1 0.36 0 0 0.365 0 0.02 0.365 0 0.04 0.365 0 0.06 0.365 0 0.08 0.365 0 0.1 0.365 0 0 0.37 0 0.02 0.37 0 0.04 0.37 0 0.06 0.37 0 0.08 0.37 0 0.1 0.37 0 0 0.375 0 0.02 0.375 0 0.04 0.375 0 0.06 0.375 0 0.08 0.375 0 0.1 0.375 0 0 0.38 0 0.02 0.38 0 0.04 0.38 0 0.06 0.38 0 0.08 0.38 0 0.1 0.38 0 0 0.385 0 0.02 0.385 0 0.04 0.385 0 0.06 0.385 0 0.08 0.385 0 0.1 0.385 0 0 0.39 0 0.02 0.39 0 0.04 0.39 0 0.06 0.39 0 0.08 0.39 0 0.1 0.39 0 0 0.395 0 0.02 0.395 0 0.04 0.395 0 0.06 0.395 0 0.08 0.395 0 0.1 0.395 0 0 0.4 0 0.02 0.4 0 0.04 0.4 0 0.06 0.4 0 0.08 0.4 0 0.1 0.4 0 0 0.405 0 0.02 0.405 0 0.04 0.405 0 0.06 0.405 0 0.08 0.405 0 0.1 0.405 0 0 0.41 0 0.02 0.41 0 0.04 0.41 0 0.06 0.41 0 0.08 0.41 0 0.1 0.41 0 0 0.415 0 0.02 0.415 0 0.04 0.415 0 0.06 0.415 0 0.08 0.415 0 0.1 0.415 0 0 0.42 0 0.02 0.42 0 0.04 0.42 0 0.06 0.42 0 0.08 0.42 0 0.1 0.42 0 0 0.425 0 0.02 0.425 0 0.04 0.425 0 0.06 0.425 0 0.08 0.425 0 0.1 0.425 0 0 0.43 0 0.02 0.43 0 0.04 0.43 0 0.06 0.43 0 0.08 0.43 0 0.1 0.43 0 0 0.435 0 0.02 0.435 0 0.04 0.435 0 0.06 0.435 0 0.08 0.435 0 0.1 0.435 0 0 0.44 0 0.02 0.44 0 0.04 0.44 0 0.06 0.44 0 0.08 0.44 0 0.1 0.44 0 0 0.445 0 0.02 0.445 0 0.04 0.445 0 0.06 0.445 0 0.08 0.445 0 0.1 0.445 0 0 0.45 0 0.02 0.45 0 0.04 0.45 0 0.06 0.45 0 0.08 0.45 0 0.1 0.45 0 0 0.455 0 0.02 0.455 0 0.04 0.455 0 0.06 0.455 0 0.08 0.455 0 0.1 0.455 0 0 0.46 0 0.02 0.46 0 0.04 0.46 0 0.06 0.46 0 0.08 0.46 0 0.1 0.46 0 0 0.465 0 0.02 0.465 0 0.04 0.465 0 0.06 0.465 0 0.08 0.465 0 0.1 0.465 0 0 0.47 0 0.02 0.47 0 0.04 0.47 0 0.06 0.47 0 0.08 0.47 0 0.1 0.47 0 0 0.475 0 0.02 0.475 0 0.04 0.475 0 0.06 0.475 0 0.08 0.475 0 0.1 0.475 0 0 0.48 0 0.02 0.48 0 0.04 0.48 0 0.06 0.48 0 0.08 0.48 0 0.1 0.48 0 0 0.485 0 0.02 0.485 0 0.04 0.485 0 0.06 0.485 0 0.08 0.485 0 0.1 0.485 0 0 0.49 0 0.02 0.49 0 0.04 0.49 0 0.06 0.49 0 0.08 0.49 0 0.1 0.49 0 0 0.495 0 0.02 0.495 0 0.04 0.495 0 0.06 0.495 0 0.08 0.495 0 0.1 0.495 0 0 0.5 0 0.02 0.5 0 0.04 0.5 0 0.06 0.5 0 0.08 0.5 0 0.1 0.5 0 0 0.505 0 0.02 0.505 0 0.04 0.505 0 0.06 0.505 0 0.08 0.505 0 0.1 0.505 0 0 0.51 0 0.02 0.51 0 0.04 0.51 0 0.06 0.51 0 0.08 0.51 0 0.1 0.51 0 0 0.515 0 0.02 0.515 0 0.04 0.515 0 0.06 0.515 0 0.08 0.515 0 0.1 0.515 0 0 0.52 0 0.02 0.52 0 0.04 0.52 0 0.06 0.52 0 0.08 0.52 0 0.1 0.52 0 0 0.525 0 0.02 0.525 0 0.04 0.525 0 0.06 0.525 0 0.08 0.525 0 0.1 0.525 0 0 0.53 0 0.02 0.53 0 0.04 0.53 0 0.06 0.53 0 0.08 0.53 0 0.1 0.53 0 0 0.535 0 0.02 0.535 0 0.04 0.535 0 0.06 0.535 0 0.08 0.535 0 0.1 0.535 0 0 0.54 0 0.02 0.54 0 0.04 0.54 0 0.06 0.54 0 0.08 0.54 0 0.1 0.54 0 0 0.545 0 0.02 0.545 0 0.04 0.545 0 0.06 0.545 0 0.08 0.545 0 0.1 0.545 0 0 0.55 0 0.02 0.55 0 0.04 0.55 0 0.06 0.55 0 0.08 0.55 0 0.1 0.55 0 0 0.555 0 0.02 0.555 0 0.04 0.555 0 0.06 0.555 0 0.08 0.555 0 0.1 0.555 0 0 0.56 0 0.02 0.56 0 0.04 0.56 0 0.06 0.56 0 0.08 0.56 0 0.1 0.56 0 0 0.565 0 0.02 0.565 0 0.04 0.565 0 0.06 0.565 0 0.08 0.565 0 0.1 0.565 0 0 0.57 0 0.02 0.57 0 0.04 0.57 0 0.06 0.57 0 0.08 0.57 0 0.1 0.57 0 0 0.575 0 0.02 0.575 0 0.04 0.575 0 0.06 0.575 0 0.08 0.575 0 0.1 0.575 0 0 0.58 0 0.02 0.58 0 0.04 0.58 0 0.06 0.58 0 0.08 0.58 0 0.1 0.58 0 0 0.585 0 0.02 0.585 0 0.04 0.585 0 0.06 0.585 0 0.08 0.585 0 0.1 0.585 0 0 0.59 0 0.02 0.59 0 0.04 0.59 0 0.06 0.59 0 0.08 0.59 0 0.1 0.59 0 0 0.595 0 0.02 0.595 0 0.04 0.595 0 0.06 0.595 0 0.08 0.595 0 0.1 0.595 0 0 0.6 0 0.02 0.6 0 0.04 0.6 0 0.06 0.6 0 0.08 0.6 0 0.1 0.6 0 0 0.605 0 0.02 0.605 0 0.04 0.605 0 0.06 0.605 0 0.08 0.605 0 0.1 0.605 0 0 0.61 0 0.02 0.61 0 0.04 0.61 0 0.06 0.61 0 0.08 0.61 0 0.1 0.61 0 0 0.615 0 0.02 0.615 0 0.04 0.615 0 0.06 0.615 0 0.08 0.615 0 0.1 0.615 0 0 0.62 0 0.02 0.62 0 0.04 0.62 0 0.06 0.62 0 0.08 0.62 0 0.1 0.62 0 0 0.625 0 0.02 0.625 0 0.04 0.625 0 0.06 0.625 0 0.08 0.625 0 0.1 0.625 0 0 0.63 0 0.02 0.63 0 0.04 0.63 0 0.06 0.63 0 0.08 0.63 0 0.1 0.63 0 0 0.635 0 0.02 0.635 0 0.04 0.635 0 0.06 0.635 0 0.08 0.635 0 0.1 0.635 0 0 0.64 0 0.02 0.64 0 0.04 0.64 0 0.06 0.64 0 0.08 0.64 0 0.1 0.64 0 0 0.645 0 0.02 0.645 0 0.04 0.645 0 0.06 0.645 0 0.08 0.645 0 0.1 0.645 0 0 0.65 0 0.02 0.65 0 0.04 0.65 0 0.06 0.65 0 0.08 0.65 0 0.1 0.65 0 0 0.655 0 0.02 0.655 0 0.04 0.655 0 0.06 0.655 0 0.08 0.655 0 0.1 0.655 0 0 0.66 0 0.02 0.66 0 0.04 0.66 0 0.06 0.66 0 0.08 0.66 0 0.1 0.66 0 0 0.665 0 0.02 0.665 0 0.04 0.665 0 0.06 0.665 0 0.08 0.665 0 0.1 0.665 0 0 0.67 0 0.02 0.67 0 0.04 0.67 0 0.06 0.67 0 0.08 0.67 0 0.1 0.67 0 0 0.675 0 0.02 0.675 0 0.04 0.675 0 0.06 0.675 0 0.08 0.675 0 0.1 0.675 0 0 0.68 0 0.02 0.68 0 0.04 0.68 0 0.06 0.68 0 0.08 0.68 0 0.1 0.68 0 0 0.685 0 0.02 0.685 0 0.04 0.685 0 0.06 0.685 0 0.08 0.685 0 0.1 0.685 0 0 0.69 0 0.02 0.69 0 0.04 0.69 0 0.06 0.69 0 0.08 0.69 0 0.1 
[...]
			<PointData Scalars="VitesseX">
				<DataArray Name="VitesseX" type="Float32" format="ascii">
 0 9.11193e-15 -1.73321e-14 6.30248e-15 -2.69554e-14 0 0 7.7884e-15 -1.41401e-14 7.85395e-17 -2.17881e-14 0 0 4.62109e-15 -5.35637e-15 -1.54983e-14 -9.01126e-15 0 0 8.36011e-15 -7.33608e-15 -1.59837e-14 -9.88937e-15 0 0 1.06335e-14 -5.72894e-15 -1.99808e-14 -8.47251e-15 0 0 3.27006e-15 1.09218e-14 -4.60381e-14 8.99328e-15 0 0 -1.88464e-15 1.10157e-14 -4.3392e-14 -2.1544e-15 0 0 2.48765e-15 -8.54353e-15 -1.42208e-14 -2.76214e-14 0 0 4.26452e-16 -7.28868e-15 -2.12396e-14 -1.7612e-14 0 0 -5.00096e-15 -3.08431e-15 -3.03289e-14 -1.08772e-14 0 0 5.27288e-16 -1.71166e-14 -1.61915e-14 -2.54197e-14 0 0 -1.01912e-14 4.67374e-16 -4.04103e-14 -1.23952e-14 0 0 -4.99516e-15 -1.46896e-14 -2.29478e-14 -2.44287e-14 0 0 3.53052e-16 -2.48076e-14 -4.58994e-15 -3.4242e-14 0 0 -1.13224e-14 -1.26418e-14 -1.42155e-14 -1.77373e-14 0 0 -1.6312e-14 -1.71283e-14 -5.58983e-15 -7.42758e-15 0 0 -1.82028e-14 -2.53957e-14 8.2386e-15 -2.0816e-14 0 0 -2.82242e-16 -6.30158e-14 3.50525e-14 -2.76818e-14 0 0 1.07266e-14 -7.13408e-14 2.03969e-14 2.28554e-14 0 0 -1.02623e-14 -3.23712e-14 -1.51472e-14 4.51122e-14 0 0 -3.89427e-14 3.61987e-15 -3.97506e-14 3.77547e-14 0 0 -4.41033e-14 1.07377e-14 -4.36209e-14 3.03056e-14 0 0 -2.74223e-14 -1.91552e-14 -5.03577e-15 1.48228e-15 0 0 -2.96026e-14 -4.29088e-15 -7.05205e-15 -2.1554e-14 0 0 7.26487e-15 -4.08818e-14 3.56441e-14 -7.8367e-14 0 0 6.3465e-14 -1.15244e-13 1.07914e-13 -1.3817e-13 0 0 -3.56884e-15 1.0828e-14 -2.97607e-14 -6.08099e-14 0 0 -2.11852e-14 3.70532e-14 -8.02282e-14 -2.54976e-14 0 0 2.31452e-14 -5.07022e-14 -4.01593e-14 -9.0101e-15 0 0 1.36582e-14 -6.94458e-14 -3.15944e-14 -1.40039e-15 0 0 -1.23188e-14 -4.87047e-14 -2.41328e-14 -3.34414e-14 0 0 -8.97481e-15 -4.63945e-14 -1.37224e-14 -4.54282e-14 0 0 -1.70917e-14 -3.31874e-14 -8.85881e-15 -6.24211e-14 0 0 -3.77216e-14 -9.40967e-15 -4.49225e-14 -2.07205e-14 0 0 -1.3219e-14 -3.97432e-14 -3.0763e-14 -6.7394e-15 0 0 -1.1212e-14 -2.69746e-14 -2.73785e-14 -1.97672e-14 0 0 3.07176e-14 -8.3516e-14 1.3805e-14 -2.146e-14 0 0 7.54708e-14 -1.30454e-13 2.03981e-14 5.90834e-16 0 0 9.56398e-14 -1.49104e-13 3.79206e-14 -2.9524e-14 0 0 4.36149e-14 -6.26721e-14 -6.27886e-14 4.74036e-14 0 0 -2.00129e-14 4.7048e-14 -1.93936e-13 1.4626e-13 0 0 1.01995e-14 -1.43154e-14 -1.18446e-13 7.99678e-14 0 0 -1.86363e-14 -1.81202e-15 -5.4331e-14 -1.53866e-15 0 0 -4.75304e-14 4.21708e-14 -2.93609e-14 -6.15119e-14 0 0 -6.70843e-14 9.8045e-14 -7.73908e-14 -7.59712e-14 0 0 3.95658e-15 -1.58441e-14 4.62597e-14 -1.82624e-13 0 0 4.22348e-14 -9.90403e-14 1.56099e-13 -2.46426e-13 0 0 -2.74532e-14 -2.2584e-14 7.71955e-14 -1.94731e-13 0 0 -3.72049e-14 -3.77224e-15 -3.26896e-16 -1.14689e-13 0 0 -1.0367e-13 1.53228e-13 -1.76953e-13 1.77193e-14 0 0 -1.93048e-13 2.85977e-13 -2.49735e-13 6.78541e-14 0 0 -1.59758e-13 2.05686e-13 -1.20492e-13 7.13937e-15 0 0 -1.0965e-13 1.12368e-13 -1.94119e-14 -2.46428e-14 0 0 -1.21895e-13 1.13568e-13 -5.66633e-14 4.87244e-14 0 0 -1.03523e-13 3.0994e-14 5.09758e-15 1.12675e-14 0 0 -1.33279e-13 6.38095e-14 -7.2746e-14 1.35822e-14 0 0 -1.59564e-13 1.62662e-13 -2.16593e-13 4.24945e-14 0 0 -2.59159e-14 -1.63551e-14 -7.26873e-14 -1.23592e-13 0 0 8.4238e-14 -1.65617e-13 -3.91783e-14 -1.31408e-13 0 0 -2.32735e-15 -7.01077e-14 -1.04636e-13 -3.51601e-14 0 0 -3.32369e-14 -4.73086e-14 -6.08136e-14 -3.73001e-14 0 0 -1.62894e-14 -8.50579e-14 1.10727e-14 -1.34516e-13 0 0 2.15571e-14 -4.93103e-14 -1.21846e-13 -1.16647e-13 0 0 1.27267e-13 -9.13022e-14 -2.4925e-13 -6.19812e-14 0 0 9.64077e-14 4.06332e-15 -3.18474e-13 -6.16309e-14 0 0 1.51271e-13 2.50486e-14 -3.08971e-13 -1.33867e-13 0 0 1.71762e-13 -5.75319e-15 -2.63224e-13 -1.67347e-13 0 0 7.31682e-14 2.06268e-14 -2.19163e-13 -1.01947e-13 0 0 1.80712e-14 -2.6406e-14 -8.6799e-14 -1.59637e-13 0 0 -8.4457e-14 5.96553e-14 -8.4196e-14 -1.86204e-13 0 0 -7.80345e-14 1.12573e-13 -1.73645e-13 -1.89246e-13 0 0 -4.66645e-14 2.17704e-13 -4.32975e-13 -9.15745e-14 0 0 5.19783e-14 8.58915e-14 -2.99517e-13 -1.96622e-13 0 0 1.69775e-13 -1.24409e-13 1.03932e-13 -4.88503e-13 0 0 1.34632e-13 6.1741e-14 2.68334e-13 -3.98604e-13 0 0 2.59861e-13 6.03477e-13 5.09995e-13 -1.17686e-14 0 0 7.45322e-13 1.60442e-12 1.27313e-12 8.37387e-13 0 0 1.99812e-12 3.63011e-12 3.2932e-12 2.25024e-12 0 0 4.65419e-12 7.68267e-12 7.66566e-12 4.87661e-12 0 0 9.42817e-12 1.52374e-11 1.5641e-11 9.62726e-12 0 0 1.61728e-11 2.67578e-11 2.6972e-11 1.67436e-11 0 0 2.03182e-11 3.42328e-11 3.4623e-11 2.17619e-11 0 0 -7.64223e-13 8.64898e-13 2.27141e-12 2.20592e-12 0 0 -1.02285e-10 -1.61627e-10 -1.57729e-10 -9.55758e-11 0 0 -4.41574e-10 -7.06928e-10 -6.98008e-10 -4.27143e-10 0 0 -1.38829e-09 -2.23171e-09 -2.21355e-09 -1.35934e-09 0 0 -3.75105e-09 -6.04406e-09 -6.01234e-09 -3.70037e-09 0 0 -9.18728e-09 -1.48319e-08 -1.47902e-08 -9.12019e-09 0 0 -2.08955e-08 -3.37983e-08 -3.37847e-08 -2.0873e-08 0 0 -4.47367e-08 -7.2763e-08 -7.26377e-08 -4.49773e-08 0 0 -9.21424e-08 -1.47277e-07 -1.50874e-07 -9.34508e-08 0 0 -1.76448e-07 -2.97591e-07 -2.88016e-07 -1.79312e-07 0 0 -3.4287e-07 -5.31983e-07 -5.67044e-07 -3.54263e-07 0 0 -5.80651e-07 -1.0119e-06 -9.82337e-07 -6.0759e-07 0 0 -1.07919e-06 -1.68813e-06 -1.72468e-06 -1.13776e-06 0 0 -1.66639e-06 -2.79956e-06 -3.04441e-06 -1.78593e-06 0 0 -2.8419e-06 -4.77605e-06 -4.5962e-06 -3.11792e-06 0 0 -4.35382e-06 -7.12141e-06 -7.52163e-06 -4.68816e-06 0 0 -6.33072e-06 -1.06896e-05 -1.17307e-05 -7.4064e-06 0 0 -9.70226e-06 -1.66303e-05 -1.65122e-05 -1.06596e-05 0 0 -1.3576e-05 -2.24459e-05 -2.40982e-05 -1.55447e-05 0 0 -1.83363e-05 -3.15013e-05 -3.3578e-05 -2.17514e-05 0 0 -2.54133e-05 -4.28553e-05 -4.48563e-05 -2.85799e-05 0 0 -3.30845e-05 -5.53585e-05 -5.75433e-05 -3.68881e-05 0 0 -4.25507e-05 -7.01618e-05 -7.23679e-05 -4.55106e-05 0 0 -5.38451e-05 -8.77469e-05 -8.72018e-05 -5.36279e-05 0 0 -6.70152e-05 -0.000105396 -0.000101413 -6.07712e-05 0 0 -8.00941e-05 -0.000122257 -0.000115152 -6.73614e-05 0 0 -9.4078e-05 -0.000142701 -0.00012986 -7.35704e-05 0 0 -0.000109757 -0.00016448 -0.0001461 -8.20887e-05 0 0 -0.000125493 -0.0001854 -0.000164411 -9.11529e-05 0 0 -0.000140757 -0.000208133 -0.000185756 -0.0001034 0 0 -0.000155433 -0.000233976 -0.000211983 -0.000120457 0 0 -0.000170941 -0.000260203 -0.00024017 -0.000139486 0 0 -0.000186343 -0.000285638 -0.000267559 -0.000158877 0 0 -0.000201668 -0.000308713 -0.000298803 -0.000185336 0 0 -0.000217508 -0.000333796 -0.000336265 -0.000215989 0 0 -0.000231924 -0.000364831 -0.000374551 -0.000245759 0 0 -0.000244567 -0.000398272 -0.000411056 -0.000271637 0 0 -0.000268035 -0.000431231 -0.000442282 -0.000290886 0 0 -0.000294941 -0.000460303 -0.000465627 -0.000300052 0 0 -0.000318757 -0.000480465 -0.000473025 -0.000320603 0 0 -0.000331848 -0.000489204 -0.000481049 -0.000332704 0 0 -0.000343076 -0.000506024 -0.000508552 -0.000323276 0 0 -0.000394204 -0.000571244 -0.000546404 -0.000290908 0 0 -0.000573944 -0.000783736 -0.00055398 -0.000200947 0 0 -0.000726009 -0.000863145 -0.000544996 -4.41202e-05 0 0 -0.000736065 -0.000861634 -0.000521877 8.78583e-05 0 0 -0.000707695 -0.000846616 -0.0005279 8.26077e-05 0 0 -0.000601843 -0.000786552 -0.000565491 2.49228e-05 0 0 -0.000459602 -0.000804082 -0.000650526 -6.85393e-05 0 0 -0.000424832 -0.000940595 -0.000730783 -0.000151418 0 0 -0.000383352 -0.00108265 -0.000904324 -0.000179955 0 0 0.000146517 -0.000804413 -0.000869477 -0.00013786 0 0 0.00134148 0.000632474 -0.000233349 4.93171e-05 0 0 0.00149042 0.00172845 0.000844633 0.000235648 0 0 0.00141311 0.00175573 0.00114635 0.000373485 0 0 0.00120958 0.00166774 0.00113602 0.00047882 0 0 0.00101316 0.00139881 0.00106306 0.000522024 0 0 0.000839741 0.00112745 0.000923385 0.000522516 0 0 0.000695228 0.000916317 0.000800979 0.000507299 0 0 0.000583554 0.000781737 0.000714931 0.000468785 0 0 0.000502434 0.000706827 0.00066708 0.00043331 0 0 0.000444505 0.00066176 0.000639525 0.000402698 0 0 0.000399852 0.000614583 0.000598211 0.000369895 0 0 0.000360509 0.000559722 0.000547341 0.000335326 0 0 0.000320708 0.000504979 0.000495461 0.000301482 0 0 0.000281093 0.000451065 0.000443618 0.000268866 0 0 0.000247192 0.000401687 0.000395316 0.000239483 0 0 0.000223131 0.000361353 0.000355227 0.000215497 0 0 0.000206256 0.00033015 0.000323834 0.000196548 0 0 0.000188913 0.000301323 0.00029517 0.000179029 0 0 0.00016855 0.000268611 0.000263068 0.00015959 0 0 0.000145742 0.000232242 0.000227581 0.000138202 0 0 0.00012054 0.000192231 0.000188639 0.000114732 0 0 9.37426e-05 0.000149704 0.000147206 8.97033e-05 0 0 6.70446e-05 0.000107269 0.000105752 6.45899e-05 0 0 4.30917e-05 6.90836e-05 6.82865e-05 4.18024e-05 0 0 2.4353e-05 3.91219e-05 3.8772e-05 2.3787e-05 0 0 1.18135e-05 1.90155e-05 1.88928e-05 1.1615e-05 0 0 4.9063e-06 7.91073e-06 7.87639e-06 4.85071e-06 0 0 1.79778e-06 2.90241e-06 2.89442e-06 1.78486e-06 0 0 6.07207e-07 9.81187e-07 9.79585e-07 6.04616e-07 0 0 1.9665e-07 3.1795e-07 3.17657e-07 1.96177e-07 0 0 6.23337e-08 1.00818e-07 1.00768e-07 6.22538e-08 0 0 1.95121e-08 3.15651e-08 3.15574e-08 1.94999e-08 0 0 6.05169e-09 9.79134e-09 9.79033e-09 6.05036e-09 0 0 1.86159e-09 3.01212e-09 3.01243e-09 1.86165e-09 0 0 5.68039e-10 9.18941e-10 9.19574e-10 5.68213e-10 0 0 1.71804e-10 2.77974e-10 2.78451e-10 1.72068e-10 0 0 5.14335e-11 8.32845e-11 8.36777e-11 5.17565e-11 0 0 1.51213e-11 2.47359e-11 2.49139e-11 1.56559e-11 0 0 4.33922e-12 7.16311e-12 7.49939e-12 4.7843e-12 0 0 1.28551e-12 1.79322e-12 2.58675e-12 1.32751e-12 0 0 3.63082e-13 3.55097e-13 9.91382e-13 4.2384e-13 0 0 1.51186e-13 -8.28323e-14 5.53095e-13 1.28798e-13 0 0 1.34316e-14 2.52726e-14 1.89781e-13 1.60515e-13 0 0 -5.29798e-14 1.97973e-13 -6.02605e-14 2.18672e-13 0 0 6.47447e-14 5.85743e-14 9.6214e-14 6.57338e-14 0 0 2.66762e-14 5.61918e-14 2.47302e-13 -1.21893e-13 0 0 -2.39893e-14 8.71761e-14 2.94181e-13 -1.2891e-13 0 0 -3.52659e-14 1.51559e-13 1.22694e-13 9.76515e-14 0 0 1.07656e-13 -7.74974e-14 3.28487e-13 -7.33493e-14 0 0 1.10312e-13 -1.14815e-13 3.66634e-13 -1.87971e-14 0 0 -1.37342e-13 1.85739e-13 2.4939e-13 -2.05986e-14 0 0 -1.35262e-13 8.80782e-14 3.06043e-13 -7.84279e-14 0 0 1.15017e-14 -6.92498e-14 1.56203e-13 2.05573e-13 0 0 1.68791e-14 1.97095e-14 6.43884e-14 1.79459e-13 0 0 9.65847e-14 -1.04116e-13 2.29759e-13 -3.78727e-14 0 0 1.31126e-13 -5.07978e-14 2.8917e-14 1.13641e-13 0 0 6.08105e-14 8.00085e-14 -1.67853e-13 2.65114e-13 0 0 -3.69091e-14 7.49515e-14 5.82549e-14 -1.64078e-14 0 0 6.47068e-15 4.29686e-14 1.51319e-13 -2.21394e-13 0 0 -1.24475e-13 3.15959e-13 -1.74631e-13 -3.56032e-14 0 0 -2.34123e-13 4.96833e-13 -3.1594e-13 2.8555e-14 0 0 8.05674e-14 1.33807e-13 -1.15034e-13 -4.5491e-14 0 0 4.76365e-14 2.1935e-13 -2.59597e-13 9.34033e-14 0 0 2.88565e-13 -2.02589e-13 2.23154e-13 -2.0553e-13 0 0 3.37861e-13 -4.05183e-13 2.37018e-13 3.97047e-14 0 0 2.24137e-13 -3.25761e-13 -1.76975e-13 6.83605e-13 0 0 4.66025e-13 -6.53426e-13 -3.84469e-14 7.43536e-13 0
				</DataArray>
				<DataArray Name="VitesseY" type="Float32" format="ascii">