<?xml version="1.0"?>
<VTKFile type="PolyData">
	<PolyData>
		<Piece NumberOfPoints="1206" NumberOfPolys="1000">
			<Points>
				<DataArray type="Float32" NumberOfComponents="3" format="ascii">
 0 0 0 0.02 0 0 0.04 0 0 0.06 0 0 0.08 0 0 0.1 0 0 0 0.005 0 0.02 0.005 0 0.04 0.005 0 0.06 0.005 0 0.08 0.005 0 0.1 0.005 0 0 0.01 0 0.02 0.01 0 0.04 0.01 0 0.06 0.01 0 0.08 0.01 0 0.1 0.01 0 0 0.015 0 0.02 0.015 0 0.04 0.015 0 0.06 0.015 0 0.08 0.015 0 0.1 0.015 0 0 0.02 0 0.02 0.02 0 0.04 0.02 0 0.06 0.02 0 0.08 0.02 0 0.1 0.02 0 0 0.025 0 0.02 0.025 0 0.04 0.025 0 0.06 0.025 0 0.08 0.025 0 0.1 0.025 0 0 0.03 0 0.02 0.03 0 0.04 0.03 0 0.06 0.03 0 0.08 0.03 0 0.1 0.03 0 0 0.035 0 0.02 0.035 0 0.04 0.035 0 0.06 0.035 0 0.08 0.035 0 0.1 0.035 0 0 0.04 0 0.02 0.04 0 0.04 0.04 0 0.06 0.04 0 0.08 0.04 0 0.1 0.04 0 0 0.045 0 0.02 0.045 0 0.04 0.045 0 0.06 0.045 0 0.08 0.045 0 0.1 0.045 0 0 0.05 0 0.02 0.05 0 0.04 0.05 0 0.06 0.05 0 0.08 0.05 0 0.1 0.05 0 0 0.055 0 0.02 0.055 0 0.04 0.055 0 0.06 0.055 0 0.08 0.055 0 0.1 0.055 0 0 0.06 0 0.02 0.06 0 0.04 0.06 0 0.06 0.06 0 0.08 0.06 0 0.1 0.06 0 0 0.065 0 0.02 0.065 0 0.04 0.065 0 0.06 0.065 0 0.08 0.065 0 0.1 0.065 0 0 0.07 0 0.02 0.07 0 0.04 0.07 0 0.06 0.07 0 0.08 0.07 0 0.1 0.07 0 0 0.075 0 0.02 0.075 0 0.04 0.075 0 0.06 0.075 0 0.08 0.075 0 0.1 0.075 0 0 0.08 0 0.02 0.08 0 0.04 0.08 0 0.06 0.08 0 0.08 0.08 0 0.1 0.08 0 0 0.085 0 0.02 0.085 0 0.04 0.085 0 0.06 0.085 0 0.08 0.085 0 0.1 0.085 0 0 0.09 0 0.02 0.09 0 0.04 0.09 0 0.06 0.09 0 0.08 0.09 0 0.1 0.09 0 0 0.095 0 0.02 0.095 0 0.04 0.095 0 0.06 0.095 0 0.08 0.095 0 0.1 0.095 0 0 0.1 0 0.02 0.1 0 0.04 0.1 0 0.06 0.1 0 0.08 0.1 0 0.1 0.1 0 0 0.105 0 0.02 0.105 0 0.04 0.105 0 0.06 0.105 0 0.08 0.105 0 0.1 0.105 0 0 0.11 0 0.02 0.11 0 0.04 0.11 0 0.06 0.11 0 0.08 0.11 0 0.1 0.11 0 0 0.115 0 0.02 0.115 0 0.04 0.115 0 0.06 0.115 0 0.08 0.115 0 0.1 0.115 0 0 0.12 0 0.02 0.12 0 0.04 0.12 0 0.06 0.12 0 0.08 0.12 0 0.1 0.12 0 0 0.125 0 0.02 0.125 0 0.04 0.125 0 0.06 0.125 0 0.08 0.125 0 0.1 0.125 0 0 0.13 0 0.02 0.13 0 0.04 0.13 0 0.06 0.13 0 0.08 0.13 0 0.1 0.13 0 0 0.135 0 0.02 0.135 0 0.04 0.135 0 0.06 0.135 0 0.08 0.135 0 0.1 0.135 0 0 0.14 0 0.02 0.14 0 0.04 0.14 0 0.06 0.14 0 0.08 0.14 0 0.1 0.14 0 0 0.145 0 0.02 0.145 0 0.04 0.145 0 0.06 0.145 0 0.08 0.145 0 0.1 0.145 0 0 0.15 0 0.02 0.15 0 0.04 0.15 0 0.06 0.15 0 0.08 0.15 0 0.1 0.15 0 0 0.155 0 0.02 0.155 0 0.04 0.155 0 0.06 0.155 0 0.08 0.155 0 0.1 0.155 0 0 0.16 0 0.02 0.16 0 0.04 0.16 0 0.06 0.16 0 0.08 0.16 0 0.1 0.16 0 0 0.165 0 0.02 0.165 0 0.04 0.165 0 0.06 0.165 0 0.08 0.165 0 0.1 0.165 0 0 0.17 0 0.02 0.17 0 0.04 0.17 0 0.06 0.17 0 0.08 0.17 0 0.1 0.17 0 0 0.175 0 0.02 0.175 0 0.04 0.175 0 0.06 0.175 0 0.08 0.175 0 0.1 0.175 0 0 0.18 0 0.02 0.18 0 0.04 0.18 0 0.06 0.18 0 0.08 0.18 0 0.1 0.18 0 0 0.185 0 0.02 0.185 0 0.04 0.185 0 0.06 0.185 0 0.08 0.185 0 0.1 0.185 0 0 0.19 0 0.02 0.19 0 0.04 0.19 0 0.06 0.19 0 0.08 0.19 0 0.1 0.19 0 0 0.195 0 0.02 0.195 0 0.04 0.195 0 0.06 0.195 0 0.08 0.195 0 0.1 0.195 0 0 0.2 0 0.02 0.2 0 0.04 0.2 0 0.06 0.2 0 0.08 0.2 0 0.1 0.2 0 0 0.205 0 0.02 0.205 0 0.04 0.205 0 0.06 0.205 0 0.08 0.205 0 0.1 0.205 0 0 0.21 0 0.02 0.21 0 0.04 0.21 0 0.06 0.21 0 0.08 0.21 0 0.1 0.21 0 0 0.215 0 0.02 0.215 0 0.04 0.215 0 0.06 0.215 0 0.08 0.215 0 0.1 0.215 0 0 0.22 0 0.02 0.22 0 0.04 0.22 0 0.06 0.22 0 0.08 0.22 0 0.1 0.22 0 0 0.225 0 0.02 0.225 0 0.04 0.225 0 0.06 0.225 0 0.08 0.225 0 0.1 0.225 0 0 0.23 0 0.02 0.23 0 0.04 0.23 0 0.06 0.23 0 0.08 0.23 0 0.1 0.23 0 0 0.235 0 0.02 0.235 0 0.04 0.235 0 0.06 0.235 0 0.08 0.235 0 0.1 0.235 0 0 0.24 0 0.02 0.24 0 0.04 0.24 0 0.06 0.24 0 0.08 0.24 0 0.1 0.24 0 0 0.245 0 0.02 0.245 0 0.04 0.245 0 0.06 0.245 0 0.08 0.245 0 0.1 0.245 0 0 0.25 0 0.02 0.25 0 0.04 0.25 0 0.06 0.25 0 0.08 0.25 0 0.1 0.25 0 0 0.255 0 0.02 0.255 0 0.04 0.255 0 0.06 0.255 0 0.08 0.255 0 0.1 0.255 0 0 0.26 0 0.02 0.26 0 0.04 0.26 0 0.06 0.26 0 0.08 0.26 0 0.1 0.26 0 0 0.265 0 0.02 0.265 0 0.04 0.265 0 0.06 0.265 0 0.08 0.265 0 0.1 0.265 0 0 0.27 0 0.02 0.27 0 0.04 0.27 0 0.06 0.27 0 0.08 0.27 0 0.1 0.27 0 0 0.275 0 0.02 0.275 0 0.04 0.275 0 0.06 0.275 0 0.08 0.275 0 0.1 0.275 0 0 0.28 0 0.02 0.28 0 0.04 0.28 0 0.06 0.28 0 0.08 0.28 0 0.1 0.28 0 0 0.285 0 0.02 0.285 0 0.04 0.285 0 0.06 0.285 0 0.08 0.285 0 0.1 0.285 0 0 0.29 0 0.02 0.29 0 0.04 0.29 0 0.06 0.29 0 0.08 0.29 0 0.1 0.29 0 0 0.295 0 0.02 0.295 0 0.04 0.295 0 0.06 0.295 0 0.08 0.295 0 0.1 0.295 0 0 0.3 0 0.02 0.3 0 0.04 0.3 0 0.06 0.3 0 0.08 0.3 0 0.1 0.3 0 0 0.305 0 0.02 0.305 0 0.04 0.305 0 0.06 0.305 0 0.08 0.305 0 0.1 0.305 0 0 0.31 0 0.02 0.31 0 0.04 0.31 0 0.06 0.31 0 0.08 0.31 0 0.1 0.31 0 0 0.315 0 0.02 0.315 0 0.04 0.315 0 0.06 0.315 0 0.08 0.315 0 0.1 0.315 0 0 0.32 0 0.02 0.32 0 0.04 0.32 0 0.06 0.32 0 0.08 0.32 0 0.1 0.32 0 0 0.325 0 0.02 0.325 0 0.04 0.325 0 0.06 0.325 0 0.08 0.325 0 0.1 0.325 0 0 0.33 0 0.02 0.33 0 0.04 0.33 0 0.06 0.33 0 0.08 0.33 0 0.1 0.33 0 0 0.335 0 0.02 0.335 0 0.04 0.335 0 0.06 0.335 0 0.08 0.335 0 0.1 0.335 0 0 0.34 0 0.02 0.34 0 0.04 0.34 0 0.06 0.34 0 0.08 0.34 0 0.1 0.34 0 0 0.345 0 0.02 0.345 0 0.04 0.345 0 0.06 0.345 0 0.08 0.345 0 0.1 0.345 0 0 0.35 0 0.02 0.35 0 0.04 0.35 0 0.06 0.35 0 0.08 0.35 0 0.1 0.35 0 0 0.355 0 0.02 0.355 0 0.04 0.355 0 0.06 0.355 0 0.08 0.355 0 0.1 0.355 0 0 0.36 0 0.02 0.36 0 0.04 0.36 0 0.06 0.36 0 0.08 0.36 0 0.1 0.36 0 0 0.365 0 0.02 0.365 0 0.04 0.365 0 0.06 0.365 0 0.08 0.365 0 0.1 0.365 0 0 0.37 0 0.02 0.37 0 0.04 0.37 0 0.06 0.37 0 0.08 0.37 0 0.1 0.37 0 0 0.375 0 0.02 0.375 0 0.04 0.375 0 0.06 0.375 0 0.08 0.375 0 0.1 0.375 0 0 0.38 0 0.02 0.38 0 0.04 0.38 0 0.06 0.38 0 0.08 0.38 0 0.1 0.38 0 0 0.385 0 0.02 0.385 0 0.04 0.385 0 0.06 0.385 0 0.08 0.385 0 0.1 0.385 0 0 0.39 0 0.02 0.39 0 0.04 0.39 0 0.06 0.39 0 0.08 0.39 0 0.1 0.39 0 0 0.395 0 0.02 0.395 0 0.04 0.395 0 0.06 0.395 0 0.08 0.395 0 0.1 0.395 0 0 0.4 0 0.02 0.4 0 0.04 0.4 0 0.06 0.4 0 0.08 0.4 0 0.1 0.4 0 0 0.405 0 0.02 0.405 0 0.04 0.405 0 0.06 0.405 0 0.08 0.405 0 0.1 0.405 0 0 0.41 0 0.02 0.41 0 0.04 0.41 0 0.06 0.41 0 0.08 0.41 0 0.1 0.41 0 0 0.415 0 0.02 0.415 0 0.04 0.415 0 0.06 0.415 0 0.08 0.415 0 0.1 0.415 0 0 0.42 0 0.02 0.42 0 0.04 0.42 0 0.06 0.42 0 0.08 0.42 0 0.1 0.42 0 0 0.425 0 0.02 0.425 0 0.04 0.425 0 0.06 0.425 0 0.08 0.425 0 0.1 0.425 0 0 0.43 0 0.02 0.43 0 0.04 0.43 0 0.06 0.43 0 0.08 0.43 0 0.1 0.43 0 0 0.435 0 0.02 0.435 0 0.04 0.435 0 0.06 0.435 0 0.08 0.435 0 0.1 0.435 0 0 0.44 0 0.02 0.44 0 0.04 0.44 0 0.06 0.44 0 0.08 0.44 0 0.1 0.44 0 0 0.445 0 0.02 0.445 0 0.04 0.445 0 0.06 0.445 0 0.08 0.445 0 0.1 0.445 0 0 0.45 0 0.02 0.45 0 0.04 0.45 0 0.06 0.45 0 0.08 0.45 0 0.1 0.45 0 0 0.455 0 0.02 0.455 0 0.04 0.455 0 0.06 0.455 0 0.08 0.455 0 0.1 0.455 0 0 0.46 0 0.02 0.46 0 0.04 0.46 0 0.06 0.46 0 0.08 0.46 0 0.1 0.46 0 0 0.465 0 0.02 0.465 0 0.04 0.465 0 0.06 0.465 0 0.08 0.465 0 0.1 0.465 0 0 0.47 0 0.02 0.47 0 0.04 0.47 0 0.06 0.47 0 0.08 0.47 0 0.1 0.47 0 0 0.475 0 0.02 0.475 0 0.04 0.475 0 0.06 0.475 0 0.08 0.475 0 0.1 0.475 0 0 0.48 0 0.02 0.48 0 0.04 0.48 0 0.06 0.48 0 0.08 0.48 0 0.1 0.48 0 0 0.485 0 0.02 0.485 0 0.04 0.485 0 0.06 0.485 0 0.08 0.485 0 0.1 0.485 0 0 0.49 0 0.02 0.49 0 0.04 0.49 0 0.06 0.49 0 0.08 0.49 0 0.1 0.49 0 0 0.495 0 0.02 0.495 0 0.04 0.495 0 0.06 0.495 0 0.08 0.495 0 0.1 0.495 0 0 0.5 0 0.02 0.5 0 0.04 0.5 0 0.06 0.5 0 0.08 0.5 0 0.1 0.5 0 0 0.505 0 0.02 0.505 0 0.04 0.505 0 0.06 0.505 0 0.08 0.505 0 0.1 0.505 0 0 0.51 0 0.02 0.51 0 0.04 0.51 0 0.06 0.51 0 0.08 0.51 0 0.1 0.51 0 0 0.515 0 0.02 0.515 0 0.04 0.515 0 0.06 0.515 0 0.08 0.515 0 0.1 0.515 0 0 0.52 0 0.02 0.52 0 0.04 0.52 0 0.06 0.52 0 0.08 0.52 0 0.1 0.52 0 0 0.525 0 0.02 0.525 0 0.04 0.525 0 0.06 0.525 0 0.08 0.525 0 0.1 0.525 0 0 0.53 0 0.02 0.53 0 0.04 0.53 0 0.06 0.53 0 0.08 0.53 0 0.1 0.53 0 0 0.535 0 0.02 0.535 0 0.04 0.535 0 0.06 0.535 0 0.08 0.535 0 0.1 0.535 0 0 0.54 0 0.02 0.54 0 0.04 0.54 0 0.06 0.54 0 0.08 0.54 0 0.1 0.54 0 0 0.545 0 0.02 0.545 0 0.04 0.545 0 0.06 0.545 0 0.08 0.545 0 0.1 0.545 0 0 0.55 0 0.02 0.55 0 0.04 0.55 0 0.06 0.55 0 0.08 0.55 0 0.1 0.55 0 0 0.555 0 0.02 0.555 0 0.04 0.555 0 0.06 0.555 0 0.08 0.555 0 0.1 0.555 0 0 0.56 0 0.02 0.56 0 0.04 0.56 0 0.06 0.56 0 0.08 0.56 0 0.1 0.56 0 0 0.565 0 0.02 0.565 0 0.04 0.565 0 0.06 0.565 0 0.08 0.565 0 0.1 0.565 0 0 0.57 0 0.02 0.57 0 0.04 0.57 0 0.06 0.57 0 0.08 0.57 0 0.1 0.57 0 0 0.575 0 0.02 0.575 0 0.04 0.575 0 0.06 0.575 0 0.08 0.575 0 0.1 0.575 0 0 0.58 0 0.02 0.58 0 0.04 0.58 0 0.06 0.58 0 0.08 0.58 0 0.1 0.58 0 0 0.585 0 0.02 0.585 0 0.04 0.585 0 0.06 0.585 0 0.08 0.585 0 0.1 0.585 0 0 0.59 0 0.02 0.59 0 0.04 0.59 0 0.06 0.59 0 0.08 0.59 0 0.1 0.59 0 0 0.595 0 0.02 0.595 0 0.04 0.595 0 0.06 0.595 0 0.08 0.595 0 0.1 0.595 0 0 0.6 0 0.02 0.6 0 0.04 0.6 0 0.06 0.6 0 0.08 0.6 0 0.1 0.6 0 0 0.605 0 0.02 0.605 0 0.04 0.605 0 0.06 0.605 0 0.08 0.605 0 0.1 0.605 0 0 0.61 0 0.02 0.61 0 0.04 0.61 0 0.06 0.61 0 0.08 0.61 0 0.1 0.61 0 0 0.615 0 0.02 0.615 0 0.04 0.615 0 0.06 0.615 0 0.08 0.615 0 0.1 0.615 0 0 0.62 0 0.02 0.62 0 0.04 0.62 0 0.06 0.62 0 0.08 0.62 0 0.1 0.62 0 0 0.625 0 0.02 0.625 0 0.04 0.625 0 0.06 0.625 0 0.08 0.625 0 0.1 0.625 0 0 0.63 0 0.02 0.63 0 0.04 0.63 0 0.06 0.63 0 0.08 0.63 0 0.1 0.63 0 0 0.635 0 0.02 0.635 0 0.04 0.635 0 0.06 0.635 0 0.08 0.635 0 0.1 0.635 0 0 0.64 0 0.02 0.64 0 0.04 0.64 0 0.06 0.64 0 0.08 0.64 0 0.1 0.64 0 0 0.645 0 0.02 0.645 0 0.04 0.645 0 0.06 0.645 0 0.08 0.645 0 0.1 0.645 0 0 0.65 0 0.02 0.65 0 0.04 0.65 0 0.06 0.65 0 0.08 0.65 0 0.1 0.65 0 0 0.655 0 0.02 0.655 0 0.04 0.655 0 0.06 0.655 0 0.08 0.655 0 0.1 0.655 0 0 0.66 0 0.02 0.66 0 0.04 0.66 0 0.06 0.66 0 0.08 0.66 0 0.1 0.66 0 0 0.665 0 0.02 0.665 0 0.04 0.665 0 0.06 0.665 0 0.08 0.665 0 0.1 0.665 0 0 0.67 0 0.02 0.67 0 0.04 0.67 0 0.06 0.67 0 0.08 0.67 0 0.1 0.67 0 0 0.675 0 0.02 0.675 0 0.04 0.675 0 0.06 0.675 0 0.08 0.675 0 0.1 0.675 0 0 0.68 0 0.02 0.68 0 0.04 0.68 0 0.06 0.68 0 0.08 0.68 0 0.1 0.68 0 0 0.685 0 0.02 0.685 0 0.04 0.685 0 0.06 0.685 0 0.08 0.685 0 0.1 0.685 0 0 0.69 0 0.02 0.69 0 0.04 0.69 0 0.06 0.69 0 0.08 0.69 0 0.1 
[...]
			<PointData Scalars="VitesseX">
				<DataArray Name="VitesseX" type="Float32" format="ascii">
 0 4.20628e-14 5.66725e-15 1.70265e-14 3.39599e-14 0 0 3.11295e-14 2.01071e-14 1.1137e-14 2.91046e-14 0 0 2.6631e-14 2.22774e-14 2.62081e-14 4.09872e-16 0 0 1.15236e-14 4.38537e-14 1.91034e-14 -1.32121e-14 0 0 1.55169e-14 4.9239e-14 7.4732e-15 -1.02563e-14 0 0 4.62514e-14 2.01063e-14 1.98313e-14 -1.0991e-14 0 0 5.5362e-14 9.70083e-15 2.91169e-14 -1.82039e-14 0 0 5.73779e-14 6.90602e-15 2.87208e-14 -2.30408e-14 0 0 4.38852e-14 3.66403e-14 -1.45952e-14 6.94648e-15 0 0 3.3368e-14 4.82142e-14 -3.62701e-14 3.65462e-14 0 0 1.8095e-14 6.78496e-14 -4.79027e-14 4.56661e-14 0 0 3.27211e-14 4.61313e-14 1.57045e-16 -3.33623e-15 0 0 2.17181e-14 5.55961e-14 2.00029e-14 -1.62046e-14 0 0 2.25743e-14 6.68076e-14 7.30333e-15 1.01355e-14 0 0 4.10535e-14 4.8965e-14 1.49837e-14 1.29114e-14 0 0 1.37695e-14 7.96213e-14 -2.13872e-15 1.1082e-14 0 0 4.70003e-14 2.36718e-14 5.38653e-14 -2.38979e-14 0 0 4.94797e-14 2.83781e-14 1.87461e-14 2.16826e-14 0 0 1.53345e-14 6.95455e-14 -4.23081e-14 9.25165e-14 0 0 1.46773e-14 5.15807e-14 -3.56483e-15 8.34281e-14 0 0 3.67507e-14 3.08745e-14 2.43149e-14 7.06216e-14 0 0 4.18079e-14 5.30408e-14 2.96808e-15 8.69318e-14 0 0 7.06435e-14 2.85189e-14 3.27121e-14 8.20369e-14 0 0 8.82099e-14 1.36232e-14 3.80108e-14 9.55707e-14 0 0 5.26053e-14 7.81745e-14 1.15864e-14 8.68688e-14 0 0 4.93021e-14 7.52725e-14 6.06572e-14 3.15977e-14 0 0 5.70389e-14 6.46738e-14 7.13808e-14 5.33175e-15 0 0 6.10739e-14 1.00518e-13 5.74555e-15 2.7132e-14 0 0 4.84803e-14 1.18094e-13 -3.53007e-15 3.25421e-14 0 0 5.46245e-14 6.89042e-14 8.60376e-14 -3.84174e-14 0 0 9.32224e-14 1.40654e-14 1.51831e-13 -1.14065e-13 0 0 7.07281e-14 5.72559e-14 7.80658e-14 -5.67829e-14 0 0 4.65944e-14 9.3896e-14 -4.68474e-15 3.45152e-14 0 0 1.04636e-13 -1.0643e-15 3.9056e-14 5.00715e-14 0 0 1.011e-13 -1.30901e-14 1.31626e-14 1.15101e-13 0 0 1.05083e-13 -3.67466e-14 7.49359e-14 6.83637e-14 0 0 6.44189e-14 4.5501e-14 -2.52013e-15 1.29262e-13 0 0 3.84112e-14 1.20866e-13 -1.18364e-13 2.28932e-13 0 0 1.90343e-14 1.60735e-13 -1.30395e-13 1.86337e-13 0 0 4.88535e-14 1.22355e-13 -3.13227e-14 2.72995e-14 0 0 1.65871e-13 -2.76313e-14 1.45653e-13 -1.47641e-13 0 0 1.50766e-13 9.23935e-14 7.36177e-15 -5.64366e-14 0 0 2.05256e-13 9.50602e-14 -1.9872e-14 1.74807e-15 0 0 2.708e-13 3.12891e-14 3.37274e-14 -1.33695e-14 0 0 1.89726e-13 1.10968e-13 -9.81997e-16 -2.79887e-14 0 0 1.1969e-13 1.67324e-13 -2.98973e-14 -7.87529e-15 0 0 1.09145e-13 1.97736e-13 -5.98211e-14 2.26563e-14 0 0 1.49129e-13 1.05484e-13 -1.3385e-14 7.27162e-14 0 0 1.86999e-13 -1.68151e-14 1.25019e-14 2.282e-13 0 0 2.65068e-13 -2.2624e-13 2.36791e-13 1.46312e-13 0 0 3.04445e-13 -3.67208e-13 4.25636e-13 8.36771e-15 0 0 1.74942e-13 -1.35422e-13 1.87406e-13 1.50139e-13 0 0 1.97934e-13 -1.0498e-13 1.01215e-13 2.14551e-13 0 0 1.50509e-13 1.03571e-14 -1.46584e-14 2.3026e-13 0 0 7.22931e-14 1.52025e-13 -1.52151e-13 2.7166e-13 0 0 2.27733e-13 -9.88617e-14 3.77451e-14 2.13454e-13 0 0 2.09623e-13 5.93717e-16 -9.80822e-14 3.12242e-13 0 0 1.69978e-13 7.04775e-14 -6.52144e-14 2.11787e-13 0 0 1.04995e-13 7.5326e-14 7.86457e-14 7.97541e-14 0 0 5.34833e-14 9.26712e-14 1.21944e-13 4.57694e-14 0 0 1.18275e-13 5.86659e-14 1.32872e-13 1.79221e-14 0 0 1.39362e-13 1.4676e-13 -4.98417e-14 1.28826e-13 0 0 2.31703e-13 2.18766e-14 8.82471e-14 -2.34524e-14 0 0 2.20933e-13 -6.76735e-15 1.75685e-13 -1.0428e-13 0 0 1.70281e-13 3.0631e-14 1.3781e-13 -4.35494e-14 0 0 2.14855e-13 -1.02198e-14 8.2973e-14 5.02235e-14 0 0 1.19193e-13 1.6083e-13 -1.59482e-13 2.14825e-13 0 0 1.44023e-13 8.10205e-14 5.18501e-16 2.59487e-14 0 0 2.22828e-13 -2.94205e-14 1.22484e-13 -3.81091e-14 0 0 1.87435e-13 7.86427e-14 -3.78746e-14 1.34988e-13 0 0 3.04708e-13 -5.33063e-14 5.59253e-14 1.33553e-13 0 0 2.90443e-13 1.12435e-13 -1.29129e-13 2.94096e-13 0 0 3.24344e-13 1.96614e-13 -1.23681e-13 2.66773e-13 0 0 2.71112e-13 2.68567e-13 -1.05481e-13 2.83625e-13 0 0 2.98896e-13 1.13596e-13 7.47502e-14 2.31036e-13 0 0 2.80806e-13 7.63565e-14 1.60097e-13 1.87862e-13 0 0 1.42151e-14 4.91639e-13 -2.16233e-13 4.64308e-13 0 0 3.31971e-13 2.15827e-14 2.33213e-13 3.31249e-13 0 0 2.52319e-13 1.48541e-13 1.40037e-13 4.55135e-13 0 0 3.33224e-13 7.09871e-14 3.1438e-13 2.04696e-13 0 0 4.00076e-13 1.96626e-13 1.56953e-13 1.91695e-13 0 0 -4.82359e-14 8.92529e-13 -4.12132e-13 4.81077e-13 0 0 2.04075e-13 1.65056e-13 6.44427e-13 -2.34492e-13 0 0 1.14118e-13 3.35781e-13 5.077e-13 -3.84936e-14 0 0 -7.27369e-14 1.0699e-12 -2.53461e-13 5.30415e-13 0 0 4.48923e-13 4.76114e-13 2.81153e-13 2.22206e-13 0 0 8.53164e-13 -3.57959e-14 7.14636e-13 3.37048e-14 0 0 5.40549e-13 5.729e-13 3.13515e-13 1.11044e-13 0 0 3.78939e-13 6.89899e-13 4.30405e-13 -1.95233e-13 0 0 2.27353e-13 7.62199e-13 8.11452e-13 -4.37758e-13 0 0 5.39307e-13 1.62049e-12 1.54632e-12 1.67131e-13 0 0 4.13271e-12 7.52492e-12 7.70006e-12 4.40403e-12 0 0 2.70872e-11 4.60722e-11 4.89902e-11 3.14019e-11 0 0 1.4368e-10 2.5117e-10 2.74922e-10 1.81643e-10 0 0 5.87208e-10 1.08522e-09 1.25221e-09 8.57926e-10 0 0 1.77916e-09 3.43263e-09 4.24387e-09 3.09943e-09 0 0 3.18657e-10 4.7311e-09 9.79079e-09 8.29623e-09 0 0 -2.49511e-08 -2.99531e-08 -1.61965e-08 -2.28804e-09 0 0 -1.59677e-07 -2.44346e-07 -2.21383e-07 -1.22613e-07 0 0 -6.34094e-07 -1.0894e-06 -1.14332e-06 -7.21475e-07 0 0 -1.88688e-06 -3.60169e-06 -4.18184e-06 -2.8286e-06 0 0 -4.8702e-06 -9.59288e-06 -1.22234e-05 -8.73437e-06 0 0 -8.78118e-06 -2.31527e-05 -3.04401e-05 -2.25854e-05 0 0 -1.74101e-05 -4.25052e-05 -6.31576e-05 -5.01324e-05 0 0 -2.20113e-05 -7.38643e-05 -0.000129953 -0.000112007 0 0 -2.58518e-05 -0.000119421 -0.000205439 -0.000177097 0 0 -3.79335e-05 -0.000165083 -0.000271591 -0.000219106 0 0 -7.04988e-05 -0.000206099 -0.000325749 -0.000289347 0 0 -0.000111233 -0.000255629 -0.000398372 -0.000289123 0 0 -0.000119416 -0.000343305 -0.000495419 -0.000252557 0 0 -0.000103657 -0.00055364 -0.000635678 -7.41358e-05 0 0 -4.15929e-05 -0.00083559 -0.000784702 0.000312444 0 0 4.49782e-05 -0.000879478 -0.000797991 0.000434878 0 0 0.000102352 -0.000806551 -0.000732573 0.000398057 0 0 0.000104822 -0.000544538 -0.000521461 0.000262079 0 0 0.000119344 -0.000257337 -0.00032319 2.15839e-05 0 0 0.00013063 8.14876e-05 -0.000185107 -0.000462868 0 0 8.13538e-05 0.000628797 0.000227269 -0.000767218 0 0 4.10544e-05 0.000732209 0.000702551 -0.000350652 0 0 9.40075e-05 0.00057067 0.000679226 0.000290491 0 0 0.000129542 0.000381925 0.000553806 0.000391995 0 0 0.000125482 0.000275733 0.000433234 0.000370705 0 0 0.000109969 0.000228885 0.000347871 0.000302576 0 0 9.28076e-05 0.000200547 0.000289386 0.000237508 0 0 7.83e-05 0.000168843 0.000236496 0.000185207 0 0 6.36945e-05 0.000133202 0.000179654 0.000137981 0 0 4.79614e-05 9.71372e-05 0.000124899 9.32189e-05 0 0 3.26159e-05 6.37131e-05 7.83254e-05 5.63518e-05 0 0 1.94825e-05 3.67051e-05 4.33743e-05 3.02512e-05 0 0 9.91165e-06 1.80075e-05 2.04809e-05 1.39114e-05 0 0 4.12851e-06 7.25763e-06 7.97684e-06 5.29291e-06 0 0 1.38968e-06 2.38156e-06 2.54587e-06 1.65555e-06 0 0 3.85361e-07 6.47373e-07 6.76822e-07 4.3301e-07 0 0 9.3281e-08 1.54695e-07 1.59346e-07 1.00806e-07 0 0 2.07549e-08 3.41282e-08 3.48032e-08 2.18469e-08 0 0 4.36483e-09 7.13774e-09 7.23043e-09 4.51503e-09 0 0 8.78999e-10 1.43208e-09 1.4444e-09 8.98708e-10 0 0 1.70617e-10 2.77146e-10 2.78779e-10 1.73029e-10 0 0 3.21971e-11 5.2041e-11 5.2133e-11 3.249e-11 0 0 6.06877e-12 9.77769e-12 9.4694e-12 6.1465e-12 0 0 1.31063e-12 2.10049e-12 1.74108e-12 1.35379e-12 0 0 6.19745e-13 5.60433e-13 5.51745e-13 4.74085e-13 0 0 5.68658e-13 2.32715e-13 3.99088e-13 2.8483e-13 0 0 5.07185e-13 2.9437e-13 2.69348e-13 2.74698e-13 0 0 4.32859e-13 4.48021e-13 1.6508e-13 2.2328e-13 0 0 2.28e-13 7.90664e-13 -1.59193e-13 4.0337e-13 0 0 4.35826e-13 3.87568e-13 2.04194e-13 2.12137e-13 0 0 6.50371e-13 -1.04701e-14 5.00205e-13 -1.86898e-14 0 0 5.37761e-13 1.52828e-13 2.57503e-13 1.38838e-13 0 0 3.78503e-13 4.47587e-13 -1.12759e-13 4.26764e-13 0 0 3.1367e-13 6.40639e-13 -3.20544e-13 5.31219e-13 0 0 7.08756e-13 3.14604e-14 3.36655e-13 9.18368e-14 0 0 7.14934e-13 -4.48697e-15 3.40672e-13 1.55708e-13 0 0 5.2497e-13 1.44074e-13 3.89426e-13 4.41569e-14 0 0 3.22792e-13 4.02045e-13 3.53645e-13 -1.76011e-13 0 0 3.10971e-13 5.43704e-13 6.09588e-14 1.16736e-13 0 0 5.139e-13 2.58701e-13 2.81781e-13 2.53348e-14 0 0 4.97796e-13 1.82939e-13 4.74004e-13 -7.79979e-14 0 0 3.00299e-13 3.08178e-13 4.61411e-13 1.38399e-13 0 0 -2.22235e-13 9.65616e-13 -1.09225e-13 6.32596e-13 0 0 -1.41188e-13 8.33351e-13 -1.16936e-14 7.26531e-13 0 0 5.04392e-13 -1.38279e-13 9.46751e-13 1.03533e-13 0 0 7.09813e-13 -5.22626e-13 1.36255e-12 -2.48203e-13 0 0 3.36049e-13 4.97623e-14 7.84912e-13 3.62538e-14 0 0 -3.49289e-13 9.41038e-13 5.48531e-14 3.64184e-13 0 0 -4.58232e-13 9.81727e-13 3.53749e-14 3.22576e-13 0 0 5.38652e-14 2.77887e-13 6.20308e-13 -8.15732e-14 0 0 3.78887e-13 -2.28065e-13 1.04153e-12 -1.99818e-13 0 0 5.72121e-13 -4.96912e-13 1.22253e-12 -1.00468e-13 0 0 3.67263e-13 -2.5507e-13 1.23376e-12 -1.477e-13 0 0 -5.7214e-14 3.42277e-13 7.5021e-13 1.07407e-13 0 0 -1.17507e-13 6.31167e-13 1.56687e-13 5.43068e-13 0 0 -1.63866e-14 5.56627e-13 1.52554e-14 6.90055e-13 0 0 1.57957e-13 2.151e-13 2.34974e-13 6.24444e-13 0 0 3.37188e-13 -1.64824e-13 5.57078e-13 3.64212e-13 0 0 2.74951e-13 -1.96915e-13 8.06659e-13 3.47416e-15 0 0 -1.45874e-13 4.4548e-13 2.93684e-13 2.74879e-13 0 0 -3.11416e-13 7.10855e-13 5.39668e-14 4.24151e-13 0 0 2.0581e-13 2.62886e-14 6.7368e-13 7.22414e-14 0 0 4.37778e-13 -2.31745e-13 8.47456e-13 -5.96184e-14 0 0 1.42089e-13 1.42798e-13 5.1087e-13 4.66311e-14 0 0 -7.97479e-14 3.81749e-13 2.2405e-13 2.65766e-13 0 0 -6.08338e-14 2.54582e-13 4.13593e-13 1.61885e-13 0 0 3.29086e-13 -1.47805e-13 5.78143e-13 1.68484e-13 0 0 4.82075e-13 -1.70556e-13 3.3441e-13 4.06072e-13 0 0 2.68562e-13 9.59696e-14 2.22026e-13 3.14237e-13 0 0 1.50416e-13 3.72231e-13 9.11825e-15 3.35024e-13 0 0 1.49344e-13 6.10337e-13 -2.17933e-13 2.97455e-13 0 0 4.93359e-13 4.61582e-14 4.63723e-13 -2.44634e-13 0 0 6.87064e-13 -3.41063e-13 8.63947e-13 -3.22147e-13 0 0 3.72853e-13 3.51186e-13 -1.45844e-13 6.27308e-13 0 0 4.25112e-13 4.0656e-13 -4.64336e-13 9.73236e-13 0 0 6.91005e-13 -1.07617e-13 2.68781e-13 2.29774e-13 0 0 6.82446e-13 -2.09493e-13 5.59936e-13 -1.0663e-13 0 0 4.16849e-13 1.70346e-13 9.90287e-14 3.5618e-13 0 0 6.64613e-14 8.32789e-13 -7.7713e-13 1.07722e-12 0 0 4.86286e-13 3.46705e-13 -5.2277e-13 1.01833e-12 0 0 1.07885e-12 -5.03321e-13 2.17096e-13 5.76342e-13 0 0 9.10398e-13 -3.0901e-13 8.02013e-14 7.95553e-13 0 0 2.08171e-13 7.85997e-13 -7.47865e-13 1.33629e-12 0 0 -2.60949e-13 1.59799e-12 -1.40139e-12 1.6402e-12 0
				</DataArray>
				<DataArray Name="VitesseY" type="Float32" format="ascii">