<?xml version="1.0"?>
<VTKFile type="PolyData">
	<PolyData>
		<Piece NumberOfPoints="1206" NumberOfPolys="1000">
			<Points>
				<DataArray type="Float32" NumberOfComponents="3" format="ascii">
 0 0 0 0.02 0 0 0.04 0 0 0.06 0 0 0.08 0 0 0.1 0 0 0 0.005 0 0.02 0.005 0 0.04 0.005 0 0.06 0.005 0 0.08 0.005 0 0.1 0.005 0 0 0.01 0 0.02 0.01 0 0.04 0.01 0 0.06 0.01 0 0.08 0.01 0 0.1 0.01 0 0 0.015 0 0.02 0.015 0 0.04 0.015 0 0.06 0.015 0 0.08 0.015 0 0.1 0.015 0 0 0.02 0 0.02 0.02 0 0.04 0.02 0 0.06 0.02 0 0.08 0.02 0 0.1 0.02 0 0 0.025 0 0.02 0.025 0 0.04 0.025 0 0.06 0.025 0 0.08 0.025 0 0.1 0.025 0 0 0.03 0 0.02 0.03 0 0.04 0.03 0 0.06 0.03 0 0.08 0.03 0 0.1 0.03 0 0 0.035 0 0.02 0.035 0 0.04 0.035 0 0.06 0.035 0 0.08 0.035 0 0.1 0.035 0 0 0.04 0 0.02 0.04 0 0.04 0.04 0 0.06 0.04 0 0.08 0.04 0 0.1 0.04 0 0 0.045 0 0.02 0.045 0 0.04 0.045 0 0.06 0.045 0 0.08 0.045 0 0.1 0.045 0 0 0.05 0 0.02 0.05 0 0.04 0.05 0 0.06 0.05 0 0.08 0.05 0 0.1 0.05 0 0 0.055 0 0.02 0.055 0 0.04 0.055 0 0.06 0.055 0 0.08 0.055 0 0.1 0.055 0 0 0.06 0 0.02 0.06 0 0.04 0.06 0 0.06 0.06 0 0.08 0.06 0 0.1 0.06 0 0 0.065 0 0.02 0.065 0 0.04 0.065 0 0.06 0.065 0 0.08 0.065 0 0.1 0.065 0 0 0.07 0 0.02 0.07 0 0.04 0.07 0 0.06 0.07 0 0.08 0.07 0 0.1 0.07 0 0 0.075 0 0.02 0.075 0 0.04 0.075 0 0.06 0.075 0 0.08 0.075 0 0.1 0.075 0 0 0.08 0 0.02 0.08 0 0.04 0.08 0 0.06 0.08 0 0.08 0.08 0 0.1 0.08 0 0 0.085 0 0.02 0.085 0 0.04 0.085 0 0.06 0.085 0 0.08 0.085 0 0.1 0.085 0 0 0.09 0 0.02 0.09 0 0.04 0.09 0 0.06 0.09 0 0.08 0.09 0 0.1 0.09 0 0 0.095 0 0.02 0.095 0 0.04 0.095 0 0.06 0.095 0 0.08 0.095 0 0.1 0.095 0 0 0.1 0 0.02 0.1 0 0.04 0.1 0 0.06 0.1 0 0.08 0.1 0 0.1 0.1 0 0 0.105 0 0.02 0.105 0 0.04 0.105 0 0.06 0.105 0 0.08 0.105 0 0.1 0.105 0 0 0.11 0 0.02 0.11 0 0.04 0.11 0 0.06 0.11 0 0.08 0.11 0 0.1 0.11 0 0 0.115 0 0.02 0.115 0 0.04 0.115 0 0.06 0.115 0 0.08 0.115 0 0.1 0.115 0 0 0.12 0 0.02 0.12 0 0.04 0.12 0 0.06 0.12 0 0.08 0.12 0 0.1 0.12 0 0 0.125 0 0.02 0.125 0 0.04 0.125 0 0.06 0.125 0 0.08 0.125 0 0.1 0.125 0 0 0.13 0 0.02 0.13 0 0.04 0.13 0 0.06 0.13 0 0.08 0.13 0 0.1 0.13 0 0 0.135 0 0.02 0.135 0 0.04 0.135 0 0.06 0.135 0 0.08 0.135 0 0.1 0.135 0 0 0.14 0 0.02 0.14 0 0.04 0.14 0 0.06 0.14 0 0.08 0.14 0 0.1 0.14 0 0 0.145 0 0.02 0.145 0 0.04 0.145 0 0.06 0.145 0 0.08 0.145 0 0.1 0.145 0 0 0.15 0 0.02 0.15 0 0.04 0.15 0 0.06 0.15 0 0.08 0.15 0 0.1 0.15 0 0 0.155 0 0.02 0.155 0 0.04 0.155 0 0.06 0.155 0 0.08 0.155 0 0.1 0.155 0 0 0.16 0 0.02 0.16 0 0.04 0.16 0 0.06 0.16 0 0.08 0.16 0 0.1 0.16 0 0 0.165 0 0.02 0.165 0 0.04 0.165 0 0.06 0.165 0 0.08 0.165 0 0.1 0.165 0 0 0.17 0 0.02 0.17 0 0.04 0.17 0 0.06 0.17 0 0.08 0.17 0 0.1 0.17 0 0 0.175 0 0.02 0.175 0 0.04 0.175 0 0.06 0.175 0 0.08 0.175 0 0.1 0.175 0 0 0.18 0 0.02 0.18 0 0.04 0.18 0 0.06 0.18 0 0.08 0.18 0 0.1 0.18 0 0 0.185 0 0.02 0.185 0 0.04 0.185 0 0.06 0.185 0 0.08 0.185 0 0.1 0.185 0 0 0.19 0 0.02 0.19 0 0.04 0.19 0 0.06 0.19 0 0.08 0.19 0 0.1 0.19 0 0 0.195 0 0.02 0.195 0 0.04 0.195 0 0.06 0.195 0 0.08 0.195 0 0.1 0.195 0 0 0.2 0 0.02 0.2 0 0.04 0.2 0 0.06 0.2 0 0.08 0.2 0 0.1 0.2 0 0 0.205 0 0.02 0.205 0 0.04 0.205 0 0.06 0.205 0 0.08 0.205 0 0.1 0.205 0 0 0.21 0 0.02 0.21 0 0.04 0.21 0 0.06 0.21 0 0.08 0.21 0 0.1 0.21 0 0 0.215 0 0.02 0.215 0 0.04 0.215 0 0.06 0.215 0 0.08 0.215 0 0.1 0.215 0 0 0.22 0 0.02 0.22 0 0.04 0.22 0 0.06 0.22 0 0.08 0.22 0 0.1 0.22 0 0 0.225 0 0.02 0.225 0 0.04 0.225 0 0.06 0.225 0 0.08 0.225 0 0.1 0.225 0 0 0.23 0 0.02 0.23 0 0.04 0.23 0 0.06 0.23 0 0.08 0.23 0 0.1 0.23 0 0 0.235 0 0.02 0.235 0 0.04 0.235 0 0.06 0.235 0 0.08 0.235 0 0.1 0.235 0 0 0.24 0 0.02 0.24 0 0.04 0.24 0 0.06 0.24 0 0.08 0.24 0 0.1 0.24 0 0 0.245 0 0.02 0.245 0 0.04 0.245 0 0.06 0.245 0 0.08 0.245 0 0.1 0.245 0 0 0.25 0 0.02 0.25 0 0.04 0.25 0 0.06 0.25 0 0.08 0.25 0 0.1 0.25 0 0 0.255 0 0.02 0.255 0 0.04 0.255 0 0.06 0.255 0 0.08 0.255 0 0.1 0.255 0 0 0.26 0 0.02 0.26 0 0.04 0.26 0 0.06 0.26 0 0.08 0.26 0 0.1 0.26 0 0 0.265 0 0.02 0.265 0 0.04 0.265 0 0.06 0.265 0 0.08 0.265 0 0.1 0.265 0 0 0.27 0 0.02 0.27 0 0.04 0.27 0 0.06 0.27 0 0.08 0.27 0 0.1 0.27 0 0 0.275 0 0.02 0.275 0 0.04 0.275 0 0.06 0.275 0 0.08 0.275 0 0.1 0.275 0 0 0.28 0 0.02 0.28 0 0.04 0.28 0 0.06 0.28 0 0.08 0.28 0 0.1 0.28 0 0 0.285 0 0.02 0.285 0 0.04 0.285 0 0.06 0.285 0 0.08 0.285 0 0.1 0.285 0 0 0.29 0 0.02 0.29 0 0.04 0.29 0 0.06 0.29 0 0.08 0.29 0 0.1 0.29 0 0 0.295 0 0.02 0.295 0 0.04 0.295 0 0.06 0.295 0 0.08 0.295 0 0.1 0.295 0 0 0.3 0 0.02 0.3 0 0.04 0.3 0 0.06 0.3 0 0.08 0.3 0 0.1 0.3 0 0 0.305 0 0.02 0.305 0 0.04 0.305 0 0.06 0.305 0 0.08 0.305 0 0.1 0.305 0 0 0.31 0 0.02 0.31 0 0.04 0.31 0 0.06 0.31 0 0.08 0.31 0 0.1 0.31 0 0 0.315 0 0.02 0.315 0 0.04 0.315 0 0.06 0.315 0 0.08 0.315 0 0.1 0.315 0 0 0.32 0 0.02 0.32 0 0.04 0.32 0 0.06 0.32 0 0.08 0.32 0 0.1 0.32 0 0 0.325 0 0.02 0.325 0 0.04 0.325 0 0.06 0.325 0 0.08 0.325 0 0.1 0.325 0 0 0.33 0 0.02 0.33 0 0.04 0.33 0 0.06 0.33 0 0.08 0.33 0 0.1 0.33 0 0 0.335 0 0.02 0.335 0 0.04 0.335 0 0.06 0.335 0 0.08 0.335 0 0.1 0.335 0 0 0.34 0 0.02 0.34 0 0.04 0.34 0 0.06 0.34 0 0.08 0.34 0 0.1 0.34 0 0 0.345 0 0.02 0.345 0 0.04 0.345 0 0.06 0.345 0 0.08 0.345 0 0.1 0.345 0 0 0.35 0 0.02 0.35 0 0.04 0.35 0 0.06 0.35 0 0.08 0.35 0 0.1 0.35 0 0 0.355 0 0.02 0.355 0 0.04 0.355 0 0.06 0.355 0 0.08 0.355 0 0.1 0.355 0 0 0.36 0 0.02 0.36 0 0.04 0.36 0 0.06 0.36 0 0.08 0.36 0 0.1 0.36 0 0 0.365 0 0.02 0.365 0 0.04 0.365 0 0.06 0.365 0 0.08 0.365 0 0.1 0.365 0 0 0.37 0 0.02 0.37 0 0.04 0.37 0 0.06 0.37 0 0.08 0.37 0 0.1 0.37 0 0 0.375 0 0.02 0.375 0 0.04 0.375 0 0.06 0.375 0 0.08 0.375 0 0.1 0.375 0 0 0.38 0 0.02 0.38 0 0.04 0.38 0 0.06 0.38 0 0.08 0.38 0 0.1 0.38 0 0 0.385 0 0.02 0.385 0 0.04 0.385 0 0.06 0.385 0 0.08 0.385 0 0.1 0.385 0 0 0.39 0 0.02 0.39 0 0.04 0.39 0 0.06 0.39 0 0.08 0.39 0 0.1 0.39 0 0 0.395 0 0.02 0.395 0 0.04 0.395 0 0.06 0.395 0 0.08 0.395 0 0.1 0.395 0 0 0.4 0 0.02 0.4 0 0.04 0.4 0 0.06 0.4 0 0.08 0.4 0 0.1 0.4 0 0 0.405 0 0.02 0.405 0 0.04 0.405 0 0.06 0.405 0 0.08 0.405 0 0.1 0.405 0 0 0.41 0 0.02 0.41 0 0.04 0.41 0 0.06 0.41 0 0.08 0.41 0 0.1 0.41 0 0 0.415 0 0.02 0.415 0 0.04 0.415 0 0.06 0.415 0 0.08 0.415 0 0.1 0.415 0 0 0.42 0 0.02 0.42 0 0.04 0.42 0 0.06 0.42 0 0.08 0.42 0 0.1 0.42 0 0 0.425 0 0.02 0.425 0 0.04 0.425 0 0.06 0.425 0 0.08 0.425 0 0.1 0.425 0 0 0.43 0 0.02 0.43 0 0.04 0.43 0 0.06 0.43 0 0.08 0.43 0 0.1 0.43 0 0 0.435 0 0.02 0.435 0 0.04 0.435 0 0.06 0.435 0 0.08 0.435 0 0.1 0.435 0 0 0.44 0 0.02 0.44 0 0.04 0.44 0 0.06 0.44 0 0.08 0.44 0 0.1 0.44 0 0 0.445 0 0.02 0.445 0 0.04 0.445 0 0.06 0.445 0 0.08 0.445 0 0.1 0.445 0 0 0.45 0 0.02 0.45 0 0.04 0.45 0 0.06 0.45 0 0.08 0.45 0 0.1 0.45 0 0 0.455 0 0.02 0.455 0 0.04 0.455 0 0.06 0.455 0 0.08 0.455 0 0.1 0.455 0 0 0.46 0 0.02 0.46 0 0.04 0.46 0 0.06 0.46 0 0.08 0.46 0 0.1 0.46 0 0 0.465 0 0.02 0.465 0 0.04 0.465 0 0.06 0.465 0 0.08 0.465 0 0.1 0.465 0 0 0.47 0 0.02 0.47 0 0.04 0.47 0 0.06 0.47 0 0.08 0.47 0 0.1 0.47 0 0 0.475 0 0.02 0.475 0 0.04 0.475 0 0.06 0.475 0 0.08 0.475 0 0.1 0.475 0 0 0.48 0 0.02 0.48 0 0.04 0.48 0 0.06 0.48 0 0.08 0.48 0 0.1 0.48 0 0 0.485 0 0.02 0.485 0 0.04 0.485 0 0.06 0.485 0 0.08 0.485 0 0.1 0.485 0 0 0.49 0 0.02 0.49 0 0.04 0.49 0 0.06 0.49 0 0.08 0.49 0 0.1 0.49 0 0 0.495 0 0.02 0.495 0 0.04 0.495 0 0.06 0.495 0 0.08 0.495 0 0.1 0.495 0 0 0.5 0 0.02 0.5 0 0.04 0.5 0 0.06 0.5 0 0.08 0.5 0 0.1 0.5 0 0 0.505 0 0.02 0.505 0 0.04 0.505 0 0.06 0.505 0 0.08 0.505 0 0.1 0.505 0 0 0.51 0 0.02 0.51 0 0.04 0.51 0 0.06 0.51 0 0.08 0.51 0 0.1 0.51 0 0 0.515 0 0.02 0.515 0 0.04 0.515 0 0.06 0.515 0 0.08 0.515 0 0.1 0.515 0 0 0.52 0 0.02 0.52 0 0.04 0.52 0 0.06 0.52 0 0.08 0.52 0 0.1 0.52 0 0 0.525 0 0.02 0.525 0 0.04 0.525 0 0.06 0.525 0 0.08 0.525 0 0.1 0.525 0 0 0.53 0 0.02 0.53 0 0.04 0.53 0 0.06 0.53 0 0.08 0.53 0 0.1 0.53 0 0 0.535 0 0.02 0.535 0 0.04 0.535 0 0.06 0.535 0 0.08 0.535 0 0.1 0.535 0 0 0.54 0 0.02 0.54 0 0.04 0.54 0 0.06 0.54 0 0.08 0.54 0 0.1 0.54 0 0 0.545 0 0.02 0.545 0 0.04 0.545 0 0.06 0.545 0 0.08 0.545 0 0.1 0.545 0 0 0.55 0 0.02 0.55 0 0.04 0.55 0 0.06 0.55 0 0.08 0.55 0 0.1 0.55 0 0 0.555 0 0.02 0.555 0 0.04 0.555 0 0.06 0.555 0 0.08 0.555 0 0.1 0.555 0 0 0.56 0 0.02 0.56 0 0.04 0.56 0 0.06 0.56 0 0.08 0.56 0 0.1 0.56 0 0 0.565 0 0.02 0.565 0 0.04 0.565 0 0.06 0.565 0 0.08 0.565 0 0.1 0.565 0 0 0.57 0 0.02 0.57 0 0.04 0.57 0 0.06 0.57 0 0.08 0.57 0 0.1 0.57 0 0 0.575 0 0.02 0.575 0 0.04 0.575 0 0.06 0.575 0 0.08 0.575 0 0.1 0.575 0 0 0.58 0 0.02 0.58 0 0.04 0.58 0 0.06 0.58 0 0.08 0.58 0 0.1 0.58 0 0 0.585 0 0.02 0.585 0 0.04 0.585 0 0.06 0.585 0 0.08 0.585 0 0.1 0.585 0 0 0.59 0 0.02 0.59 0 0.04 0.59 0 0.06 0.59 0 0.08 0.59 0 0.1 0.59 0 0 0.595 0 0.02 0.595 0 0.04 0.595 0 0.06 0.595 0 0.08 0.595 0 0.1 0.595 0 0 0.6 0 0.02 0.6 0 0.04 0.6 0 0.06 0.6 0 0.08 0.6 0 0.1 0.6 0 0 0.605 0 0.02 0.605 0 0.04 0.605 0 0.06 0.605 0 0.08 0.605 0 0.1 0.605 0 0 0.61 0 0.02 0.61 0 0.04 0.61 0 0.06 0.61 0 0.08 0.61 0 0.1 0.61 0 0 0.615 0 0.02 0.615 0 0.04 0.615 0 0.06 0.615 0 0.08 0.615 0 0.1 0.615 0 0 0.62 0 0.02 0.62 0 0.04 0.62 0 0.06 0.62 0 0.08 0.62 0 0.1 0.62 0 0 0.625 0 0.02 0.625 0 0.04 0.625 0 0.06 0.625 0 0.08 0.625 0 0.1 0.625 0 0 0.63 0 0.02 0.63 0 0.04 0.63 0 0.06 0.63 0 0.08 0.63 0 0.1 0.63 0 0 0.635 0 0.02 0.635 0 0.04 0.635 0 0.06 0.635 0 0.08 0.635 0 0.1 0.635 0 0 0.64 0 0.02 0.64 0 0.04 0.64 0 0.06 0.64 0 0.08 0.64 0 0.1 0.64 0 0 0.645 0 0.02 0.645 0 0.04 0.645 0 0.06 0.645 0 0.08 0.645 0 0.1 0.645 0 0 0.65 0 0.02 0.65 0 0.04 0.65 0 0.06 0.65 0 0.08 0.65 0 0.1 0.65 0 0 0.655 0 0.02 0.655 0 0.04 0.655 0 0.06 0.655 0 0.08 0.655 0 0.1 0.655 0 0 0.66 0 0.02 0.66 0 0.04 0.66 0 0.06 0.66 0 0.08 0.66 0 0.1 0.66 0 0 0.665 0 0.02 0.665 0 0.04 0.665 0 0.06 0.665 0 0.08 0.665 0 0.1 0.665 0 0 0.67 0 0.02 0.67 0 0.04 0.67 0 0.06 0.67 0 0.08 0.67 0 0.1 0.67 0 0 0.675 0 0.02 0.675 0 0.04 0.675 0 0.06 0.675 0 0.08 0.675 0 0.1 0.675 0 0 0.68 0 0.02 0.68 0 0.04 0.68 0 0.06 0.68 0 0.08 0.68 0 0.1 0.68 0 0 0.685 0 0.02 0.685 0 0.04 0.685 0 0.06 0.685 0 0.08 0.685 0 0.1 0.685 0 0 0.69 0 0.02 0.69 0 0.04 0.69 0 0.06 0.69 0 0.08 0.69 0 0.1 
[...]
			<PointData Scalars="VitesseX">
				<DataArray Name="VitesseX" type="Float32" format="ascii">
 0 1.72973e-14 5.8768e-14 2.42635e-14 1.66364e-14 0 0 2.1746e-14 4.7679e-14 3.35514e-14 9.75198e-15 0 0 2.81691e-14 3.13412e-14 4.2916e-14 1.18292e-15 0 0 2.91662e-14 2.81219e-14 3.11622e-14 6.40385e-15 0 0 3.66277e-14 1.9214e-14 1.95104e-14 1.44969e-14 0 0 3.80901e-14 1.82298e-14 8.70337e-15 1.30926e-14 0 0 2.28888e-14 3.60554e-14 -6.37232e-15 1.10093e-14 0 0 1.7803e-14 3.65811e-14 -3.10466e-15 1.40701e-14 0 0 2.26159e-14 2.98123e-14 2.20458e-15 2.13087e-14 0 0 3.28089e-14 2.68205e-14 -1.95203e-16 2.75026e-14 0 0 2.71596e-14 3.81358e-14 6.31318e-16 2.43238e-14 0 0 2.32379e-14 3.2744e-14 3.35202e-14 -1.19211e-14 0 0 2.27722e-15 5.44429e-14 3.71062e-14 -3.11507e-14 0 0 -1.5344e-14 8.02681e-14 8.53338e-15 -9.11254e-15 0 0 -4.47103e-15 6.72507e-14 -2.35065e-15 1.86473e-14 0 0 2.59302e-15 6.57524e-14 -2.33702e-14 4.88646e-14 0 0 3.5103e-14 2.83107e-14 -2.57919e-15 4.67783e-14 0 0 4.05131e-14 3.40906e-14 1.2101e-16 5.09969e-14 0 0 3.94065e-14 5.81455e-14 -2.53024e-14 9.09955e-14 0 0 4.07465e-14 5.74834e-14 -5.28787e-15 1.09749e-13 0 0 1.67255e-14 7.95668e-14 1.39012e-14 1.04427e-13 0 0 2.31697e-14 8.51949e-14 1.18335e-14 9.20554e-14 0 0 8.11371e-14 1.21694e-14 7.91787e-14 4.3844e-14 0 0 1.04108e-13 -3.64703e-14 1.70065e-13 -2.3237e-14 0 0 1.72278e-14 1.0167e-13 6.94941e-14 2.37288e-14 0 0 -5.32883e-14 2.25134e-13 -5.49923e-14 9.62137e-14 0 0 4.06405e-14 8.60103e-14 6.98561e-14 -1.01551e-14 0 0 9.08554e-14 2.53701e-14 1.17687e-13 -6.93876e-14 0 0 5.56044e-14 9.3031e-14 6.8119e-14 -6.99305e-14 0 0 6.31453e-14 6.5286e-14 1.06077e-13 -9.54366e-14 0 0 7.29726e-14 2.92121e-14 1.34917e-13 -9.91694e-14 0 0 5.05076e-14 8.29199e-14 6.16373e-14 -6.85629e-14 0 0 5.46876e-14 1.02568e-13 1.61948e-14 -2.28224e-14 0 0 1.13473e-13 -6.04744e-15 1.37447e-13 -6.03388e-14 0 0 5.21035e-15 1.08935e-13 6.21671e-14 3.05855e-14 0 0 -3.31159e-14 1.64152e-13 -3.88535e-14 1.76258e-13 0 0 4.65893e-14 6.15892e-14 1.52826e-14 1.71495e-13 0 0 6.62193e-14 3.81892e-14 7.83153e-14 7.74048e-14 0 0 5.89539e-14 8.1445e-14 8.08004e-14 9.12516e-15 0 0 8.87611e-14 9.38042e-14 4.73617e-14 5.23533e-15 0 0 1.27877e-13 1.00901e-13 4.57196e-14 -2.61885e-14 0 0 1.44845e-13 9.01968e-14 9.34902e-14 -9.93398e-14 0 0 2.20776e-13 -4.7584e-14 2.0988e-13 -1.61516e-13 0 0 8.17992e-14 1.26709e-13 5.44083e-14 -4.30483e-14 0 0 -4.22033e-14 2.64868e-13 -5.18805e-14 5.33518e-14 0 0 6.6109e-14 2.92019e-14 2.15976e-13 -9.01451e-14 0 0 1.1816e-13 -7.75829e-14 2.92245e-13 -7.94914e-14 0 0 6.60885e-14 3.60841e-14 1.00008e-13 9.07032e-14 0 0 -2.49688e-14 1.48986e-13 3.0718e-14 1.00143e-13 0 0 -7.60292e-14 1.88104e-13 6.65625e-14 4.8673e-14 0 0 -9.6754e-14 2.21363e-13 5.98733e-14 6.53888e-14 0 0 -5.88311e-14 1.75921e-13 6.53617e-14 1.18059e-13 0 0 1.16094e-13 -1.14586e-13 2.9033e-13 3.89642e-14 0 0 8.64837e-14 -1.06276e-13 2.99749e-13 3.77904e-14 0 0 -1.38092e-13 2.37984e-13 -7.05626e-15 2.36961e-13 0 0 -1.02895e-13 2.38887e-13 -2.16628e-14 2.66041e-13 0 0 -3.58595e-14 1.24017e-13 1.48411e-13 1.42086e-13 0 0 -3.74043e-14 1.06168e-13 1.74323e-13 1.39431e-13 0 0 -1.3432e-14 1.59842e-13 4.53638e-14 1.93772e-13 0 0 8.20521e-15 1.5407e-13 1.03147e-13 5.43267e-14 0 0 3.83358e-14 1.37644e-13 1.43669e-13 -4.29081e-14 0 0 8.51167e-15 2.35146e-13 2.66797e-14 7.71829e-15 0 0 6.63807e-14 1.39827e-13 1.30369e-13 -2.55004e-14 0 0 1.56621e-13 4.29452e-14 1.33312e-13 4.11388e-14 0 0 2.45089e-13 -3.48792e-14 9.32012e-14 1.29876e-13 0 0 2.45847e-13 1.26983e-14 5.38335e-14 1.43205e-13 0 0 1.45373e-13 1.52272e-13 2.83908e-14 1.57175e-13 0 0 8.12882e-14 1.34563e-13 1.21614e-13 1.69479e-13 0 0 -1.8043e-14 2.49413e-13 1.43025e-15 3.05484e-13 0 0 1.36012e-13 1.38647e-13 5.22114e-14 3.15836e-13 0 0 2.98579e-13 8.81373e-15 1.99569e-13 1.48163e-13 0 0 8.33198e-14 2.7022e-13 1.0938e-13 9.32835e-14 0 0 -2.29253e-13 5.69561e-13 -1.06847e-13 2.36089e-13 0 0 -2.88394e-13 5.97878e-13 -1.31004e-13 2.74769e-13 0 0 -6.11838e-14 2.42057e-13 2.59438e-13 8.70431e-14 0 0 1.60363e-13 -8.95285e-14 5.35155e-13 1.04268e-13 0 0 -4.52095e-15 2.75855e-13 7.11514e-14 5.66534e-13 0 0 -2.75154e-13 6.46936e-13 -1.91238e-13 6.13351e-13 0 0 -1.84328e-13 5.29855e-13 4.02664e-14 2.68739e-13 0 0 1.63236e-13 1.60528e-13 2.51271e-13 2.27134e-13 0 0 6.19578e-15 3.14527e-13 1.06454e-13 4.35078e-13 0 0 -2.20984e-13 5.00772e-13 2.6715e-13 2.50862e-13 0 0 1.32961e-13 1.42718e-13 9.01326e-13 -2.97797e-13 0 0 1.01775e-13 5.76292e-13 5.25409e-13 -2.22663e-13 0 0 -3.68882e-14 1.27339e-12 -4.67621e-13 3.92359e-13 0 0 3.38161e-13 9.80226e-13 -5.23776e-13 5.99169e-13 0 0 1.055e-12 2.25457e-14 3.88851e-13 -1.95572e-14 0 0 9.12321e-13 4.14861e-15 9.11923e-13 -6.41443e-13 0 0 4.80434e-13 4.29954e-13 6.5686e-13 -4.52572e-13 0 0 1.77206e-13 8.44172e-13 3.03367e-13 -1.67556e-13 0 0 1.97925e-14 1.09918e-12 4.68895e-14 1.8408e-14 0 0 7.49337e-14 1.04349e-12 8.16102e-14 2.10985e-14 0 0 2.28089e-13 7.8479e-13 2.72588e-13 -7.16252e-15 0 0 6.36582e-13 2.38655e-13 4.9802e-13 1.07232e-14 0 0 8.82853e-13 -5.20326e-14 5.28139e-13 1.26011e-13 0 0 8.34663e-13 -1.84213e-15 4.07157e-13 3.04411e-13 0 0 6.27389e-13 1.66504e-13 1.18428e-13 2.87898e-13 0 0 -3.62574e-13 -9.29123e-13 -1.3677e-12 -5.18024e-13 0 0 -1.0236e-11 -1.68604e-11 -1.8091e-11 -1.11074e-11 0 0 -1.131e-10 -1.89773e-10 -1.99247e-10 -1.27283e-10 0 0 -1.01275e-09 -1.7319e-09 -1.84758e-09 -1.19934e-09 0 0 -7.39265e-09 -1.29698e-08 -1.42125e-08 -9.40366e-09 0 0 -4.33652e-08 -7.89778e-08 -8.98222e-08 -6.09129e-08 0 0 -2.01521e-07 -3.87652e-07 -4.63288e-07 -3.23907e-07 0 0 -7.32526e-07 -1.52664e-06 -1.94414e-06 -1.40871e-06 0 0 -2.19373e-06 -4.82347e-06 -6.64112e-06 -5.00417e-06 0 0 -4.3346e-06 -1.22369e-05 -1.71654e-05 -1.33791e-05 0 0 -8.8754e-06 -2.36736e-05 -3.80473e-05 -3.06012e-05 0 0 -8.34374e-06 -4.09423e-05 -7.51741e-05 -6.08442e-05 0 0 -3.34731e-06 -5.90547e-05 -0.000109288 -9.59516e-05 0 0 1.0626e-05 -7.67518e-05 -0.000168418 -0.000148225 0 0 4.20337e-05 -9.45241e-05 -0.000268286 -0.00021473 0 0 0.000114959 -0.000110935 -0.000388727 -0.000288665 0 0 0.000197405 -0.00011313 -0.000489686 -0.000339865 0 0 0.000209263 -0.000112403 -0.000491178 -0.000336427 0 0 0.00019282 -0.000108454 -0.00046264 -0.000317699 0 0 0.00013098 -0.000101827 -0.000373991 -0.000272538 0 0 7.50681e-05 -9.64381e-05 -0.000297036 -0.000232451 0 0 -2.68448e-06 -9.03325e-05 -0.000233885 -0.000205814 0 0 -0.00018087 -5.61888e-05 3.2524e-05 -7.78441e-05 0 0 -0.000200143 7.66381e-05 0.000436748 0.000301994 0 0 -0.000116802 0.000129949 0.000435257 0.000357181 0 0 -2.78437e-05 0.000126976 0.000332286 0.000304156 0 0 1.17408e-05 0.000109374 0.000220692 0.00020355 0 0 2.58601e-05 8.69775e-05 0.000141473 0.000121704 0 0 2.78705e-05 6.61943e-05 9.13031e-05 6.86741e-05 0 0 2.39606e-05 4.73111e-05 5.93866e-05 4.10132e-05 0 0 1.63607e-05 3.16843e-05 3.83472e-05 2.64091e-05 0 0 1.05545e-05 2.02103e-05 2.38482e-05 1.64826e-05 0 0 6.68509e-06 1.22952e-05 1.39688e-05 9.45765e-06 0 0 3.96703e-06 6.96535e-06 7.62167e-06 5.02888e-06 0 0 2.07169e-06 3.54268e-06 3.77951e-06 2.4507e-06 0 0 9.16517e-07 1.54173e-06 1.61287e-06 1.03172e-06 0 0 3.32179e-07 5.50437e-07 5.66353e-07 3.5787e-07 0 0 9.61326e-08 1.57341e-07 1.59549e-07 9.97062e-08 0 0 2.16778e-08 3.52047e-08 3.53652e-08 2.19373e-08 0 0 4.00483e-09 6.47696e-09 6.47352e-09 3.99888e-09 0 0 6.4862e-10 1.04724e-09 1.04351e-09 6.43521e-10 0 0 9.52046e-11 1.53431e-10 1.52493e-10 9.40632e-11 0 0 1.31496e-11 2.08569e-11 2.07918e-11 1.26977e-11 0 0 1.95628e-12 2.96377e-12 2.79193e-12 1.78492e-12 0 0 6.90826e-13 5.46745e-13 7.4643e-13 3.27864e-13 0 0 4.09392e-13 5.51754e-13 2.40748e-13 2.68056e-13 0 0 3.33563e-13 6.69462e-13 5.37014e-14 3.00701e-13 0 0 5.48302e-13 3.06418e-13 3.85264e-13 6.02703e-14 0 0 4.06281e-13 5.63564e-13 4.98305e-14 2.91766e-13 0 0 4.64286e-13 4.83063e-13 6.85341e-14 2.71467e-13 0 0 5.06231e-13 4.02412e-13 1.11088e-13 2.67146e-13 0 0 4.00651e-13 5.38472e-13 -2.74396e-14 3.70486e-13 0 0 5.42204e-13 2.50474e-13 2.72605e-13 2.16826e-13 0 0 3.59618e-13 5.227e-13 -1.785e-14 4.03127e-13 0 0 3.61003e-13 4.77674e-13 5.12246e-14 2.90833e-13 0 0 3.80281e-13 4.83544e-13 5.72287e-14 2.4156e-13 0 0 4.57601e-13 4.73994e-13 1.00387e-13 1.24485e-13 0 0 5.90272e-13 3.49726e-13 2.6609e-13 6.99858e-14 0 0 4.80403e-13 4.98615e-13 2.98966e-13 5.64473e-14 0 0 4.2208e-13 4.54931e-13 5.60142e-13 -1.06607e-13 0 0 2.17835e-13 6.91876e-13 4.49382e-13 -4.65868e-14 0 0 2.74141e-13 6.54972e-13 4.4391e-13 7.33328e-15 0 0 2.09512e-13 8.27127e-13 1.70895e-13 4.09149e-13 0 0 4.54165e-13 4.23818e-13 5.09559e-13 3.48075e-13 0 0 6.50083e-13 9.45095e-14 7.38221e-13 4.4701e-13 0 0 3.99973e-13 5.13471e-13 3.79542e-13 6.61032e-13 0 0 4.85908e-13 3.9047e-13 5.56903e-13 4.15749e-13 0 0 2.33039e-13 5.90398e-13 5.16661e-13 3.69217e-13 0 0 2.92326e-14 6.9216e-13 5.47973e-13 2.97621e-13 0 0 1.53015e-13 5.49474e-13 6.21613e-13 2.0354e-13 0 0 2.86645e-13 5.67314e-13 4.06737e-13 4.52903e-13 0 0 6.59139e-13 3.90478e-15 9.27752e-13 2.95916e-13 0 0 5.01835e-13 1.07972e-13 9.48864e-13 2.65198e-13 0 0 1.19043e-13 6.32615e-13 5.42711e-13 4.49576e-13 0 0 -3.5579e-14 7.75125e-13 5.39282e-13 4.08342e-13 0 0 -2.52809e-13 1.08809e-12 2.2796e-13 5.81386e-13 0 0 1.9398e-13 5.15113e-13 5.79172e-13 3.95333e-13 0 0 4.29662e-13 2.40614e-13 7.32571e-13 2.88843e-13 0 0 3.90624e-13 2.04707e-13 9.00239e-13 8.60721e-14 0 0 2.57698e-13 3.50188e-13 7.36554e-13 2.15191e-13 0 0 7.67456e-15 8.65251e-13 1.37881e-13 5.33404e-13 0 0 2.87852e-13 3.80188e-13 7.09028e-13 3.18522e-14 0 0 2.17517e-13 4.22178e-13 6.99329e-13 3.68386e-14 0 0 1.47608e-13 5.85469e-13 5.14745e-13 1.85617e-13 0 0 3.42384e-13 3.46934e-13 6.79121e-13 5.63305e-14 0 0 2.024e-13 5.07999e-13 4.93496e-13 1.06366e-13 0 0 3.20183e-13 1.30546e-13 8.4778e-13 -1.43773e-13 0 0 2.32408e-13 2.52221e-13 6.12131e-13 2.60799e-14 0 0 3.36002e-13 3.83832e-13 3.35654e-13 2.23479e-13 0 0 5.7402e-13 2.66064e-13 3.56229e-13 2.83302e-13 0 0 3.12447e-13 6.94547e-13 -3.64895e-14 4.94845e-13 0 0 5.61303e-13 1.94203e-13 3.57094e-13 3.30478e-13 0 0 5.14351e-13 8.46619e-14 3.5525e-13 4.04382e-13 0 0 4.20541e-13 4.06735e-13 -1.18626e-13 7.40586e-13 0 0 7.97925e-13 1.02473e-13 1.3195e-13 6.27304e-13 0 0 3.62307e-13 7.38652e-13 -3.07885e-13 7.87006e-13 0 0 8.90972e-14 1.0097e-12 -4.24361e-13 8.6036e-13 0 0 5.46464e-13 3.24614e-13 2.13988e-13 5.79727e-13 0 0 6.77362e-13 2.98861e-13 1.5257e-14 8.5835e-13 0 0 6.53215e-13 3.10279e-13 -2.22389e-13 1.24392e-12 0 0 3.46881e-13 6.33185e-13 -4.6513e-13 1.42599e-12 0 0 3.69665e-13 5.84482e-13 -2.76489e-13 1.14236e-12 0 0 7.04656e-13 9.21953e-14 7.67512e-14 9.11344e-13 0 0 6.89238e-13 1.23267e-13 -5.19984e-14 1.01585e-12 0
				</DataArray>
				<DataArray Name="VitesseY" type="Float32" format="ascii">