<?xml version="1.0"?>
<VTKFile type="PolyData">
	<PolyData>
		<Piece NumberOfPoints="1206" NumberOfPolys="1000">
			<Points>
				<DataArray type="Float32" NumberOfComponents="3" format="ascii">
 0 0 0 0.02 0 0 0.04 0 0 0.06 0 0 0.08 0 0 0.1 0 0 0 0.005 0 0.02 0.005 0 0.04 0.005 0 0.06 0.005 0 0.08 0.005 0 0.1 0.005 0 0 0.01 0 0.02 0.01 0 0.04 0.01 0 0.06 0.01 0 0.08 0.01 0 0.1 0.01 0 0 0.015 0 0.02 0.015 0 0.04 0.015 0 0.06 0.015 0 0.08 0.015 0 0.1 0.015 0 0 0.02 0 0.02 0.02 0 0.04 0.02 0 0.06 0.02 0 0.08 0.02 0 0.1 0.02 0 0 0.025 0 0.02 0.025 0 0.04 0.025 0 0.06 0.025 0 0.08 0.025 0 0.1 0.025 0 0 0.03 0 0.02 0.03 0 0.04 0.03 0 0.06 0.03 0 0.08 0.03 0 0.1 0.03 0 0 0.035 0 0.02 0.035 0 0.04 0.035 0 0.06 0.035 0 0.08 0.035 0 0.1 0.035 0 0 0.04 0 0.02 0.04 0 0.04 0.04 0 0.06 0.04 0 0.08 0.04 0 0.1 0.04 0 0 0.045 0 0.02 0.045 0 0.04 0.045 0 0.06 0.045 0 0.08 0.045 0 0.1 0.045 0 0 0.05 0 0.02 0.05 0 0.04 0.05 0 0.06 0.05 0 0.08 0.05 0 0.1 0.05 0 0 0.055 0 0.02 0.055 0 0.04 0.055 0 0.06 0.055 0 0.08 0.055 0 0.1 0.055 0 0 0.06 0 0.02 0.06 0 0.04 0.06 0 0.06 0.06 0 0.08 0.06 0 0.1 0.06 0 0 0.065 0 0.02 0.065 0 0.04 0.065 0 0.06 0.065 0 0.08 0.065 0 0.1 0.065 0 0 0.07 0 0.02 0.07 0 0.04 0.07 0 0.06 0.07 0 0.08 0.07 0 0.1 0.07 0 0 0.075 0 0.02 0.075 0 0.04 0.075 0 0.06 0.075 0 0.08 0.075 0 0.1 0.075 0 0 0.08 0 0.02 0.08 0 0.04 0.08 0 0.06 0.08 0 0.08 0.08 0 0.1 0.08 0 0 0.085 0 0.02 0.085 0 0.04 0.085 0 0.06 0.085 0 0.08 0.085 0 0.1 0.085 0 0 0.09 0 0.02 0.09 0 0.04 0.09 0 0.06 0.09 0 0.08 0.09 0 0.1 0.09 0 0 0.095 0 0.02 0.095 0 0.04 0.095 0 0.06 0.095 0 0.08 0.095 0 0.1 0.095 0 0 0.1 0 0.02 0.1 0 0.04 0.1 0 0.06 0.1 0 0.08 0.1 0 0.1 0.1 0 0 0.105 0 0.02 0.105 0 0.04 0.105 0 0.06 0.105 0 0.08 0.105 0 0.1 0.105 0 0 0.11 0 0.02 0.11 0 0.04 0.11 0 0.06 0.11 0 0.08 0.11 0 0.1 0.11 0 0 0.115 0 0.02 0.115 0 0.04 0.115 0 0.06 0.115 0 0.08 0.115 0 0.1 0.115 0 0 0.12 0 0.02 0.12 0 0.04 0.12 0 0.06 0.12 0 0.08 0.12 0 0.1 0.12 0 0 0.125 0 0.02 0.125 0 0.04 0.125 0 0.06 0.125 0 0.08 0.125 0 0.1 0.125 0 0 0.13 0 0.02 0.13 0 0.04 0.13 0 0.06 0.13 0 0.08 0.13 0 0.1 0.13 0 0 0.135 0 0.02 0.135 0 0.04 0.135 0 0.06 0.135 0 0.08 0.135 0 0.1 0.135 0 0 0.14 0 0.02 0.14 0 0.04 0.14 0 0.06 0.14 0 0.08 0.14 0 0.1 0.14 0 0 0.145 0 0.02 0.145 0 0.04 0.145 0 0.06 0.145 0 0.08 0.145 0 0.1 0.145 0 0 0.15 0 0.02 0.15 0 0.04 0.15 0 0.06 0.15 0 0.08 0.15 0 0.1 0.15 0 0 0.155 0 0.02 0.155 0 0.04 0.155 0 0.06 0.155 0 0.08 0.155 0 0.1 0.155 0 0 0.16 0 0.02 0.16 0 0.04 0.16 0 0.06 0.16 0 0.08 0.16 0 0.1 0.16 0 0 0.165 0 0.02 0.165 0 0.04 0.165 0 0.06 0.165 0 0.08 0.165 0 0.1 0.165 0 0 0.17 0 0.02 0.17 0 0.04 0.17 0 0.06 0.17 0 0.08 0.17 0 0.1 0.17 0 0 0.175 0 0.02 0.175 0 0.04 0.175 0 0.06 0.175 0 0.08 0.175 0 0.1 0.175 0 0 0.18 0 0.02 0.18 0 0.04 0.18 0 0.06 0.18 0 0.08 0.18 0 0.1 0.18 0 0 0.185 0 0.02 0.185 0 0.04 0.185 0 0.06 0.185 0 0.08 0.185 0 0.1 0.185 0 0 0.19 0 0.02 0.19 0 0.04 0.19 0 0.06 0.19 0 0.08 0.19 0 0.1 0.19 0 0 0.195 0 0.02 0.195 0 0.04 0.195 0 0.06 0.195 0 0.08 0.195 0 0.1 0.195 0 0 0.2 0 0.02 0.2 0 0.04 0.2 0 0.06 0.2 0 0.08 0.2 0 0.1 0.2 0 0 0.205 0 0.02 0.205 0 0.04 0.205 0 0.06 0.205 0 0.08 0.205 0 0.1 0.205 0 0 0.21 0 0.02 0.21 0 0.04 0.21 0 0.06 0.21 0 0.08 0.21 0 0.1 0.21 0 0 0.215 0 0.02 0.215 0 0.04 0.215 0 0.06 0.215 0 0.08 0.215 0 0.1 0.215 0 0 0.22 0 0.02 0.22 0 0.04 0.22 0 0.06 0.22 0 0.08 0.22 0 0.1 0.22 0 0 0.225 0 0.02 0.225 0 0.04 0.225 0 0.06 0.225 0 0.08 0.225 0 0.1 0.225 0 0 0.23 0 0.02 0.23 0 0.04 0.23 0 0.06 0.23 0 0.08 0.23 0 0.1 0.23 0 0 0.235 0 0.02 0.235 0 0.04 0.235 0 0.06 0.235 0 0.08 0.235 0 0.1 0.235 0 0 0.24 0 0.02 0.24 0 0.04 0.24 0 0.06 0.24 0 0.08 0.24 0 0.1 0.24 0 0 0.245 0 0.02 0.245 0 0.04 0.245 0 0.06 0.245 0 0.08 0.245 0 0.1 0.245 0 0 0.25 0 0.02 0.25 0 0.04 0.25 0 0.06 0.25 0 0.08 0.25 0 0.1 0.25 0 0 0.255 0 0.02 0.255 0 0.04 0.255 0 0.06 0.255 0 0.08 0.255 0 0.1 0.255 0 0 0.26 0 0.02 0.26 0 0.04 0.26 0 0.06 0.26 0 0.08 0.26 0 0.1 0.26 0 0 0.265 0 0.02 0.265 0 0.04 0.265 0 0.06 0.265 0 0.08 0.265 0 0.1 0.265 0 0 0.27 0 0.02 0.27 0 0.04 0.27 0 0.06 0.27 0 0.08 0.27 0 0.1 0.27 0 0 0.275 0 0.02 0.275 0 0.04 0.275 0 0.06 0.275 0 0.08 0.275 0 0.1 0.275 0 0 0.28 0 0.02 0.28 0 0.04 0.28 0 0.06 0.28 0 0.08 0.28 0 0.1 0.28 0 0 0.285 0 0.02 0.285 0 0.04 0.285 0 0.06 0.285 0 0.08 0.285 0 0.1 0.285 0 0 0.29 0 0.02 0.29 0 0.04 0.29 0 0.06 0.29 0 0.08 0.29 0 0.1 0.29 0 0 0.295 0 0.02 0.295 0 0.04 0.295 0 0.06 0.295 0 0.08 0.295 0 0.1 0.295 0 0 0.3 0 0.02 0.3 0 0.04 0.3 0 0.06 0.3 0 0.08 0.3 0 0.1 0.3 0 0 0.305 0 0.02 0.305 0 0.04 0.305 0 0.06 0.305 0 0.08 0.305 0 0.1 0.305 0 0 0.31 0 0.02 0.31 0 0.04 0.31 0 0.06 0.31 0 0.08 0.31 0 0.1 0.31 0 0 0.315 0 0.02 0.315 0 0.04 0.315 0 0.06 0.315 0 0.08 0.315 0 0.1 0.315 0 0 0.32 0 0.02 0.32 0 0.04 0.32 0 0.06 0.32 0 0.08 0.32 0 0.1 0.32 0 0 0.325 0 0.02 0.325 0 0.04 0.325 0 0.06 0.325 0 0.08 0.325 0 0.1 0.325 0 0 0.33 0 0.02 0.33 0 0.04 0.33 0 0.06 0.33 0 0.08 0.33 0 0.1 0.33 0 0 0.335 0 0.02 0.335 0 0.04 0.335 0 0.06 0.335 0 0.08 0.335 0 0.1 0.335 0 0 0.34 0 0.02 0.34 0 0.04 0.34 0 0.06 0.34 0 0.08 0.34 0 0.1 0.34 0 0 0.345 0 0.02 0.345 0 0.04 0.345 0 0.06 0.345 0 0.08 0.345 0 0.1 0.345 0 0 0.35 0 0.02 0.35 0 0.04 0.35 0 0.06 0.35 0 0.08 0.35 0 0.1 0.35 0 0 0.355 0 0.02 0.355 0 0.04 0.355 0 0.06 0.355 0 0.08 0.355 0 0.1 0.355 0 0 0.36 0 0.02 0.36 0 0.04 0.36 0 0.06 0.36 0 0.08 0.36 0 0.1 0.36 0 0 0.365 0 0.02 0.365 0 0.04 0.365 0 0.06 0.365 0 0.08 0.365 0 0.1 0.365 0 0 0.37 0 0.02 0.37 0 0.04 0.37 0 0.06 0.37 0 0.08 0.37 0 0.1 0.37 0 0 0.375 0 0.02 0.375 0 0.04 0.375 0 0.06 0.375 0 0.08 0.375 0 0.1 0.375 0 0 0.38 0 0.02 0.38 0 0.04 0.38 0 0.06 0.38 0 0.08 0.38 0 0.1 0.38 0 0 0.385 0 0.02 0.385 0 0.04 0.385 0 0.06 0.385 0 0.08 0.385 0 0.1 0.385 0 0 0.39 0 0.02 0.39 0 0.04 0.39 0 0.06 0.39 0 0.08 0.39 0 0.1 0.39 0 0 0.395 0 0.02 0.395 0 0.04 0.395 0 0.06 0.395 0 0.08 0.395 0 0.1 0.395 0 0 0.4 0 0.02 0.4 0 0.04 0.4 0 0.06 0.4 0 0.08 0.4 0 0.1 0.4 0 0 0.405 0 0.02 0.405 0 0.04 0.405 0 0.06 0.405 0 0.08 0.405 0 0.1 0.405 0 0 0.41 0 0.02 0.41 0 0.04 0.41 0 0.06 0.41 0 0.08 0.41 0 0.1 0.41 0 0 0.415 0 0.02 0.415 0 0.04 0.415 0 0.06 0.415 0 0.08 0.415 0 0.1 0.415 0 0 0.42 0 0.02 0.42 0 0.04 0.42 0 0.06 0.42 0 0.08 0.42 0 0.1 0.42 0 0 0.425 0 0.02 0.425 0 0.04 0.425 0 0.06 0.425 0 0.08 0.425 0 0.1 0.425 0 0 0.43 0 0.02 0.43 0 0.04 0.43 0 0.06 0.43 0 0.08 0.43 0 0.1 0.43 0 0 0.435 0 0.02 0.435 0 0.04 0.435 0 0.06 0.435 0 0.08 0.435 0 0.1 0.435 0 0 0.44 0 0.02 0.44 0 0.04 0.44 0 0.06 0.44 0 0.08 0.44 0 0.1 0.44 0 0 0.445 0 0.02 0.445 0 0.04 0.445 0 0.06 0.445 0 0.08 0.445 0 0.1 0.445 0 0 0.45 0 0.02 0.45 0 0.04 0.45 0 0.06 0.45 0 0.08 0.45 0 0.1 0.45 0 0 0.455 0 0.02 0.455 0 0.04 0.455 0 0.06 0.455 0 0.08 0.455 0 0.1 0.455 0 0 0.46 0 0.02 0.46 0 0.04 0.46 0 0.06 0.46 0 0.08 0.46 0 0.1 0.46 0 0 0.465 0 0.02 0.465 0 0.04 0.465 0 0.06 0.465 0 0.08 0.465 0 0.1 0.465 0 0 0.47 0 0.02 0.47 0 0.04 0.47 0 0.06 0.47 0 0.08 0.47 0 0.1 0.47 0 0 0.475 0 0.02 0.475 0 0.04 0.475 0 0.06 0.475 0 0.08 0.475 0 0.1 0.475 0 0 0.48 0 0.02 0.48 0 0.04 0.48 0 0.06 0.48 0 0.08 0.48 0 0.1 0.48 0 0 0.485 0 0.02 0.485 0 0.04 0.485 0 0.06 0.485 0 0.08 0.485 0 0.1 0.485 0 0 0.49 0 0.02 0.49 0 0.04 0.49 0 0.06 0.49 0 0.08 0.49 0 0.1 0.49 0 0 0.495 0 0.02 0.495 0 0.04 0.495 0 0.06 0.495 0 0.08 0.495 0 0.1 0.495 0 0 0.5 0 0.02 0.5 0 0.04 0.5 0 0.06 0.5 0 0.08 0.5 0 0.1 0.5 0 0 0.505 0 0.02 0.505 0 0.04 0.505 0 0.06 0.505 0 0.08 0.505 0 0.1 0.505 0 0 0.51 0 0.02 0.51 0 0.04 0.51 0 0.06 0.51 0 0.08 0.51 0 0.1 0.51 0 0 0.515 0 0.02 0.515 0 0.04 0.515 0 0.06 0.515 0 0.08 0.515 0 0.1 0.515 0 0 0.52 0 0.02 0.52 0 0.04 0.52 0 0.06 0.52 0 0.08 0.52 0 0.1 0.52 0 0 0.525 0 0.02 0.525 0 0.04 0.525 0 0.06 0.525 0 0.08 0.525 0 0.1 0.525 0 0 0.53 0 0.02 0.53 0 0.04 0.53 0 0.06 0.53 0 0.08 0.53 0 0.1 0.53 0 0 0.535 0 0.02 0.535 0 0.04 0.535 0 0.06 0.535 0 0.08 0.535 0 0.1 0.535 0 0 0.54 0 0.02 0.54 0 0.04 0.54 0 0.06 0.54 0 0.08 0.54 0 0.1 0.54 0 0 0.545 0 0.02 0.545 0 0.04 0.545 0 0.06 0.545 0 0.08 0.545 0 0.1 0.545 0 0 0.55 0 0.02 0.55 0 0.04 0.55 0 0.06 0.55 0 0.08 0.55 0 0.1 0.55 0 0 0.555 0 0.02 0.555 0 0.04 0.555 0 0.06 0.555 0 0.08 0.555 0 0.1 0.555 0 0 0.56 0 0.02 0.56 0 0.04 0.56 0 0.06 0.56 0 0.08 0.56 0 0.1 0.56 0 0 0.565 0 0.02 0.565 0 0.04 0.565 0 0.06 0.565 0 0.08 0.565 0 0.1 0.565 0 0 0.57 0 0.02 0.57 0 0.04 0.57 0 0.06 0.57 0 0.08 0.57 0 0.1 0.57 0 0 0.575 0 0.02 0.575 0 0.04 0.575 0 0.06 0.575 0 0.08 0.575 0 0.1 0.575 0 0 0.58 0 0.02 0.58 0 0.04 0.58 0 0.06 0.58 0 0.08 0.58 0 0.1 0.58 0 0 0.585 0 0.02 0.585 0 0.04 0.585 0 0.06 0.585 0 0.08 0.585 0 0.1 0.585 0 0 0.59 0 0.02 0.59 0 0.04 0.59 0 0.06 0.59 0 0.08 0.59 0 0.1 0.59 0 0 0.595 0 0.02 0.595 0 0.04 0.595 0 0.06 0.595 0 0.08 0.595 0 0.1 0.595 0 0 0.6 0 0.02 0.6 0 0.04 0.6 0 0.06 0.6 0 0.08 0.6 0 0.1 0.6 0 0 0.605 0 0.02 0.605 0 0.04 0.605 0 0.06 0.605 0 0.08 0.605 0 0.1 0.605 0 0 0.61 0 0.02 0.61 0 0.04 0.61 0 0.06 0.61 0 0.08 0.61 0 0.1 0.61 0 0 0.615 0 0.02 0.615 0 0.04 0.615 0 0.06 0.615 0 0.08 0.615 0 0.1 0.615 0 0 0.62 0 0.02 0.62 0 0.04 0.62 0 0.06 0.62 0 0.08 0.62 0 0.1 0.62 0 0 0.625 0 0.02 0.625 0 0.04 0.625 0 0.06 0.625 0 0.08 0.625 0 0.1 0.625 0 0 0.63 0 0.02 0.63 0 0.04 0.63 0 0.06 0.63 0 0.08 0.63 0 0.1 0.63 0 0 0.635 0 0.02 0.635 0 0.04 0.635 0 0.06 0.635 0 0.08 0.635 0 0.1 0.635 0 0 0.64 0 0.02 0.64 0 0.04 0.64 0 0.06 0.64 0 0.08 0.64 0 0.1 0.64 0 0 0.645 0 0.02 0.645 0 0.04 0.645 0 0.06 0.645 0 0.08 0.645 0 0.1 0.645 0 0 0.65 0 0.02 0.65 0 0.04 0.65 0 0.06 0.65 0 0.08 0.65 0 0.1 0.65 0 0 0.655 0 0.02 0.655 0 0.04 0.655 0 0.06 0.655 0 0.08 0.655 0 0.1 0.655 0 0 0.66 0 0.02 0.66 0 0.04 0.66 0 0.06 0.66 0 0.08 0.66 0 0.1 0.66 0 0 0.665 0 0.02 0.665 0 0.04 0.665 0 0.06 0.665 0 0.08 0.665 0 0.1 0.665 0 0 0.67 0 0.02 0.67 0 0.04 0.67 0 0.06 0.67 0 0.08 0.67 0 0.1 0.67 0 0 0.675 0 0.02 0.675 0 0.04 0.675 0 0.06 0.675 0 0.08 0.675 0 0.1 0.675 0 0 0.68 0 0.02 0.68 0 0.04 0.68 0 0.06 0.68 0 0.08 0.68 0 0.1 0.68 0 0 0.685 0 0.02 0.685 0 0.04 0.685 0 0.06 0.685 0 0.08 0.685 0 0.1 0.685 0 0 0.69 0 0.02 0.69 0 0.04 0.69 0 0.06 0.69 0 0.08 0.69 0 0.1 
[...]
			<PointData Scalars="VitesseX">
				<DataArray Name="VitesseX" type="Float32" format="ascii">
 0 7.9656e-15 -8.33653e-15 -2.05854e-14 -1.01015e-14 0 0 4.75444e-15 -5.49711e-15 -2.2872e-14 -1.06364e-14 0 0 1.67347e-15 -8.66381e-15 -1.63915e-14 -1.98121e-14 0 0 -6.74693e-15 -5.84561e-15 -1.56088e-14 -2.56057e-14 0 0 -1.19651e-14 -5.25956e-15 -1.89256e-14 -2.60167e-14 0 0 -4.73219e-15 -2.52454e-14 -6.1585e-15 -3.35839e-14 0 0 -1.0811e-14 -2.17114e-14 -1.82474e-14 -2.48087e-14 0 0 -7.66819e-15 -3.25614e-14 -1.55184e-14 -2.71113e-14 0 0 -3.53303e-15 -4.89773e-14 -5.16907e-15 -2.86381e-14 0 0 -7.8839e-15 -5.00476e-14 -1.51657e-14 -1.05926e-14 0 0 -2.15665e-14 -3.79839e-14 -2.87613e-14 -1.67371e-15 0 0 -4.10062e-14 -1.49969e-14 -3.69893e-14 -8.71393e-15 0 0 -3.96526e-14 -2.40193e-14 -8.50548e-15 -3.37452e-14 0 0 -3.02798e-14 -4.3456e-14 1.11546e-14 -3.08265e-14 0 0 -2.53478e-14 -5.36826e-14 1.48059e-14 -1.52893e-14 0 0 -2.21252e-14 -4.92728e-14 1.30086e-14 -8.09225e-15 0 0 5.42988e-15 -6.50926e-14 2.57762e-14 -1.3072e-14 0 0 5.1037e-15 -5.14292e-14 1.44587e-14 -6.11559e-15 0 0 -3.48435e-14 1.87119e-14 -4.13639e-14 2.14593e-14 0 0 -3.15343e-14 1.83855e-14 -1.32759e-14 -2.01572e-14 0 0 9.37443e-15 -4.06562e-14 4.38946e-14 -7.12921e-14 0 0 2.48779e-14 -5.09751e-14 2.67194e-14 -6.95648e-14 0 0 2.39224e-14 -4.33177e-14 -2.39436e-14 -3.05016e-14 0 0 8.1956e-15 -1.4424e-14 -9.81956e-14 3.19735e-14 0 0 -2.65755e-14 5.98302e-15 -1.15562e-13 3.70953e-14 0 0 -4.32066e-14 -1.7008e-14 -7.09744e-14 4.82599e-15 0 0 4.05692e-15 -9.2403e-14 -1.53189e-14 -1.74767e-14 0 0 1.71967e-14 -1.04152e-13 -1.28796e-14 -2.56502e-14 0 0 -5.00187e-14 -6.46786e-15 -5.67177e-14 -6.33328e-14 0 0 -9.32835e-14 6.43031e-14 -1.06965e-13 -6.4304e-14 0 0 -8.47137e-14 5.85866e-14 -1.23547e-13 -4.68674e-14 0 0 -5.72837e-14 1.14544e-14 -6.98469e-14 -8.60367e-14 0 0 -4.16587e-14 -2.68763e-14 -6.61351e-15 -1.22291e-13 0 0 -9.75189e-15 -7.47492e-14 1.80067e-14 -1.17846e-13 0 0 -5.0418e-14 -1.82496e-14 -7.18003e-14 -3.28797e-14 0 0 -9.8606e-14 3.11943e-14 -1.07211e-13 -1.56919e-15 0 0 -3.06016e-14 -8.8936e-14 3.0569e-14 -1.00152e-13 0 0 -4.86411e-14 -6.77568e-14 1.45025e-14 -1.22366e-13 0 0 -8.01517e-14 -4.51562e-15 -6.80994e-14 -5.68024e-14 0 0 -8.72784e-14 1.23546e-14 -9.66301e-14 9.43886e-15 0 0 -1.40755e-13 6.90516e-14 -1.22849e-13 3.40488e-14 0 0 -8.98764e-14 -1.06285e-14 -1.63289e-14 -5.05368e-14 0 0 -6.06359e-14 -5.004e-14 3.35946e-14 -1.05577e-13 0 0 -9.11818e-14 -1.06853e-14 -2.61567e-14 -4.82169e-14 0 0 -9.67518e-14 -2.04975e-14 -1.61301e-14 -9.49835e-15 0 0 -1.02562e-13 -2.04582e-14 -3.72867e-14 4.27518e-14 0 0 -1.56721e-13 7.54634e-14 -1.13639e-13 8.60204e-14 0 0 -8.7056e-14 1.35122e-14 -2.94888e-14 2.0057e-14 0 0 -9.61683e-15 -1.0656e-13 8.66575e-14 -5.71755e-14 0 0 2.82168e-14 -2.03846e-13 1.73555e-13 -1.29759e-13 0 0 4.94334e-14 -2.79499e-13 2.35898e-13 -1.57272e-13 0 0 -6.94946e-15 -1.9616e-13 1.37516e-13 -1.29697e-13 0 0 -6.89264e-14 -5.44635e-14 -9.73052e-14 -2.69012e-14 0 0 -1.2446e-13 -4.01127e-14 -7.82588e-14 -1.00902e-13 0 0 -1.38848e-13 -6.52476e-14 -1.47525e-14 -2.00648e-13 0 0 -1.3448e-13 -1.07712e-13 4.3548e-14 -1.80005e-13 0 0 -5.19058e-14 -2.42351e-13 1.08197e-13 -9.78179e-14 0 0 -1.62541e-13 -8.61386e-14 -1.59807e-13 6.13722e-14 0 0 -2.28054e-13 -7.70257e-14 -1.59007e-13 -5.72574e-14 0 0 -1.72441e-13 -2.18836e-13 -3.18438e-16 -2.35014e-13 0 0 -1.20622e-13 -1.98572e-13 -1.18268e-13 -1.60965e-13 0 0 -6.98116e-14 -1.53619e-13 -2.23216e-13 -5.25025e-14 0 0 -1.35918e-13 -9.53181e-14 -1.77589e-13 -1.13839e-13 0 0 -1.30531e-13 -2.0942e-13 4.03038e-14 -2.92328e-13 0 0 -2.15021e-13 -2.6066e-13 1.71258e-13 -3.60833e-13 0 0 -3.4552e-13 -1.03941e-13 -4.70558e-15 -2.55081e-13 0 0 -3.54198e-13 -5.60595e-14 -3.69125e-14 -2.78583e-13 0 0 -3.39094e-13 -7.0171e-14 -4.20225e-15 -3.37353e-13 0 0 -3.2968e-13 -7.53931e-14 -4.02141e-14 -3.13059e-13 0 0 -1.91144e-13 -2.00715e-13 -2.91545e-14 -2.8281e-13 0 0 -1.21971e-13 -2.89735e-13 -5.42262e-15 -3.38068e-13 0 0 -1.6249e-13 -2.99335e-13 -3.04128e-14 -3.78463e-13 0 0 -2.14165e-13 -3.07369e-13 -5.71508e-14 -3.28182e-13 0 0 -2.21316e-13 -3.40662e-13 -5.84079e-14 -2.87168e-13 0 0 -2.31289e-13 -4.07959e-13 -7.13971e-14 -2.13564e-13 0 0 -2.35914e-13 -4.11982e-13 -7.3804e-14 -2.12592e-13 0 0 -2.64191e-13 -4.02432e-13 -4.6739e-14 -2.45818e-13 0 0 -3.2114e-13 -3.5804e-13 2.18069e-14 -2.44815e-13 0 0 -3.80335e-13 -3.24526e-13 9.07795e-14 -1.61152e-13 0 0 -4.29008e-13 -2.93227e-13 1.22212e-13 -7.03329e-14 0 0 -4.27869e-13 -2.92871e-13 1.48298e-13 -7.09899e-14 0 0 -4.10634e-13 -3.53412e-13 2.06909e-13 -1.52428e-13 0 0 -4.06653e-13 -5.53092e-13 1.2686e-13 -3.43135e-13 0 0 -5.59973e-13 -1.04208e-12 -2.36562e-13 -6.65397e-13 0 0 -1.24426e-12 -2.33758e-12 -1.49103e-12 -1.47379e-12 0 0 -3.50946e-12 -6.08269e-12 -5.34546e-12 -3.79138e-12 0 0 -1.02394e-11 -1.69529e-11 -1.64564e-11 -1.05256e-11 0 0 -2.912e-11 -4.74611e-11 -4.72701e-11 -2.94393e-11 0 0 -7.98953e-11 -1.29698e-10 -1.2988e-10 -8.04478e-11 0 0 -2.11338e-10 -3.42854e-10 -3.43731e-10 -2.12815e-10 0 0 -5.39243e-10 -8.75045e-10 -8.77861e-10 -5.43865e-10 0 0 -1.32806e-09 -2.15637e-09 -2.16519e-09 -1.34255e-09 0 0 -3.15913e-09 -5.13387e-09 -5.16071e-09 -3.20305e-09 0 0 -7.26357e-09 -1.1817e-08 -1.18955e-08 -7.39145e-09 0 0 -1.61539e-08 -2.63167e-08 -2.65371e-08 -1.65116e-08 0 0 -3.4773e-08 -5.6745e-08 -5.73386e-08 -3.57345e-08 0 0 -7.24914e-08 -1.18533e-07 -1.20078e-07 -7.49754e-08 0 0 -1.4866e-07 -2.43775e-07 -2.4623e-07 -1.54451e-07 0 0 -2.88654e-07 -4.70315e-07 -4.79986e-07 -3.00846e-07 0 0 -5.48835e-07 -9.39689e-07 -9.59603e-07 -6.02925e-07 0 0 -1.0665e-06 -1.67044e-06 -1.7011e-06 -1.07504e-06 0 0 -1.78545e-06 -3.04829e-06 -3.25453e-06 -2.05851e-06 0 0 -3.29504e-06 -5.46113e-06 -5.50344e-06 -3.48894e-06 0 0 -5.34546e-06 -8.78681e-06 -8.9756e-06 -5.72625e-06 0 0 -8.40753e-06 -1.43114e-05 -1.55688e-05 -9.95524e-06 0 0 -1.33341e-05 -2.24878e-05 -2.31951e-05 -1.4851e-05 0 0 -1.95438e-05 -3.25028e-05 -3.35668e-05 -2.1409e-05 0 0 -2.5923e-05 -4.35584e-05 -4.57128e-05 -2.92527e-05 0 0 -3.35868e-05 -5.63483e-05 -5.87951e-05 -3.74914e-05 0 0 -4.15402e-05 -6.90588e-05 -7.13998e-05 -4.52878e-05 0 0 -4.92291e-05 -8.10741e-05 -8.28263e-05 -5.21117e-05 0 0 -5.63949e-05 -9.19348e-05 -9.27282e-05 -5.77368e-05 0 0 -6.28945e-05 -0.000101325 -0.000100776 -6.19754e-05 0 0 -6.87845e-05 -0.000109175 -0.000106671 -6.57688e-05 0 0 -7.42349e-05 -0.000115577 -0.000110524 -6.563e-05 0 0 -7.94356e-05 -0.000120848 -0.000111967 -6.45688e-05 0 0 -8.49531e-05 -0.000125313 -0.00011155 -6.19844e-05 0 0 -9.07163e-05 -0.00013123 -0.000111866 -5.95256e-05 0 0 -9.67133e-05 -0.000138197 -0.000113868 -5.75676e-05 0 0 -0.000108457 -0.000148523 -0.000119099 -5.80806e-05 0 0 -0.000124774 -0.000171895 -0.000130346 -5.9854e-05 0 0 -0.000140705 -0.000195922 -0.000147294 -6.32103e-05 0 0 -0.000161671 -0.000232615 -0.000173012 -7.0638e-05 0 0 -0.000192696 -0.00027911 -0.000208389 -7.71066e-05 0 0 -0.000233249 -0.000331415 -0.000246418 -7.63821e-05 0 0 -0.000282456 -0.000406448 -0.000282518 -6.85335e-05 0 0 -0.000337856 -0.000494681 -0.000311931 -5.33022e-05 0 0 -0.0003969 -0.000600038 -0.000362649 -4.98017e-05 0 0 -0.000456774 -0.000765461 -0.000492787 -5.29834e-05 0 0 -0.000524998 -0.000991884 -0.000792035 -3.20805e-05 0 0 -0.000604315 -0.00123623 -0.00107406 -3.54291e-06 0 0 -0.000634801 -0.00131201 -0.0011257 -1.52451e-05 0 0 -0.000627486 -0.001279 -0.00108021 -4.36032e-05 0 0 -0.00059233 -0.00115592 -0.000853766 -0.00010698 0 0 -0.000472636 -0.000877517 -0.000625569 -0.000170124 0 0 -0.000348535 -0.000665097 -0.000644132 -0.00023741 0 0 -0.00010191 -0.000375318 -0.000596549 -0.000598358 0 0 0.000353507 0.000586503 -3.25387e-05 -0.000946356 0 0 0.000560537 0.00133555 0.00100821 -0.000476553 0 0 0.000555736 0.00131522 0.00131381 0.000500339 0 0 0.000517916 0.00120849 0.00130642 0.000770101 0 0 0.000474076 0.00105625 0.00123523 0.000756676 0 0 0.000452681 0.000910376 0.0010194 0.000652485 0 0 0.000440623 0.000773396 0.000789114 0.000482819 0 0 0.00040769 0.0006451 0.000599197 0.00034347 0 0 0.00034098 0.000527909 0.000467142 0.000255458 0 0 0.000274753 0.000425974 0.000383695 0.000212414 0 0 0.000215575 0.00033979 0.000325312 0.000190141 0 0 0.000165871 0.000266341 0.000271506 0.000166831 0 0 0.000126725 0.000206011 0.000216946 0.000136388 0 0 0.000102437 0.00016494 0.000170779 0.000107673 0 0 9.48251e-05 0.00015047 0.000151329 9.36044e-05 0 0 9.31089e-05 0.000147812 0.000146897 9.06774e-05 0 0 9.26519e-05 0.000147603 0.000145182 8.92403e-05 0 0 9.28184e-05 0.000148405 0.000144991 8.8628e-05 0 0 9.39193e-05 0.000150393 0.00014665 8.91027e-05 0 0 9.54596e-05 0.000152919 0.000150271 9.13467e-05 0 0 9.60514e-05 0.00015434 0.000152755 9.35002e-05 0 0 9.46961e-05 0.000152684 0.00015185 9.33331e-05 0 0 8.9635e-05 0.000145134 0.000145233 8.97713e-05 0 0 8.14768e-05 0.000132083 0.000132322 8.18745e-05 0 0 7.05187e-05 0.000114471 0.000114878 7.11777e-05 0 0 5.71862e-05 9.29039e-05 9.33384e-05 5.78891e-05 0 0 4.26822e-05 6.93626e-05 6.97207e-05 4.32618e-05 0 0 2.86395e-05 4.65385e-05 4.67789e-05 2.90287e-05 0 0 1.68966e-05 2.74439e-05 2.7572e-05 1.71038e-05 0 0 8.55976e-06 1.38936e-05 1.39473e-05 8.64661e-06 0 0 3.68818e-06 5.98194e-06 5.99965e-06 3.71683e-06 0 0 1.38268e-06 2.24113e-06 2.24597e-06 1.3905e-06 0 0 4.70214e-07 7.61755e-07 7.62907e-07 4.72078e-07 0 0 1.51331e-07 2.45066e-07 2.45322e-07 1.51745e-07 0 0 4.72384e-08 7.64772e-08 7.65319e-08 4.73265e-08 0 0 1.44671e-08 2.34175e-08 2.34288e-08 1.44856e-08 0 0 4.36798e-09 7.06966e-09 7.0718e-09 4.37218e-09 0 0 1.30262e-09 2.10825e-09 2.10866e-09 1.30376e-09 0 0 3.83878e-10 6.2147e-10 6.21489e-10 3.84342e-10 0 0 1.11773e-10 1.81026e-10 1.81045e-10 1.12034e-10 0 0 3.20551e-11 5.20409e-11 5.20351e-11 3.22147e-11 0 0 9.00658e-12 1.46539e-11 1.4692e-11 9.00692e-12 0 0 2.39066e-12 4.00784e-12 4.01049e-12 2.32702e-12 0 0 5.0331e-13 1.04846e-12 9.98361e-13 3.62654e-13 0 0 7.65385e-14 1.36942e-13 1.35867e-13 -1.06591e-13 0 0 2.45198e-14 -1.71918e-13 -2.98499e-14 -2.85139e-13 0 0 -7.79679e-14 -1.48216e-13 2.76864e-15 -4.84216e-13 0 0 -1.45997e-13 -8.49964e-14 -5.98373e-14 -4.18441e-13 0 0 -4.57148e-15 -3.08262e-13 4.86002e-14 -3.39978e-13 0 0 -5.63056e-15 -2.57216e-13 -4.59316e-14 -1.90119e-13 0 0 -8.73889e-14 -6.85481e-14 -2.83552e-13 2.00079e-14 0 0 -6.72056e-14 -1.65441e-13 -9.52541e-14 -1.92844e-13 0 0 -7.83716e-14 -1.54033e-13 -6.16795e-14 -2.88783e-13 0 0 -1.79989e-13 1.97733e-14 -1.78379e-13 -3.85595e-13 0 0 -1.35284e-13 -2.23452e-13 1.32304e-13 -6.35656e-13 0 0 -2.16505e-14 -4.05339e-13 1.1666e-13 -4.26093e-13 0 0 -1.24267e-13 -1.87656e-13 -4.43487e-14 -4.0157e-13 0 0 -1.51693e-13 -2.13478e-13 -4.88332e-14 -2.66887e-13 0 0 -1.92788e-13 3.47594e-15 -5.13211e-13 2.67937e-13 0 0 -3.60849e-14 -8.23852e-14 -4.66814e-13 3.00237e-13 0 0 3.21552e-13 -7.58215e-13 2.66031e-13 -1.16924e-13 0 0 1.08821e-13 -4.77925e-13 1.45066e-13 -1.74715e-13 0 0 -2.92216e-13 2.34511e-13 -4.36043e-13 5.71934e-14 0 0 -3.77678e-13 3.90172e-13 -5.54678e-13 1.08359e-13 0
				</DataArray>
				<DataArray Name="VitesseY" type="Float32" format="ascii">