<?xml version="1.0"?>
<VTKFile type="PolyData">
	<PolyData>
		<Piece NumberOfPoints="1206" NumberOfPolys="1000">
			<Points>
				<DataArray type="Float32" NumberOfComponents="3" format="ascii">
 0 0 0 0.02 0 0 0.04 0 0 0.06 0 0 0.08 0 0 0.1 0 0 0 0.005 0 0.02 0.005 0 0.04 0.005 0 0.06 0.005 0 0.08 0.005 0 0.1 0.005 0 0 0.01 0 0.02 0.01 0 0.04 0.01 0 0.06 0.01 0 0.08 0.01 0 0.1 0.01 0 0 0.015 0 0.02 0.015 0 0.04 0.015 0 0.06 0.015 0 0.08 0.015 0 0.1 0.015 0 0 0.02 0 0.02 0.02 0 0.04 0.02 0 0.06 0.02 0 0.08 0.02 0 0.1 0.02 0 0 0.025 0 0.02 0.025 0 0.04 0.025 0 0.06 0.025 0 0.08 0.025 0 0.1 0.025 0 0 0.03 0 0.02 0.03 0 0.04 0.03 0 0.06 0.03 0 0.08 0.03 0 0.1 0.03 0 0 0.035 0 0.02 0.035 0 0.04 0.035 0 0.06 0.035 0 0.08 0.035 0 0.1 0.035 0 0 0.04 0 0.02 0.04 0 0.04 0.04 0 0.06 0.04 0 0.08 0.04 0 0.1 0.04 0 0 0.045 0 0.02 0.045 0 0.04 0.045 0 0.06 0.045 0 0.08 0.045 0 0.1 0.045 0 0 0.05 0 0.02 0.05 0 0.04 0.05 0 0.06 0.05 0 0.08 0.05 0 0.1 0.05 0 0 0.055 0 0.02 0.055 0 0.04 0.055 0 0.06 0.055 0 0.08 0.055 0 0.1 0.055 0 0 0.06 0 0.02 0.06 0 0.04 0.06 0 0.06 0.06 0 0.08 0.06 0 0.1 0.06 0 0 0.065 0 0.02 0.065 0 0.04 0.065 0 0.06 0.065 0 0.08 0.065 0 0.1 0.065 0 0 0.07 0 0.02 0.07 0 0.04 0.07 0 0.06 0.07 0 0.08 0.07 0 0.1 0.07 0 0 0.075 0 0.02 0.075 0 0.04 0.075 0 0.06 0.075 0 0.08 0.075 0 0.1 0.075 0 0 0.08 0 0.02 0.08 0 0.04 0.08 0 0.06 0.08 0 0.08 0.08 0 0.1 0.08 0 0 0.085 0 0.02 0.085 0 0.04 0.085 0 0.06 0.085 0 0.08 0.085 0 0.1 0.085 0 0 0.09 0 0.02 0.09 0 0.04 0.09 0 0.06 0.09 0 0.08 0.09 0 0.1 0.09 0 0 0.095 0 0.02 0.095 0 0.04 0.095 0 0.06 0.095 0 0.08 0.095 0 0.1 0.095 0 0 0.1 0 0.02 0.1 0 0.04 0.1 0 0.06 0.1 0 0.08 0.1 0 0.1 0.1 0 0 0.105 0 0.02 0.105 0 0.04 0.105 0 0.06 0.105 0 0.08 0.105 0 0.1 0.105 0 0 0.11 0 0.02 0.11 0 0.04 0.11 0 0.06 0.11 0 0.08 0.11 0 0.1 0.11 0 0 0.115 0 0.02 0.115 0 0.04 0.115 0 0.06 0.115 0 0.08 0.115 0 0.1 0.115 0 0 0.12 0 0.02 0.12 0 0.04 0.12 0 0.06 0.12 0 0.08 0.12 0 0.1 0.12 0 0 0.125 0 0.02 0.125 0 0.04 0.125 0 0.06 0.125 0 0.08 0.125 0 0.1 0.125 0 0 0.13 0 0.02 0.13 0 0.04 0.13 0 0.06 0.13 0 0.08 0.13 0 0.1 0.13 0 0 0.135 0 0.02 0.135 0 0.04 0.135 0 0.06 0.135 0 0.08 0.135 0 0.1 0.135 0 0 0.14 0 0.02 0.14 0 0.04 0.14 0 0.06 0.14 0 0.08 0.14 0 0.1 0.14 0 0 0.145 0 0.02 0.145 0 0.04 0.145 0 0.06 0.145 0 0.08 0.145 0 0.1 0.145 0 0 0.15 0 0.02 0.15 0 0.04 0.15 0 0.06 0.15 0 0.08 0.15 0 0.1 0.15 0 0 0.155 0 0.02 0.155 0 0.04 0.155 0 0.06 0.155 0 0.08 0.155 0 0.1 0.155 0 0 0.16 0 0.02 0.16 0 0.04 0.16 0 0.06 0.16 0 0.08 0.16 0 0.1 0.16 0 0 0.165 0 0.02 0.165 0 0.04 0.165 0 0.06 0.165 0 0.08 0.165 0 0.1 0.165 0 0 0.17 0 0.02 0.17 0 0.04 0.17 0 0.06 0.17 0 0.08 0.17 0 0.1 0.17 0 0 0.175 0 0.02 0.175 0 0.04 0.175 0 0.06 0.175 0 0.08 0.175 0 0.1 0.175 0 0 0.18 0 0.02 0.18 0 0.04 0.18 0 0.06 0.18 0 0.08 0.18 0 0.1 0.18 0 0 0.185 0 0.02 0.185 0 0.04 0.185 0 0.06 0.185 0 0.08 0.185 0 0.1 0.185 0 0 0.19 0 0.02 0.19 0 0.04 0.19 0 0.06 0.19 0 0.08 0.19 0 0.1 0.19 0 0 0.195 0 0.02 0.195 0 0.04 0.195 0 0.06 0.195 0 0.08 0.195 0 0.1 0.195 0 0 0.2 0 0.02 0.2 0 0.04 0.2 0 0.06 0.2 0 0.08 0.2 0 0.1 0.2 0 0 0.205 0 0.02 0.205 0 0.04 0.205 0 0.06 0.205 0 0.08 0.205 0 0.1 0.205 0 0 0.21 0 0.02 0.21 0 0.04 0.21 0 0.06 0.21 0 0.08 0.21 0 0.1 0.21 0 0 0.215 0 0.02 0.215 0 0.04 0.215 0 0.06 0.215 0 0.08 0.215 0 0.1 0.215 0 0 0.22 0 0.02 0.22 0 0.04 0.22 0 0.06 0.22 0 0.08 0.22 0 0.1 0.22 0 0 0.225 0 0.02 0.225 0 0.04 0.225 0 0.06 0.225 0 0.08 0.225 0 0.1 0.225 0 0 0.23 0 0.02 0.23 0 0.04 0.23 0 0.06 0.23 0 0.08 0.23 0 0.1 0.23 0 0 0.235 0 0.02 0.235 0 0.04 0.235 0 0.06 0.235 0 0.08 0.235 0 0.1 0.235 0 0 0.24 0 0.02 0.24 0 0.04 0.24 0 0.06 0.24 0 0.08 0.24 0 0.1 0.24 0 0 0.245 0 0.02 0.245 0 0.04 0.245 0 0.06 0.245 0 0.08 0.245 0 0.1 0.245 0 0 0.25 0 0.02 0.25 0 0.04 0.25 0 0.06 0.25 0 0.08 0.25 0 0.1 0.25 0 0 0.255 0 0.02 0.255 0 0.04 0.255 0 0.06 0.255 0 0.08 0.255 0 0.1 0.255 0 0 0.26 0 0.02 0.26 0 0.04 0.26 0 0.06 0.26 0 0.08 0.26 0 0.1 0.26 0 0 0.265 0 0.02 0.265 0 0.04 0.265 0 0.06 0.265 0 0.08 0.265 0 0.1 0.265 0 0 0.27 0 0.02 0.27 0 0.04 0.27 0 0.06 0.27 0 0.08 0.27 0 0.1 0.27 0 0 0.275 0 0.02 0.275 0 0.04 0.275 0 0.06 0.275 0 0.08 0.275 0 0.1 0.275 0 0 0.28 0 0.02 0.28 0 0.04 0.28 0 0.06 0.28 0 0.08 0.28 0 0.1 0.28 0 0 0.285 0 0.02 0.285 0 0.04 0.285 0 0.06 0.285 0 0.08 0.285 0 0.1 0.285 0 0 0.29 0 0.02 0.29 0 0.04 0.29 0 0.06 0.29 0 0.08 0.29 0 0.1 0.29 0 0 0.295 0 0.02 0.295 0 0.04 0.295 0 0.06 0.295 0 0.08 0.295 0 0.1 0.295 0 0 0.3 0 0.02 0.3 0 0.04 0.3 0 0.06 0.3 0 0.08 0.3 0 0.1 0.3 0 0 0.305 0 0.02 0.305 0 0.04 0.305 0 0.06 0.305 0 0.08 0.305 0 0.1 0.305 0 0 0.31 0 0.02 0.31 0 0.04 0.31 0 0.06 0.31 0 0.08 0.31 0 0.1 0.31 0 0 0.315 0 0.02 0.315 0 0.04 0.315 0 0.06 0.315 0 0.08 0.315 0 0.1 0.315 0 0 0.32 0 0.02 0.32 0 0.04 0.32 0 0.06 0.32 0 0.08 0.32 0 0.1 0.32 0 0 0.325 0 0.02 0.325 0 0.04 0.325 0 0.06 0.325 0 0.08 0.325 0 0.1 0.325 0 0 0.33 0 0.02 0.33 0 0.04 0.33 0 0.06 0.33 0 0.08 0.33 0 0.1 0.33 0 0 0.335 0 0.02 0.335 0 0.04 0.335 0 0.06 0.335 0 0.08 0.335 0 0.1 0.335 0 0 0.34 0 0.02 0.34 0 0.04 0.34 0 0.06 0.34 0 0.08 0.34 0 0.1 0.34 0 0 0.345 0 0.02 0.345 0 0.04 0.345 0 0.06 0.345 0 0.08 0.345 0 0.1 0.345 0 0 0.35 0 0.02 0.35 0 0.04 0.35 0 0.06 0.35 0 0.08 0.35 0 0.1 0.35 0 0 0.355 0 0.02 0.355 0 0.04 0.355 0 0.06 0.355 0 0.08 0.355 0 0.1 0.355 0 0 0.36 0 0.02 0.36 0 0.04 0.36 0 0.06 0.36 0 0.08 0.36 0 0.1 0.36 0 0 0.365 0 0.02 0.365 0 0.04 0.365 0 0.06 0.365 0 0.08 0.365 0 0.1 0.365 0 0 0.37 0 0.02 0.37 0 0.04 0.37 0 0.06 0.37 0 0.08 0.37 0 0.1 0.37 0 0 0.375 0 0.02 0.375 0 0.04 0.375 0 0.06 0.375 0 0.08 0.375 0 0.1 0.375 0 0 0.38 0 0.02 0.38 0 0.04 0.38 0 0.06 0.38 0 0.08 0.38 0 0.1 0.38 0 0 0.385 0 0.02 0.385 0 0.04 0.385 0 0.06 0.385 0 0.08 0.385 0 0.1 0.385 0 0 0.39 0 0.02 0.39 0 0.04 0.39 0 0.06 0.39 0 0.08 0.39 0 0.1 0.39 0 0 0.395 0 0.02 0.395 0 0.04 0.395 0 0.06 0.395 0 0.08 0.395 0 0.1 0.395 0 0 0.4 0 0.02 0.4 0 0.04 0.4 0 0.06 0.4 0 0.08 0.4 0 0.1 0.4 0 0 0.405 0 0.02 0.405 0 0.04 0.405 0 0.06 0.405 0 0.08 0.405 0 0.1 0.405 0 0 0.41 0 0.02 0.41 0 0.04 0.41 0 0.06 0.41 0 0.08 0.41 0 0.1 0.41 0 0 0.415 0 0.02 0.415 0 0.04 0.415 0 0.06 0.415 0 0.08 0.415 0 0.1 0.415 0 0 0.42 0 0.02 0.42 0 0.04 0.42 0 0.06 0.42 0 0.08 0.42 0 0.1 0.42 0 0 0.425 0 0.02 0.425 0 0.04 0.425 0 0.06 0.425 0 0.08 0.425 0 0.1 0.425 0 0 0.43 0 0.02 0.43 0 0.04 0.43 0 0.06 0.43 0 0.08 0.43 0 0.1 0.43 0 0 0.435 0 0.02 0.435 0 0.04 0.435 0 0.06 0.435 0 0.08 0.435 0 0.1 0.435 0 0 0.44 0 0.02 0.44 0 0.04 0.44 0 0.06 0.44 0 0.08 0.44 0 0.1 0.44 0 0 0.445 0 0.02 0.445 0 0.04 0.445 0 0.06 0.445 0 0.08 0.445 0 0.1 0.445 0 0 0.45 0 0.02 0.45 0 0.04 0.45 0 0.06 0.45 0 0.08 0.45 0 0.1 0.45 0 0 0.455 0 0.02 0.455 0 0.04 0.455 0 0.06 0.455 0 0.08 0.455 0 0.1 0.455 0 0 0.46 0 0.02 0.46 0 0.04 0.46 0 0.06 0.46 0 0.08 0.46 0 0.1 0.46 0 0 0.465 0 0.02 0.465 0 0.04 0.465 0 0.06 0.465 0 0.08 0.465 0 0.1 0.465 0 0 0.47 0 0.02 0.47 0 0.04 0.47 0 0.06 0.47 0 0.08 0.47 0 0.1 0.47 0 0 0.475 0 0.02 0.475 0 0.04 0.475 0 0.06 0.475 0 0.08 0.475 0 0.1 0.475 0 0 0.48 0 0.02 0.48 0 0.04 0.48 0 0.06 0.48 0 0.08 0.48 0 0.1 0.48 0 0 0.485 0 0.02 0.485 0 0.04 0.485 0 0.06 0.485 0 0.08 0.485 0 0.1 0.485 0 0 0.49 0 0.02 0.49 0 0.04 0.49 0 0.06 0.49 0 0.08 0.49 0 0.1 0.49 0 0 0.495 0 0.02 0.495 0 0.04 0.495 0 0.06 0.495 0 0.08 0.495 0 0.1 0.495 0 0 0.5 0 0.02 0.5 0 0.04 0.5 0 0.06 0.5 0 0.08 0.5 0 0.1 0.5 0 0 0.505 0 0.02 0.505 0 0.04 0.505 0 0.06 0.505 0 0.08 0.505 0 0.1 0.505 0 0 0.51 0 0.02 0.51 0 0.04 0.51 0 0.06 0.51 0 0.08 0.51 0 0.1 0.51 0 0 0.515 0 0.02 0.515 0 0.04 0.515 0 0.06 0.515 0 0.08 0.515 0 0.1 0.515 0 0 0.52 0 0.02 0.52 0 0.04 0.52 0 0.06 0.52 0 0.08 0.52 0 0.1 0.52 0 0 0.525 0 0.02 0.525 0 0.04 0.525 0 0.06 0.525 0 0.08 0.525 0 0.1 0.525 0 0 0.53 0 0.02 0.53 0 0.04 0.53 0 0.06 0.53 0 0.08 0.53 0 0.1 0.53 0 0 0.535 0 0.02 0.535 0 0.04 0.535 0 0.06 0.535 0 0.08 0.535 0 0.1 0.535 0 0 0.54 0 0.02 0.54 0 0.04 0.54 0 0.06 0.54 0 0.08 0.54 0 0.1 0.54 0 0 0.545 0 0.02 0.545 0 0.04 0.545 0 0.06 0.545 0 0.08 0.545 0 0.1 0.545 0 0 0.55 0 0.02 0.55 0 0.04 0.55 0 0.06 0.55 0 0.08 0.55 0 0.1 0.55 0 0 0.555 0 0.02 0.555 0 0.04 0.555 0 0.06 0.555 0 0.08 0.555 0 0.1 0.555 0 0 0.56 0 0.02 0.56 0 0.04 0.56 0 0.06 0.56 0 0.08 0.56 0 0.1 0.56 0 0 0.565 0 0.02 0.565 0 0.04 0.565 0 0.06 0.565 0 0.08 0.565 0 0.1 0.565 0 0 0.57 0 0.02 0.57 0 0.04 0.57 0 0.06 0.57 0 0.08 0.57 0 0.1 0.57 0 0 0.575 0 0.02 0.575 0 0.04 0.575 0 0.06 0.575 0 0.08 0.575 0 0.1 0.575 0 0 0.58 0 0.02 0.58 0 0.04 0.58 0 0.06 0.58 0 0.08 0.58 0 0.1 0.58 0 0 0.585 0 0.02 0.585 0 0.04 0.585 0 0.06 0.585 0 0.08 0.585 0 0.1 0.585 0 0 0.59 0 0.02 0.59 0 0.04 0.59 0 0.06 0.59 0 0.08 0.59 0 0.1 0.59 0 0 0.595 0 0.02 0.595 0 0.04 0.595 0 0.06 0.595 0 0.08 0.595 0 0.1 0.595 0 0 0.6 0 0.02 0.6 0 0.04 0.6 0 0.06 0.6 0 0.08 0.6 0 0.1 0.6 0 0 0.605 0 0.02 0.605 0 0.04 0.605 0 0.06 0.605 0 0.08 0.605 0 0.1 0.605 0 0 0.61 0 0.02 0.61 0 0.04 0.61 0 0.06 0.61 0 0.08 0.61 0 0.1 0.61 0 0 0.615 0 0.02 0.615 0 0.04 0.615 0 0.06 0.615 0 0.08 0.615 0 0.1 0.615 0 0 0.62 0 0.02 0.62 0 0.04 0.62 0 0.06 0.62 0 0.08 0.62 0 0.1 0.62 0 0 0.625 0 0.02 0.625 0 0.04 0.625 0 0.06 0.625 0 0.08 0.625 0 0.1 0.625 0 0 0.63 0 0.02 0.63 0 0.04 0.63 0 0.06 0.63 0 0.08 0.63 0 0.1 0.63 0 0 0.635 0 0.02 0.635 0 0.04 0.635 0 0.06 0.635 0 0.08 0.635 0 0.1 0.635 0 0 0.64 0 0.02 0.64 0 0.04 0.64 0 0.06 0.64 0 0.08 0.64 0 0.1 0.64 0 0 0.645 0 0.02 0.645 0 0.04 0.645 0 0.06 0.645 0 0.08 0.645 0 0.1 0.645 0 0 0.65 0 0.02 0.65 0 0.04 0.65 0 0.06 0.65 0 0.08 0.65 0 0.1 0.65 0 0 0.655 0 0.02 0.655 0 0.04 0.655 0 0.06 0.655 0 0.08 0.655 0 0.1 0.655 0 0 0.66 0 0.02 0.66 0 0.04 0.66 0 0.06 0.66 0 0.08 0.66 0 0.1 0.66 0 0 0.665 0 0.02 0.665 0 0.04 0.665 0 0.06 0.665 0 0.08 0.665 0 0.1 0.665 0 0 0.67 0 0.02 0.67 0 0.04 0.67 0 0.06 0.67 0 0.08 0.67 0 0.1 0.67 0 0 0.675 0 0.02 0.675 0 0.04 0.675 0 0.06 0.675 0 0.08 0.675 0 0.1 0.675 0 0 0.68 0 0.02 0.68 0 0.04 0.68 0 0.06 0.68 0 0.08 0.68 0 0.1 0.68 0 0 0.685 0 0.02 0.685 0 0.04 0.685 0 0.06 0.685 0 0.08 0.685 0 0.1 0.685 0 0 0.69 0 0.02 0.69 0 0.04 0.69 0 0.06 0.69 0 0.08 0.69 0 0.1 
[...]
			<PointData Scalars="VitesseX">
				<DataArray Name="VitesseX" type="Float32" format="ascii">
 0 -6.08465e-15 -1.13013e-14 -2.13474e-14 -1.36635e-14 0 0 -7.32958e-15 -1.21466e-14 -1.96717e-14 -1.51924e-14 0 0 -7.24976e-15 -1.76617e-14 -1.54801e-14 -1.68094e-14 0 0 -9.43042e-15 -1.8503e-14 -2.00728e-14 -1.11318e-14 0 0 -1.05188e-14 -2.35581e-14 -1.9649e-14 -1.14616e-14 0 0 -1.24567e-14 -3.0686e-14 -1.20817e-14 -1.93894e-14 0 0 -2.46428e-14 -2.27528e-14 -2.0544e-14 -1.65314e-14 0 0 -2.93964e-14 -2.93598e-14 -1.42242e-14 -2.07283e-14 0 0 -2.36262e-14 -4.46638e-14 -1.64311e-15 -2.22189e-14 0 0 -3.53604e-14 -2.74371e-14 -1.55334e-14 -2.91027e-15 0 0 -4.90699e-14 -3.94796e-15 -3.19929e-14 1.36668e-14 0 0 -4.05079e-14 -1.41487e-14 -1.48665e-14 6.9081e-15 0 0 -2.2403e-14 -4.36698e-14 3.14401e-14 -2.08811e-14 0 0 -3.31176e-14 -1.58055e-14 1.44485e-14 -1.44314e-14 0 0 -4.35484e-14 2.07747e-14 -3.19291e-14 1.71158e-14 0 0 3.27089e-16 -3.79987e-14 1.38074e-14 -1.50474e-14 0 0 -3.3672e-15 -2.29232e-14 -1.66846e-14 1.64846e-15 0 0 -2.14697e-15 -2.7861e-14 -6.0692e-15 -8.50343e-15 0 0 -2.25344e-14 -1.35633e-14 -2.93986e-15 -1.38776e-14 0 0 -5.97949e-14 3.74339e-14 -5.86356e-14 1.91235e-14 0 0 -2.83526e-15 -5.65772e-14 4.14582e-14 -6.14853e-14 0 0 1.03967e-14 -6.19128e-14 2.89856e-14 -6.49658e-14 0 0 1.93345e-14 -6.10742e-14 -4.70573e-15 -4.01829e-14 0 0 -2.09807e-15 -4.01808e-14 -2.17831e-14 -4.16596e-14 0 0 -4.82923e-14 3.7572e-14 -1.16177e-13 9.79843e-15 0 0 1.29021e-15 -3.39093e-14 -7.79864e-14 5.31331e-15 0 0 2.89096e-14 -9.26032e-14 -1.20135e-14 -4.3732e-14 0 0 3.0961e-15 -6.13535e-14 -2.85451e-14 -5.21363e-14 0 0 -1.00257e-14 -3.81889e-14 -4.96566e-14 -4.27909e-14 0 0 -4.69974e-14 2.62927e-14 -1.06168e-13 -1.486e-14 0 0 -6.49343e-14 7.00127e-14 -1.67745e-13 3.21556e-14 0 0 -3.59221e-14 2.66013e-14 -1.31414e-13 2.64272e-15 0 0 -2.00739e-14 -1.83601e-14 -6.79934e-14 -4.26406e-14 0 0 -3.53014e-14 -3.83839e-14 -8.36736e-15 -7.57771e-14 0 0 -5.64763e-14 -7.3775e-15 -2.6518e-14 -6.3812e-14 0 0 -3.04498e-14 -2.65829e-14 -3.89621e-14 -2.64113e-14 0 0 -4.34293e-15 -8.25205e-14 4.8669e-15 -1.99617e-14 0 0 -3.23419e-14 -4.57463e-14 -3.19788e-14 3.13881e-14 0 0 -7.62398e-14 -1.13241e-15 -4.20144e-14 2.69246e-15 0 0 -1.15525e-13 4.58384e-14 -4.72938e-14 -5.51564e-14 0 0 -6.91039e-14 -7.98127e-15 -2.93724e-15 -8.66008e-14 0 0 -2.05832e-14 -8.70722e-14 5.20636e-14 -7.03079e-14 0 0 -4.92834e-14 -4.72007e-14 1.86687e-15 1.69441e-14 0 0 -7.75716e-14 -5.28812e-15 -3.67792e-14 5.97436e-14 0 0 -6.05266e-14 -1.41291e-14 -3.20393e-14 4.3421e-14 0 0 -3.98549e-14 -3.38455e-14 1.67147e-14 -2.10079e-14 0 0 -5.85574e-14 3.95206e-15 -5.67188e-14 5.05221e-14 0 0 -8.94433e-14 -4.49808e-15 -9.70399e-14 1.1305e-13 0 0 -6.32942e-14 -1.24368e-13 1.15542e-14 6.91416e-14 0 0 2.86401e-15 -2.72521e-13 1.28476e-13 -2.9528e-14 0 0 1.32201e-14 -2.70077e-13 8.92579e-14 -9.65583e-14 0 0 -5.03282e-15 -1.78221e-13 -9.08159e-14 -2.3916e-14 0 0 -3.27423e-14 -1.33475e-13 -1.31159e-13 -4.1401e-14 0 0 1.1792e-13 -3.28541e-13 5.60903e-14 -1.16264e-13 0 0 9.15155e-15 -2.14664e-13 -6.9684e-14 5.96394e-14 0 0 -1.84871e-13 2.0939e-14 -3.57584e-13 2.37062e-13 0 0 -7.4294e-14 -1.98539e-13 -1.31968e-13 -9.32747e-15 0 0 -1.19827e-13 -1.83118e-13 -5.76256e-14 -1.5291e-13 0 0 -1.50461e-13 -1.10517e-13 -8.76001e-14 -1.57436e-13 0 0 -1.01847e-13 -1.19631e-13 -1.41776e-13 -8.0188e-14 0 0 -4.30791e-14 -1.96202e-13 -1.42011e-13 -1.52007e-14 0 0 7.85002e-15 -3.70799e-13 6.15418e-14 -1.33731e-13 0 0 -1.88233e-13 -2.44695e-13 7.22219e-15 -6.18237e-14 0 0 -3.89241e-13 -1.36767e-13 2.0428e-15 -6.65718e-14 0 0 -3.79454e-13 -1.88129e-13 1.03841e-13 -1.6755e-13 0 0 -4.32406e-13 -1.08969e-13 -1.44573e-14 -1.39027e-13 0 0 -3.67025e-13 -1.81242e-13 -4.3993e-14 -1.60307e-13 0 0 -2.00964e-13 -2.69108e-13 -1.19382e-13 -1.3652e-13 0 0 -2.14201e-13 -1.83434e-13 -3.11786e-13 -4.22642e-14 0 0 -2.47117e-13 -1.58669e-13 -3.19343e-13 3.33857e-14 0 0 -2.50897e-13 -2.37362e-13 -2.29889e-13 -1.06986e-15 0 0 -2.62432e-13 -3.51393e-13 -1.01058e-13 -8.66853e-14 0 0 -2.92214e-13 -3.69211e-13 -9.61987e-14 -7.78122e-14 0 0 -3.21241e-13 -3.3277e-13 -1.64617e-13 -3.11749e-14 0 0 -3.33541e-13 -2.89185e-13 -2.77619e-13 4.00023e-14 0 0 -3.41636e-13 -2.40876e-13 -3.90101e-13 8.45674e-14 0 0 -3.3434e-13 -2.43343e-13 -3.85457e-13 3.63358e-14 0 0 -3.11463e-13 -2.85427e-13 -2.89046e-13 -7.69205e-14 0 0 -2.86459e-13 -3.42381e-13 -1.30169e-13 -9.81951e-14 0 0 -2.8886e-13 -3.64076e-13 -3.25202e-14 -7.02771e-14 0 0 -3.15776e-13 -4.05422e-13 -9.22538e-14 4.60047e-15 0 0 -4.09922e-13 -5.61407e-13 -3.04133e-13 -4.52471e-14 0 0 -7.19434e-13 -1.09204e-12 -9.16347e-13 -3.39526e-13 0 0 -1.67168e-12 -2.7312e-12 -2.59558e-12 -1.35059e-12 0 0 -4.43429e-12 -7.38629e-12 -7.20379e-12 -4.2514e-12 0 0 -1.20575e-11 -1.99342e-11 -1.96592e-11 -1.20662e-11 0 0 -3.21794e-11 -5.26471e-11 -5.23375e-11 -3.24074e-11 0 0 -8.32579e-11 -1.35359e-10 -1.35236e-10 -8.37731e-11 0 0 -2.08387e-10 -3.3797e-10 -3.38466e-10 -2.0958e-10 0 0 -5.04844e-10 -8.18466e-10 -8.20513e-10 -5.08121e-10 0 0 -1.18494e-09 -1.92185e-09 -1.92796e-09 -1.19447e-09 0 0 -2.69679e-09 -4.37693e-09 -4.39414e-09 -2.72416e-09 0 0 -5.95539e-09 -9.67389e-09 -9.72121e-09 -6.03155e-09 0 0 -1.27693e-08 -2.07633e-08 -2.08898e-08 -1.29737e-08 0 0 -2.65991e-08 -4.33025e-08 -4.36302e-08 -2.71285e-08 0 0 -5.43044e-08 -8.8811e-08 -8.95257e-08 -5.57006e-08 0 0 -1.07198e-07 -1.72834e-07 -1.74841e-07 -1.09033e-07 0 0 -2.03624e-07 -3.45486e-07 -3.4966e-07 -2.18313e-07 0 0 -3.99088e-07 -6.22941e-07 -6.31045e-07 -3.95223e-07 0 0 -6.86535e-07 -1.16032e-06 -1.21406e-06 -7.61228e-07 0 0 -1.29128e-06 -2.11358e-06 -2.09301e-06 -1.31303e-06 0 0 -2.12111e-06 -3.43917e-06 -3.51164e-06 -2.22046e-06 0 0 -3.52135e-06 -5.96663e-06 -6.43883e-06 -4.06575e-06 0 0 -5.89906e-06 -9.70845e-06 -9.56013e-06 -6.04737e-06 0 0 -8.89895e-06 -1.46415e-05 -1.51504e-05 -9.58758e-06 0 0 -1.30552e-05 -2.1967e-05 -2.31831e-05 -1.47906e-05 0 0 -1.88619e-05 -3.14198e-05 -3.23301e-05 -2.04548e-05 0 0 -2.46996e-05 -4.07385e-05 -4.17098e-05 -2.63377e-05 0 0 -3.08987e-05 -5.08842e-05 -5.1995e-05 -3.27147e-05 0 0 -3.70604e-05 -6.08436e-05 -6.19348e-05 -3.88049e-05 0 0 -4.29567e-05 -7.0048e-05 -7.07385e-05 -4.40363e-05 0 0 -4.83686e-05 -7.804e-05 -7.77728e-05 -4.79203e-05 0 0 -5.31106e-05 -8.45026e-05 -8.27338e-05 -5.0197e-05 0 0 -5.71155e-05 -8.93989e-05 -8.57085e-05 -5.16525e-05 0 0 -6.04541e-05 -9.29362e-05 -8.74886e-05 -5.11696e-05 0 0 -6.33748e-05 -9.55678e-05 -8.71231e-05 -4.99173e-05 0 0 -6.59619e-05 -9.781e-05 -8.63164e-05 -4.75139e-05 0 0 -7.02034e-05 -0.000100414 -8.58208e-05 -4.528e-05 0 0 -7.50167e-05 -0.000106332 -8.66434e-05 -4.27566e-05 0 0 -7.99041e-05 -0.000112552 -8.94061e-05 -4.27992e-05 0 0 -9.00685e-05 -0.000124416 -9.5796e-05 -4.3715e-05 0 0 -0.000105454 -0.000143594 -0.000107237 -4.58113e-05 0 0 -0.000120985 -0.000164823 -0.000121816 -4.96884e-05 0 0 -0.000139198 -0.000198543 -0.000142751 -5.46854e-05 0 0 -0.00016222 -0.000234792 -0.000168576 -5.88702e-05 0 0 -0.000196079 -0.000274575 -0.000196548 -5.99757e-05 0 0 -0.000238945 -0.00033438 -0.000224739 -5.91354e-05 0 0 -0.00029498 -0.000399087 -0.000250105 -4.76182e-05 0 0 -0.000361125 -0.000470569 -0.000274221 -4.85625e-05 0 0 -0.000428726 -0.000579042 -0.000323577 -6.60444e-05 0 0 -0.000528766 -0.000749094 -0.000453866 -9.22157e-05 0 0 -0.000662478 -0.000975472 -0.000745803 -0.000107188 0 0 -0.000819294 -0.00119661 -0.000913247 -0.000119542 0 0 -0.000900687 -0.00122729 -0.000899042 -0.00015391 0 0 -0.000881589 -0.0011993 -0.00085624 -0.000241076 0 0 -0.000798863 -0.00108096 -0.000694732 -0.000355747 0 0 -0.00059776 -0.000836976 -0.000677763 -0.000454748 0 0 -0.000442856 -0.00065898 -0.000707136 -0.000499203 0 0 -0.000132888 -0.00035261 -0.000640276 -0.000670188 0 0 0.00058027 0.000714126 -7.4243e-05 -0.000921492 0 0 0.00082269 0.00151985 0.000860358 -0.000657049 0 0 0.000803118 0.00150178 0.0012137 0.000164681 0 0 0.000719282 0.0013511 0.00121063 0.000606301 0 0 0.000621255 0.0011447 0.00114912 0.000603773 0 0 0.000547252 0.000959464 0.000954207 0.000554124 0 0 0.000503124 0.000803575 0.000744142 0.00042285 0 0 0.000456273 0.00067658 0.000571497 0.000296803 0 0 0.000395499 0.000573343 0.000455768 0.000202935 0 0 0.00033426 0.000487227 0.000392067 0.000194936 0 0 0.000276086 0.000412482 0.000359085 0.000194046 0 0 0.000223753 0.000344659 0.00032518 0.000186687 0 0 0.000177356 0.000280796 0.000275611 0.000162692 0 0 0.000136773 0.00022095 0.000221738 0.000132918 0 0 0.000104729 0.000169953 0.00017102 0.000104116 0 0 8.59642e-05 0.000137315 0.000135249 8.22273e-05 0 0 7.80926e-05 0.000123908 0.000120275 7.2579e-05 0 0 7.34193e-05 0.000116562 0.000112584 6.7854e-05 0 0 6.95511e-05 0.000110626 0.000106739 6.43319e-05 0 0 6.7714e-05 0.000107252 0.000103653 6.23178e-05 0 0 6.80237e-05 0.000107627 0.00010426 6.2697e-05 0 0 7.00023e-05 0.000111033 0.000108281 6.5435e-05 0 0 7.16751e-05 0.000114363 0.000112316 6.83392e-05 0 0 7.14264e-05 0.00011435 0.000112767 6.88831e-05 0 0 6.84724e-05 0.000110211 0.000109363 6.7108e-05 0 0 6.21901e-05 0.000100299 9.98645e-05 6.14859e-05 0 0 5.36529e-05 8.6669e-05 8.6454e-05 5.3306e-05 0 0 4.30759e-05 6.96815e-05 6.96387e-05 4.30071e-05 0 0 3.15831e-05 5.11384e-05 5.11728e-05 3.1639e-05 0 0 2.06278e-05 3.34189e-05 3.34684e-05 2.07079e-05 0 0 1.17292e-05 1.90047e-05 1.90368e-05 1.17811e-05 0 0 5.69521e-06 9.22682e-06 9.24128e-06 5.71861e-06 0 0 2.36706e-06 3.83399e-06 3.83894e-06 2.37507e-06 0 0 8.7095e-07 1.41036e-06 1.41176e-06 8.73212e-07 0 0 2.96354e-07 4.79794e-07 4.80144e-07 2.9692e-07 0 0 9.66108e-08 1.56386e-07 1.56468e-07 9.67438e-08 0 0 3.07274e-08 4.97332e-08 4.97513e-08 3.07574e-08 0 0 9.61302e-09 1.55575e-08 1.55614e-08 9.61962e-09 0 0 2.96836e-09 4.80347e-09 4.80427e-09 2.9698e-09 0 0 9.05986e-10 1.46572e-09 1.46613e-09 9.06115e-10 0 0 2.7346e-10 4.42173e-10 4.42422e-10 2.73238e-10 0 0 8.15557e-11 1.31951e-10 1.31713e-10 8.15136e-11 0 0 2.40449e-11 3.87367e-11 3.86873e-11 2.39298e-11 0 0 6.91078e-12 1.11553e-11 1.10708e-11 6.80473e-12 0 0 1.88812e-12 3.10421e-12 2.86611e-12 1.87493e-12 0 0 5.11671e-13 6.53998e-13 5.56312e-13 4.61127e-13 0 0 3.48261e-14 3.51468e-14 -8.31412e-14 -7.75393e-15 0 0 -1.25547e-13 -1.29212e-13 -1.49433e-13 -3.34973e-13 0 0 -3.0181e-14 -2.75548e-13 -1.29197e-13 -4.7448e-13 0 0 -3.81979e-14 -2.22843e-13 -2.40368e-13 -4.06886e-13 0 0 -1.50951e-13 -1.17795e-13 -3.10993e-13 -2.90916e-13 0 0 -1.90378e-13 -1.44827e-13 -3.20742e-13 -1.89731e-13 0 0 -1.17628e-13 -3.35766e-13 -2.4278e-13 -1.10481e-13 0 0 -1.11714e-13 -3.58802e-13 -1.72291e-13 -2.28197e-13 0 0 -2.1965e-13 -2.32509e-13 -8.36463e-14 -4.6516e-13 0 0 -1.50655e-13 -3.43955e-13 9.87542e-15 -4.51189e-13 0 0 -2.87049e-13 -6.29794e-14 -5.65791e-13 8.71525e-14 0 0 -3.78285e-13 4.68247e-14 -5.80454e-13 2.49657e-14 0 0 -1.50598e-13 -3.60901e-13 1.10954e-13 -4.93638e-13 0 0 -9.10801e-14 -3.50969e-13 -2.26103e-14 -2.86447e-13 0 0 -3.26365e-13 1.71025e-13 -6.25432e-13 5.6833e-14 0 0 -4.92576e-13 4.83271e-13 -8.93751e-13 1.5853e-13 0
				</DataArray>
				<DataArray Name="VitesseY" type="Float32" format="ascii">