<?xml version="1.0"?>
<VTKFile type="PolyData">
	<PolyData>
		<Piece NumberOfPoints="1206" NumberOfPolys="1000">
			<Points>
				<DataArray type="Float32" NumberOfComponents="3" format="ascii">
 0 0 0 0.02 0 0 0.04 0 0 0.06 0 0 0.08 0 0 0.1 0 0 0 0.005 0 0.02 0.005 0 0.04 0.005 0 0.06 0.005 0 0.08 0.005 0 0.1 0.005 0 0 0.01 0 0.02 0.01 0 0.04 0.01 0 0.06 0.01 0 0.08 0.01 0 0.1 0.01 0 0 0.015 0 0.02 0.015 0 0.04 0.015 0 0.06 0.015 0 0.08 0.015 0 0.1 0.015 0 0 0.02 0 0.02 0.02 0 0.04 0.02 0 0.06 0.02 0 0.08 0.02 0 0.1 0.02 0 0 0.025 0 0.02 0.025 0 0.04 0.025 0 0.06 0.025 0 0.08 0.025 0 0.1 0.025 0 0 0.03 0 0.02 0.03 0 0.04 0.03 0 0.06 0.03 0 0.08 0.03 0 0.1 0.03 0 0 0.035 0 0.02 0.035 0 0.04 0.035 0 0.06 0.035 0 0.08 0.035 0 0.1 0.035 0 0 0.04 0 0.02 0.04 0 0.04 0.04 0 0.06 0.04 0 0.08 0.04 0 0.1 0.04 0 0 0.045 0 0.02 0.045 0 0.04 0.045 0 0.06 0.045 0 0.08 0.045 0 0.1 0.045 0 0 0.05 0 0.02 0.05 0 0.04 0.05 0 0.06 0.05 0 0.08 0.05 0 0.1 0.05 0 0 0.055 0 0.02 0.055 0 0.04 0.055 0 0.06 0.055 0 0.08 0.055 0 0.1 0.055 0 0 0.06 0 0.02 0.06 0 0.04 0.06 0 0.06 0.06 0 0.08 0.06 0 0.1 0.06 0 0 0.065 0 0.02 0.065 0 0.04 0.065 0 0.06 0.065 0 0.08 0.065 0 0.1 0.065 0 0 0.07 0 0.02 0.07 0 0.04 0.07 0 0.06 0.07 0 0.08 0.07 0 0.1 0.07 0 0 0.075 0 0.02 0.075 0 0.04 0.075 0 0.06 0.075 0 0.08 0.075 0 0.1 0.075 0 0 0.08 0 0.02 0.08 0 0.04 0.08 0 0.06 0.08 0 0.08 0.08 0 0.1 0.08 0 0 0.085 0 0.02 0.085 0 0.04 0.085 0 0.06 0.085 0 0.08 0.085 0 0.1 0.085 0 0 0.09 0 0.02 0.09 0 0.04 0.09 0 0.06 0.09 0 0.08 0.09 0 0.1 0.09 0 0 0.095 0 0.02 0.095 0 0.04 0.095 0 0.06 0.095 0 0.08 0.095 0 0.1 0.095 0 0 0.1 0 0.02 0.1 0 0.04 0.1 0 0.06 0.1 0 0.08 0.1 0 0.1 0.1 0 0 0.105 0 0.02 0.105 0 0.04 0.105 0 0.06 0.105 0 0.08 0.105 0 0.1 0.105 0 0 0.11 0 0.02 0.11 0 0.04 0.11 0 0.06 0.11 0 0.08 0.11 0 0.1 0.11 0 0 0.115 0 0.02 0.115 0 0.04 0.115 0 0.06 0.115 0 0.08 0.115 0 0.1 0.115 0 0 0.12 0 0.02 0.12 0 0.04 0.12 0 0.06 0.12 0 0.08 0.12 0 0.1 0.12 0 0 0.125 0 0.02 0.125 0 0.04 0.125 0 0.06 0.125 0 0.08 0.125 0 0.1 0.125 0 0 0.13 0 0.02 0.13 0 0.04 0.13 0 0.06 0.13 0 0.08 0.13 0 0.1 0.13 0 0 0.135 0 0.02 0.135 0 0.04 0.135 0 0.06 0.135 0 0.08 0.135 0 0.1 0.135 0 0 0.14 0 0.02 0.14 0 0.04 0.14 0 0.06 0.14 0 0.08 0.14 0 0.1 0.14 0 0 0.145 0 0.02 0.145 0 0.04 0.145 0 0.06 0.145 0 0.08 0.145 0 0.1 0.145 0 0 0.15 0 0.02 0.15 0 0.04 0.15 0 0.06 0.15 0 0.08 0.15 0 0.1 0.15 0 0 0.155 0 0.02 0.155 0 0.04 0.155 0 0.06 0.155 0 0.08 0.155 0 0.1 0.155 0 0 0.16 0 0.02 0.16 0 0.04 0.16 0 0.06 0.16 0 0.08 0.16 0 0.1 0.16 0 0 0.165 0 0.02 0.165 0 0.04 0.165 0 0.06 0.165 0 0.08 0.165 0 0.1 0.165 0 0 0.17 0 0.02 0.17 0 0.04 0.17 0 0.06 0.17 0 0.08 0.17 0 0.1 0.17 0 0 0.175 0 0.02 0.175 0 0.04 0.175 0 0.06 0.175 0 0.08 0.175 0 0.1 0.175 0 0 0.18 0 0.02 0.18 0 0.04 0.18 0 0.06 0.18 0 0.08 0.18 0 0.1 0.18 0 0 0.185 0 0.02 0.185 0 0.04 0.185 0 0.06 0.185 0 0.08 0.185 0 0.1 0.185 0 0 0.19 0 0.02 0.19 0 0.04 0.19 0 0.06 0.19 0 0.08 0.19 0 0.1 0.19 0 0 0.195 0 0.02 0.195 0 0.04 0.195 0 0.06 0.195 0 0.08 0.195 0 0.1 0.195 0 0 0.2 0 0.02 0.2 0 0.04 0.2 0 0.06 0.2 0 0.08 0.2 0 0.1 0.2 0 0 0.205 0 0.02 0.205 0 0.04 0.205 0 0.06 0.205 0 0.08 0.205 0 0.1 0.205 0 0 0.21 0 0.02 0.21 0 0.04 0.21 0 0.06 0.21 0 0.08 0.21 0 0.1 0.21 0 0 0.215 0 0.02 0.215 0 0.04 0.215 0 0.06 0.215 0 0.08 0.215 0 0.1 0.215 0 0 0.22 0 0.02 0.22 0 0.04 0.22 0 0.06 0.22 0 0.08 0.22 0 0.1 0.22 0 0 0.225 0 0.02 0.225 0 0.04 0.225 0 0.06 0.225 0 0.08 0.225 0 0.1 0.225 0 0 0.23 0 0.02 0.23 0 0.04 0.23 0 0.06 0.23 0 0.08 0.23 0 0.1 0.23 0 0 0.235 0 0.02 0.235 0 0.04 0.235 0 0.06 0.235 0 0.08 0.235 0 0.1 0.235 0 0 0.24 0 0.02 0.24 0 0.04 0.24 0 0.06 0.24 0 0.08 0.24 0 0.1 0.24 0 0 0.245 0 0.02 0.245 0 0.04 0.245 0 0.06 0.245 0 0.08 0.245 0 0.1 0.245 0 0 0.25 0 0.02 0.25 0 0.04 0.25 0 0.06 0.25 0 0.08 0.25 0 0.1 0.25 0 0 0.255 0 0.02 0.255 0 0.04 0.255 0 0.06 0.255 0 0.08 0.255 0 0.1 0.255 0 0 0.26 0 0.02 0.26 0 0.04 0.26 0 0.06 0.26 0 0.08 0.26 0 0.1 0.26 0 0 0.265 0 0.02 0.265 0 0.04 0.265 0 0.06 0.265 0 0.08 0.265 0 0.1 0.265 0 0 0.27 0 0.02 0.27 0 0.04 0.27 0 0.06 0.27 0 0.08 0.27 0 0.1 0.27 0 0 0.275 0 0.02 0.275 0 0.04 0.275 0 0.06 0.275 0 0.08 0.275 0 0.1 0.275 0 0 0.28 0 0.02 0.28 0 0.04 0.28 0 0.06 0.28 0 0.08 0.28 0 0.1 0.28 0 0 0.285 0 0.02 0.285 0 0.04 0.285 0 0.06 0.285 0 0.08 0.285 0 0.1 0.285 0 0 0.29 0 0.02 0.29 0 0.04 0.29 0 0.06 0.29 0 0.08 0.29 0 0.1 0.29 0 0 0.295 0 0.02 0.295 0 0.04 0.295 0 0.06 0.295 0 0.08 0.295 0 0.1 0.295 0 0 0.3 0 0.02 0.3 0 0.04 0.3 0 0.06 0.3 0 0.08 0.3 0 0.1 0.3 0 0 0.305 0 0.02 0.305 0 0.04 0.305 0 0.06 0.305 0 0.08 0.305 0 0.1 0.305 0 0 0.31 0 0.02 0.31 0 0.04 0.31 0 0.06 0.31 0 0.08 0.31 0 0.1 0.31 0 0 0.315 0 0.02 0.315 0 0.04 0.315 0 0.06 0.315 0 0.08 0.315 0 0.1 0.315 0 0 0.32 0 0.02 0.32 0 0.04 0.32 0 0.06 0.32 0 0.08 0.32 0 0.1 0.32 0 0 0.325 0 0.02 0.325 0 0.04 0.325 0 0.06 0.325 0 0.08 0.325 0 0.1 0.325 0 0 0.33 0 0.02 0.33 0 0.04 0.33 0 0.06 0.33 0 0.08 0.33 0 0.1 0.33 0 0 0.335 0 0.02 0.335 0 0.04 0.335 0 0.06 0.335 0 0.08 0.335 0 0.1 0.335 0 0 0.34 0 0.02 0.34 0 0.04 0.34 0 0.06 0.34 0 0.08 0.34 0 0.1 0.34 0 0 0.345 0 0.02 0.345 0 0.04 0.345 0 0.06 0.345 0 0.08 0.345 0 0.1 0.345 0 0 0.35 0 0.02 0.35 0 0.04 0.35 0 0.06 0.35 0 0.08 0.35 0 0.1 0.35 0 0 0.355 0 0.02 0.355 0 0.04 0.355 0 0.06 0.355 0 0.08 0.355 0 0.1 0.355 0 0 0.36 0 0.02 0.36 0 0.04 0.36 0 0.06 0.36 0 0.08 0.36 0 0.1 0.36 0 0 0.365 0 0.02 0.365 0 0.04 0.365 0 0.06 0.365 0 0.08 0.365 0 0.1 0.365 0 0 0.37 0 0.02 0.37 0 0.04 0.37 0 0.06 0.37 0 0.08 0.37 0 0.1 0.37 0 0 0.375 0 0.02 0.375 0 0.04 0.375 0 0.06 0.375 0 0.08 0.375 0 0.1 0.375 0 0 0.38 0 0.02 0.38 0 0.04 0.38 0 0.06 0.38 0 0.08 0.38 0 0.1 0.38 0 0 0.385 0 0.02 0.385 0 0.04 0.385 0 0.06 0.385 0 0.08 0.385 0 0.1 0.385 0 0 0.39 0 0.02 0.39 0 0.04 0.39 0 0.06 0.39 0 0.08 0.39 0 0.1 0.39 0 0 0.395 0 0.02 0.395 0 0.04 0.395 0 0.06 0.395 0 0.08 0.395 0 0.1 0.395 0 0 0.4 0 0.02 0.4 0 0.04 0.4 0 0.06 0.4 0 0.08 0.4 0 0.1 0.4 0 0 0.405 0 0.02 0.405 0 0.04 0.405 0 0.06 0.405 0 0.08 0.405 0 0.1 0.405 0 0 0.41 0 0.02 0.41 0 0.04 0.41 0 0.06 0.41 0 0.08 0.41 0 0.1 0.41 0 0 0.415 0 0.02 0.415 0 0.04 0.415 0 0.06 0.415 0 0.08 0.415 0 0.1 0.415 0 0 0.42 0 0.02 0.42 0 0.04 0.42 0 0.06 0.42 0 0.08 0.42 0 0.1 0.42 0 0 0.425 0 0.02 0.425 0 0.04 0.425 0 0.06 0.425 0 0.08 0.425 0 0.1 0.425 0 0 0.43 0 0.02 0.43 0 0.04 0.43 0 0.06 0.43 0 0.08 0.43 0 0.1 0.43 0 0 0.435 0 0.02 0.435 0 0.04 0.435 0 0.06 0.435 0 0.08 0.435 0 0.1 0.435 0 0 0.44 0 0.02 0.44 0 0.04 0.44 0 0.06 0.44 0 0.08 0.44 0 0.1 0.44 0 0 0.445 0 0.02 0.445 0 0.04 0.445 0 0.06 0.445 0 0.08 0.445 0 0.1 0.445 0 0 0.45 0 0.02 0.45 0 0.04 0.45 0 0.06 0.45 0 0.08 0.45 0 0.1 0.45 0 0 0.455 0 0.02 0.455 0 0.04 0.455 0 0.06 0.455 0 0.08 0.455 0 0.1 0.455 0 0 0.46 0 0.02 0.46 0 0.04 0.46 0 0.06 0.46 0 0.08 0.46 0 0.1 0.46 0 0 0.465 0 0.02 0.465 0 0.04 0.465 0 0.06 0.465 0 0.08 0.465 0 0.1 0.465 0 0 0.47 0 0.02 0.47 0 0.04 0.47 0 0.06 0.47 0 0.08 0.47 0 0.1 0.47 0 0 0.475 0 0.02 0.475 0 0.04 0.475 0 0.06 0.475 0 0.08 0.475 0 0.1 0.475 0 0 0.48 0 0.02 0.48 0 0.04 0.48 0 0.06 0.48 0 0.08 0.48 0 0.1 0.48 0 0 0.485 0 0.02 0.485 0 0.04 0.485 0 0.06 0.485 0 0.08 0.485 0 0.1 0.485 0 0 0.49 0 0.02 0.49 0 0.04 0.49 0 0.06 0.49 0 0.08 0.49 0 0.1 0.49 0 0 0.495 0 0.02 0.495 0 0.04 0.495 0 0.06 0.495 0 0.08 0.495 0 0.1 0.495 0 0 0.5 0 0.02 0.5 0 0.04 0.5 0 0.06 0.5 0 0.08 0.5 0 0.1 0.5 0 0 0.505 0 0.02 0.505 0 0.04 0.505 0 0.06 0.505 0 0.08 0.505 0 0.1 0.505 0 0 0.51 0 0.02 0.51 0 0.04 0.51 0 0.06 0.51 0 0.08 0.51 0 0.1 0.51 0 0 0.515 0 0.02 0.515 0 0.04 0.515 0 0.06 0.515 0 0.08 0.515 0 0.1 0.515 0 0 0.52 0 0.02 0.52 0 0.04 0.52 0 0.06 0.52 0 0.08 0.52 0 0.1 0.52 0 0 0.525 0 0.02 0.525 0 0.04 0.525 0 0.06 0.525 0 0.08 0.525 0 0.1 0.525 0 0 0.53 0 0.02 0.53 0 0.04 0.53 0 0.06 0.53 0 0.08 0.53 0 0.1 0.53 0 0 0.535 0 0.02 0.535 0 0.04 0.535 0 0.06 0.535 0 0.08 0.535 0 0.1 0.535 0 0 0.54 0 0.02 0.54 0 0.04 0.54 0 0.06 0.54 0 0.08 0.54 0 0.1 0.54 0 0 0.545 0 0.02 0.545 0 0.04 0.545 0 0.06 0.545 0 0.08 0.545 0 0.1 0.545 0 0 0.55 0 0.02 0.55 0 0.04 0.55 0 0.06 0.55 0 0.08 0.55 0 0.1 0.55 0 0 0.555 0 0.02 0.555 0 0.04 0.555 0 0.06 0.555 0 0.08 0.555 0 0.1 0.555 0 0 0.56 0 0.02 0.56 0 0.04 0.56 0 0.06 0.56 0 0.08 0.56 0 0.1 0.56 0 0 0.565 0 0.02 0.565 0 0.04 0.565 0 0.06 0.565 0 0.08 0.565 0 0.1 0.565 0 0 0.57 0 0.02 0.57 0 0.04 0.57 0 0.06 0.57 0 0.08 0.57 0 0.1 0.57 0 0 0.575 0 0.02 0.575 0 0.04 0.575 0 0.06 0.575 0 0.08 0.575 0 0.1 0.575 0 0 0.58 0 0.02 0.58 0 0.04 0.58 0 0.06 0.58 0 0.08 0.58 0 0.1 0.58 0 0 0.585 0 0.02 0.585 0 0.04 0.585 0 0.06 0.585 0 0.08 0.585 0 0.1 0.585 0 0 0.59 0 0.02 0.59 0 0.04 0.59 0 0.06 0.59 0 0.08 0.59 0 0.1 0.59 0 0 0.595 0 0.02 0.595 0 0.04 0.595 0 0.06 0.595 0 0.08 0.595 0 0.1 0.595 0 0 0.6 0 0.02 0.6 0 0.04 0.6 0 0.06 0.6 0 0.08 0.6 0 0.1 0.6 0 0 0.605 0 0.02 0.605 0 0.04 0.605 0 0.06 0.605 0 0.08 0.605 0 0.1 0.605 0 0 0.61 0 0.02 0.61 0 0.04 0.61 0 0.06 0.61 0 0.08 0.61 0 0.1 0.61 0 0 0.615 0 0.02 0.615 0 0.04 0.615 0 0.06 0.615 0 0.08 0.615 0 0.1 0.615 0 0 0.62 0 0.02 0.62 0 0.04 0.62 0 0.06 0.62 0 0.08 0.62 0 0.1 0.62 0 0 0.625 0 0.02 0.625 0 0.04 0.625 0 0.06 0.625 0 0.08 0.625 0 0.1 0.625 0 0 0.63 0 0.02 0.63 0 0.04 0.63 0 0.06 0.63 0 0.08 0.63 0 0.1 0.63 0 0 0.635 0 0.02 0.635 0 0.04 0.635 0 0.06 0.635 0 0.08 0.635 0 0.1 0.635 0 0 0.64 0 0.02 0.64 0 0.04 0.64 0 0.06 0.64 0 0.08 0.64 0 0.1 0.64 0 0 0.645 0 0.02 0.645 0 0.04 0.645 0 0.06 0.645 0 0.08 0.645 0 0.1 0.645 0 0 0.65 0 0.02 0.65 0 0.04 0.65 0 0.06 0.65 0 0.08 0.65 0 0.1 0.65 0 0 0.655 0 0.02 0.655 0 0.04 0.655 0 0.06 0.655 0 0.08 0.655 0 0.1 0.655 0 0 0.66 0 0.02 0.66 0 0.04 0.66 0 0.06 0.66 0 0.08 0.66 0 0.1 0.66 0 0 0.665 0 0.02 0.665 0 0.04 0.665 0 0.06 0.665 0 0.08 0.665 0 0.1 0.665 0 0 0.67 0 0.02 0.67 0 0.04 0.67 0 0.06 0.67 0 0.08 0.67 0 0.1 0.67 0 0 0.675 0 0.02 0.675 0 0.04 0.675 0 0.06 0.675 0 0.08 0.675 0 0.1 0.675 0 0 0.68 0 0.02 0.68 0 0.04 0.68 0 0.06 0.68 0 0.08 0.68 0 0.1 0.68 0 0 0.685 0 0.02 0.685 0 0.04 0.685 0 0.06 0.685 0 0.08 0.685 0 0.1 0.685 0 0 0.69 0 0.02 0.69 0 0.04 0.69 0 0.06 0.69 0 0.08 0.69 0 0.1 
[...]
			<PointData Scalars="VitesseX">
				<DataArray Name="VitesseX" type="Float32" format="ascii">
 0 3.16001e-14 -2.23455e-14 1.60585e-14 -9.65729e-15 0 0 2.76375e-14 -1.02434e-14 2.92801e-15 2.98913e-15 0 0 2.07723e-14 9.43445e-15 -7.47097e-15 1.37471e-14 0 0 2.14615e-14 1.5009e-14 1.02524e-14 -1.96391e-15 0 0 4.48545e-15 4.35088e-14 1.08757e-14 -9.60054e-15 0 0 1.75252e-16 5.80106e-14 7.8137e-15 -1.07493e-14 0 0 5.33813e-14 -3.97546e-15 5.49966e-14 -3.53527e-14 0 0 6.82645e-14 -1.59842e-14 6.34752e-14 -3.8108e-14 0 0 5.74081e-14 4.94883e-15 3.78641e-14 -1.81549e-14 0 0 2.67981e-14 4.99068e-14 -9.79551e-15 1.26542e-14 0 0 8.11971e-15 7.50343e-14 -3.78558e-14 2.98856e-14 0 0 3.14377e-14 3.85887e-14 -2.12743e-14 2.78489e-14 0 0 7.22899e-14 -1.93928e-14 2.91374e-14 4.14755e-15 0 0 6.42456e-14 2.52447e-15 1.51437e-14 2.35392e-14 0 0 4.11656e-14 3.01677e-14 8.96903e-15 3.08398e-14 0 0 7.90179e-14 -1.43081e-14 7.6752e-14 -3.26516e-14 0 0 4.42777e-14 5.65127e-14 6.91602e-15 1.14543e-15 0 0 3.31275e-15 7.48526e-14 7.57831e-15 9.03758e-15 0 0 -1.24112e-15 7.20427e-14 -2.0232e-15 3.22689e-14 0 0 2.53826e-14 5.19506e-14 -3.94608e-14 9.48019e-14 0 0 9.0755e-14 -6.9675e-14 7.19757e-14 3.17636e-14 0 0 8.73968e-14 -6.16821e-14 7.47932e-14 7.881e-15 0 0 1.70273e-14 7.49134e-14 -5.70791e-14 7.58148e-14 0 0 6.10526e-15 1.20185e-13 -1.32694e-13 1.49595e-13 0 0 9.37827e-14 -2.10947e-14 9.2273e-15 8.79995e-14 0 0 1.7086e-13 -1.59107e-13 1.97203e-13 -3.2786e-14 0 0 7.15971e-14 2.69955e-14 2.77687e-14 8.08218e-14 0 0 -2.25789e-14 1.73767e-13 -8.21416e-14 1.43661e-13 0 0 4.59716e-14 5.13377e-14 4.90899e-14 7.37816e-14 0 0 1.05894e-13 -3.56494e-14 1.07931e-13 4.68993e-14 0 0 8.86816e-14 -1.4333e-14 9.56894e-14 2.53327e-15 0 0 7.52937e-14 1.04642e-14 8.05524e-14 -4.58437e-14 0 0 4.29411e-14 8.61161e-14 -2.66896e-14 1.79878e-14 0 0 -2.02024e-15 1.81935e-13 -1.77266e-13 1.53282e-13 0 0 9.84482e-14 1.46075e-14 -3.25071e-14 9.49814e-14 0 0 1.67316e-13 -9.0372e-14 9.32994e-14 -1.23595e-14 0 0 1.31293e-13 1.53514e-14 -1.94862e-14 1.88525e-14 0 0 5.18066e-14 1.46549e-13 -1.63377e-13 1.23107e-13 0 0 3.28303e-14 1.45003e-13 -1.60677e-13 1.61671e-13 0 0 1.04388e-13 8.76705e-15 -1.66463e-14 9.03059e-14 0 0 1.47186e-13 -7.34521e-14 9.8502e-14 1.05968e-14 0 0 4.94599e-14 8.85701e-14 -2.22399e-14 5.63644e-14 0 0 -4.97368e-15 2.29571e-13 -1.27266e-13 7.47531e-14 0 0 2.10542e-13 -3.49539e-14 1.34187e-13 -8.98279e-14 0 0 3.23946e-13 -1.35818e-13 1.95791e-13 -9.10435e-14 0 0 2.08665e-13 1.21507e-13 -1.28627e-13 1.3499e-13 0 0 1.16764e-13 2.55998e-13 -2.7735e-13 2.17033e-13 0 0 1.0839e-13 2.24767e-13 -2.46766e-13 2.46931e-13 0 0 2.10103e-13 4.02695e-14 -1.10461e-13 2.575e-13 0 0 4.15153e-13 -3.09092e-13 2.05263e-13 1.09963e-13 0 0 5.53177e-13 -5.76661e-13 4.57001e-13 -2.78351e-14 0 0 3.15562e-13 -2.70964e-13 1.95154e-13 9.10374e-14 0 0 -4.07163e-14 2.75091e-13 -3.16116e-13 3.54409e-13 0 0 7.74337e-14 1.55298e-13 -2.80606e-13 3.60348e-13 0 0 3.51917e-13 -1.87585e-13 -2.84105e-14 2.46369e-13 0 0 3.90017e-13 -1.88607e-13 -1.08213e-14 1.86614e-13 0 0 3.06572e-13 -3.66165e-14 -1.05325e-13 1.37219e-13 0 0 2.69351e-13 -1.06835e-14 -1.19824e-13 1.20581e-13 0 0 2.45787e-13 -1.72516e-14 -4.23282e-14 2.7103e-14 0 0 2.70324e-13 -9.22454e-14 1.16077e-13 -1.47552e-13 0 0 2.12341e-13 -6.28066e-14 7.59702e-14 -3.64533e-14 0 0 1.50676e-13 2.78573e-14 -5.76834e-14 1.52788e-13 0 0 1.8603e-13 -7.46644e-14 1.23276e-13 -2.46767e-14 0 0 1.24262e-13 -7.85152e-14 2.80407e-13 -2.22836e-13 0 0 5.36928e-14 3.59481e-14 1.64953e-13 -1.53127e-13 0 0 -3.87348e-15 1.3946e-13 3.02723e-14 -7.32509e-14 0 0 3.0251e-14 1.67371e-13 -1.00112e-13 3.2666e-14 0 0 2.23794e-13 -1.61002e-14 -7.87588e-14 6.15999e-14 0 0 3.33184e-13 -1.90843e-13 1.44633e-13 -1.59273e-13 0 0 1.98414e-13 2.77304e-14 1.95562e-14 -1.65922e-13 0 0 1.41888e-13 1.86905e-13 -1.60117e-13 1.36452e-14 0 0 2.80702e-13 3.69965e-14 -1.09283e-13 1.56815e-13 0 0 5.48515e-13 -3.10126e-13 1.22815e-13 2.05475e-13 0 0 6.45981e-13 -3.48881e-13 1.94633e-13 1.83349e-13 0 0 4.87986e-13 4.0352e-14 -4.18846e-14 2.43853e-13 0 0 2.6547e-13 4.01149e-13 -2.54898e-13 3.31496e-13 0 0 3.60902e-13 1.35557e-13 1.16678e-13 2.02491e-14 0 0 6.17946e-13 -2.89376e-13 5.49694e-13 -2.63361e-13 0 0 6.3351e-13 -1.54055e-13 3.01633e-13 1.14292e-14 0 0 4.06402e-13 1.67473e-13 1.31451e-13 1.5865e-13 0 0 2.5093e-13 2.44251e-13 3.52655e-13 -4.48956e-14 0 0 3.21498e-13 3.21503e-13 1.1669e-13 1.49911e-13 0 0 3.92435e-13 4.75396e-13 -3.62498e-13 6.43731e-13 0 0 4.65777e-13 1.16797e-13 1.36113e-13 4.4986e-13 0 0 3.7925e-13 -4.14254e-13 1.14301e-12 -1.95219e-13 0 0 -1.42306e-13 2.34106e-13 7.73839e-13 -3.97222e-14 0 0 -2.99591e-13 1.07045e-12 -2.36116e-13 6.28735e-13 0 0 1.91725e-13 5.50795e-13 -8.74621e-16 6.05013e-13 0 0 5.08118e-13 -7.27444e-14 8.10958e-13 -2.03458e-14 0 0 5.73037e-13 -9.72065e-14 8.48885e-13 -3.95649e-14 0 0 3.57655e-13 7.28747e-14 5.09805e-13 2.10481e-14 0 0 -5.14693e-13 8.63567e-13 3.06155e-13 -2.29737e-13 0 0 -5.76233e-13 1.09002e-12 -5.07236e-14 -1.10891e-13 0 0 -2.65374e-13 8.51703e-13 -6.98074e-14 1.00564e-13 0 0 3.40229e-13 1.98563e-13 1.31956e-13 2.23234e-13 0 0 8.53312e-13 -4.79497e-13 4.93445e-13 2.82703e-13 0 0 8.50466e-13 -5.94711e-13 5.81452e-13 2.90182e-13 0 0 6.21836e-13 -5.00419e-13 5.36752e-13 3.09925e-13 0 0 -4.04066e-14 -5.31502e-14 3.61728e-13 3.36269e-13 0 0 -5.85222e-13 4.32099e-13 -1.33623e-13 3.98009e-13 0 0 -6.2733e-13 4.79295e-13 -6.38716e-13 5.93335e-13 0 0 -5.43126e-13 1.99663e-13 -9.6222e-13 4.92744e-13 0 0 -7.48866e-12 -1.28646e-11 -1.49442e-11 -8.80026e-12 0 0 -3.16556e-10 -5.85996e-10 -6.75518e-10 -4.60854e-10 0 0 -8.47975e-09 -1.69239e-08 -2.07843e-08 -1.47271e-08 0 0 -1.26579e-07 -2.89871e-07 -3.8792e-07 -2.85272e-07 0 0 -7.58271e-07 -2.35968e-06 -3.58286e-06 -2.74844e-06 0 0 -2.64707e-06 -9.72785e-06 -1.67515e-05 -1.33325e-05 0 0 -2.05016e-06 -2.97111e-05 -5.98951e-05 -4.9091e-05 0 0 3.64113e-05 -4.30238e-05 -0.000180704 -0.000146995 0 0 5.3441e-05 -3.98061e-05 -0.000195205 -0.000162566 0 0 2.27705e-05 -3.07521e-05 -0.000138509 -0.000126911 0 0 -3.85737e-05 -1.85003e-06 2.49754e-05 -8.9157e-06 0 0 -8.05414e-05 3.95477e-05 0.000214461 0.000141002 0 0 -7.27083e-05 7.30302e-05 0.000280377 0.000245424 0 0 -2.50222e-05 7.14372e-05 0.000244888 0.000227183 0 0 7.1232e-06 4.04085e-05 9.28228e-05 9.4101e-05 0 0 6.3639e-06 1.33736e-05 1.60585e-05 1.3284e-05 0 0 2.78336e-06 4.17289e-06 4.1516e-06 2.60961e-06 0 0 5.98182e-07 6.06104e-07 -6.35457e-08 -4.96871e-07 0 0 1.42222e-07 4.2453e-08 -2.64573e-07 -3.77877e-07 0 0 1.83293e-08 -4.4312e-08 -1.60273e-07 -1.54477e-07 0 0 -5.96335e-09 -3.60884e-08 -6.63895e-08 -5.69818e-08 0 0 -5.99374e-09 -1.67898e-08 -2.48858e-08 -2.00083e-08 0 0 -2.77289e-09 -5.9414e-09 -8.05774e-09 -6.0726e-09 0 0 -8.19199e-10 -1.62235e-09 -1.9979e-09 -1.42453e-09 0 0 -1.68489e-10 -3.03043e-10 -3.40159e-10 -2.28651e-10 0 0 -2.20896e-11 -3.80914e-11 -3.97149e-11 -2.56944e-11 0 0 -1.70932e-12 -3.05216e-12 -3.32091e-12 -1.9388e-12 0 0 3.70002e-14 8.03002e-14 -3.45688e-13 1.30734e-14 0 0 1.72877e-13 2.21079e-13 4.42698e-14 -4.32052e-14 0 0 2.34232e-13 1.16676e-13 1.31927e-13 -3.03361e-14 0 0 3.94364e-13 -1.51821e-13 3.32782e-13 -8.10113e-14 0 0 2.35851e-13 4.79404e-14 1.57033e-13 6.47043e-14 0 0 1.86065e-13 8.35045e-14 1.56693e-13 6.81563e-14 0 0 1.32295e-13 1.78072e-13 8.75509e-14 1.13595e-13 0 0 1.69159e-13 1.00128e-13 2.0674e-13 7.91124e-14 0 0 4.04221e-13 -2.69546e-13 6.42932e-13 -1.85777e-13 0 0 2.22081e-13 7.93651e-14 3.38763e-13 -1.24936e-14 0 0 1.2742e-13 3.07438e-13 9.50388e-14 1.62133e-13 0 0 1.89626e-13 2.86317e-13 6.1408e-14 2.26733e-13 0 0 1.07031e-13 4.75363e-13 -1.47164e-13 4.07692e-13 0 0 5.05631e-13 -1.12386e-13 4.48826e-13 6.3757e-14 0 0 6.21057e-13 -2.53442e-13 6.06156e-13 -3.91205e-14 0 0 5.22218e-14 6.455e-13 -1.60054e-13 3.81181e-13 0 0 1.22649e-13 5.273e-13 6.25108e-15 3.30262e-13 0 0 2.64334e-13 2.8328e-13 2.27493e-13 1.86569e-13 0 0 4.96607e-13 -1.77773e-13 7.95196e-13 -3.27319e-13 0 0 6.52168e-13 -3.36258e-13 8.51319e-13 -3.43339e-13 0 0 1.13344e-13 6.62972e-13 -2.60023e-13 3.78427e-13 0 0 3.0935e-13 4.32892e-13 1.45069e-14 7.56917e-14 0 0 6.06566e-13 4.03649e-14 3.41631e-13 -1.57455e-13 0 0 6.53768e-13 -1.22864e-13 5.38933e-13 -2.34824e-13 0 0 4.43686e-13 7.9951e-14 4.34288e-13 -2.1346e-13 0 0 1.2956e-14 6.01075e-13 5.04106e-14 -5.16483e-14 0 0 4.06689e-14 4.32742e-13 2.10978e-13 -1.18367e-13 0 0 2.71715e-13 1.28275e-13 2.02597e-13 4.24623e-14 0 0 5.46813e-13 -3.10748e-13 5.11301e-13 -1.41424e-13 0 0 2.68398e-13 -1.32804e-14 2.34242e-13 1.79705e-13 0 0 -2.01563e-13 5.43274e-13 -2.14041e-13 6.20087e-13 0 0 -4.32231e-13 7.47992e-13 -1.98169e-13 4.98161e-13 0 0 1.24307e-13 -2.22252e-13 7.14739e-13 -7.47783e-15 0 0 4.96691e-13 -9.36499e-13 1.29679e-12 -3.36249e-13 0 0 -1.20854e-13 -2.84113e-14 3.1856e-13 3.31986e-13 0 0 -3.55916e-13 4.72609e-13 -3.88477e-13 9.38143e-13 0 0 -1.30908e-13 1.9769e-13 -2.04486e-13 8.32374e-13 0 0 6.20983e-14 -2.7822e-13 3.96916e-13 4.85314e-13 0 0 1.27351e-13 -6.10715e-13 9.37325e-13 9.42208e-14 0 0 -2.9636e-13 -6.66845e-14 5.36451e-13 3.48928e-13 0 0 -1.87334e-13 -9.88941e-14 5.89699e-13 2.68854e-13 0 0 1.51391e-13 -3.29651e-13 5.99552e-13 2.16111e-13 0 0 3.79852e-15 7.30335e-14 -2.09233e-13 8.13156e-13 0 0 1.73541e-13 -2.84879e-13 6.73067e-14 6.80315e-13 0 0 -1.94068e-14 -1.14011e-13 6.86567e-14 6.28798e-13 0 0 -3.35314e-15 -1.73775e-13 3.50652e-13 2.79937e-13 0 0 7.3622e-14 -2.66351e-13 5.17985e-13 4.17989e-14 0 0 -2.75723e-13 3.23314e-13 -2.1004e-13 4.76747e-13 0 0 -1.61051e-13 6.72835e-14 5.99336e-14 3.319e-13 0 0 -1.34142e-14 -2.26833e-13 2.72957e-13 2.63324e-13 0 0 2.93953e-13 -6.33806e-13 4.28589e-13 2.06128e-13 0 0 2.40138e-13 -4.11145e-13 2.50885e-13 1.3437e-13 0 0 -3.08453e-13 3.79996e-13 -3.43488e-13 3.37228e-13 0 0 -1.33602e-13 6.46202e-14 -5.13075e-14 1.86712e-13 0 0 1.12535e-13 -1.19379e-13 -5.83568e-14 3.38367e-13 0 0 2.82884e-13 -2.97052e-13 1.04248e-14 3.38566e-13 0 0 1.43475e-13 -1.69311e-13 9.35009e-14 9.50618e-14 0 0 -3.32095e-13 4.18562e-13 -2.80849e-13 2.81104e-13 0 0 1.19196e-13 -2.9917e-13 4.29112e-13 -6.30459e-14 0 0 4.25331e-13 -4.66729e-13 5.7038e-13 -2.11941e-13 0 0 6.25396e-13 -5.115e-13 6.18338e-13 -4.07615e-13 0 0 4.32131e-13 -2.15285e-13 3.63845e-13 -2.9783e-13 0 0 -2.85814e-13 9.17867e-13 -8.74989e-13 6.84479e-13 0 0 5.8184e-13 -4.56298e-13 3.50089e-13 1.32736e-13 0 0 1.22411e-12 -1.45274e-12 1.2036e-12 -2.98121e-13 0 0 4.37401e-13 -1.37996e-13 -1.64331e-13 4.58819e-13 0 0 -1.47384e-13 6.62862e-13 -7.16103e-13 5.67943e-13 0 0 -2.96208e-14 4.26571e-13 -4.66373e-13 4.26443e-13 0 0 1.04822e-12 -1.23829e-12 1.17467e-12 -4.81665e-13 0 0 1.05539e-12 -9.93103e-13 9.87917e-13 -3.87644e-13 0 0 -1.70282e-13 1.11634e-12 -1.07233e-12 7.94173e-13 0 0 -5.71378e-13 1.6313e-12 -1.46737e-12 9.98024e-13 0
				</DataArray>
				<DataArray Name="VitesseY" type="Float32" format="ascii">