<?xml version="1.0"?>
<VTKFile type="PolyData">
	<PolyData>
		<Piece NumberOfPoints="1206" NumberOfPolys="1000">
			<Points>
				<DataArray type="Float32" NumberOfComponents="3" format="ascii">
 0 0 0 0.02 0 0 0.04 0 0 0.06 0 0 0.08 0 0 0.1 0 0 0 0.005 0 0.02 0.005 0 0.04 0.005 0 0.06 0.005 0 0.08 0.005 0 0.1 0.005 0 0 0.01 0 0.02 0.01 0 0.04 0.01 0 0.06 0.01 0 0.08 0.01 0 0.1 0.01 0 0 0.015 0 0.02 0.015 0 0.04 0.015 0 0.06 0.015 0 0.08 0.015 0 0.1 0.015 0 0 0.02 0 0.02 0.02 0 0.04 0.02 0 0.06 0.02 0 0.08 0.02 0 0.1 0.02 0 0 0.025 0 0.02 0.025 0 0.04 0.025 0 0.06 0.025 0 0.08 0.025 0 0.1 0.025 0 0 0.03 0 0.02 0.03 0 0.04 0.03 0 0.06 0.03 0 0.08 0.03 0 0.1 0.03 0 0 0.035 0 0.02 0.035 0 0.04 0.035 0 0.06 0.035 0 0.08 0.035 0 0.1 0.035 0 0 0.04 0 0.02 0.04 0 0.04 0.04 0 0.06 0.04 0 0.08 0.04 0 0.1 0.04 0 0 0.045 0 0.02 0.045 0 0.04 0.045 0 0.06 0.045 0 0.08 0.045 0 0.1 0.045 0 0 0.05 0 0.02 0.05 0 0.04 0.05 0 0.06 0.05 0 0.08 0.05 0 0.1 0.05 0 0 0.055 0 0.02 0.055 0 0.04 0.055 0 0.06 0.055 0 0.08 0.055 0 0.1 0.055 0 0 0.06 0 0.02 0.06 0 0.04 0.06 0 0.06 0.06 0 0.08 0.06 0 0.1 0.06 0 0 0.065 0 0.02 0.065 0 0.04 0.065 0 0.06 0.065 0 0.08 0.065 0 0.1 0.065 0 0 0.07 0 0.02 0.07 0 0.04 0.07 0 0.06 0.07 0 0.08 0.07 0 0.1 0.07 0 0 0.075 0 0.02 0.075 0 0.04 0.075 0 0.06 0.075 0 0.08 0.075 0 0.1 0.075 0 0 0.08 0 0.02 0.08 0 0.04 0.08 0 0.06 0.08 0 0.08 0.08 0 0.1 0.08 0 0 0.085 0 0.02 0.085 0 0.04 0.085 0 0.06 0.085 0 0.08 0.085 0 0.1 0.085 0 0 0.09 0 0.02 0.09 0 0.04 0.09 0 0.06 0.09 0 0.08 0.09 0 0.1 0.09 0 0 0.095 0 0.02 0.095 0 0.04 0.095 0 0.06 0.095 0 0.08 0.095 0 0.1 0.095 0 0 0.1 0 0.02 0.1 0 0.04 0.1 0 0.06 0.1 0 0.08 0.1 0 0.1 0.1 0 0 0.105 0 0.02 0.105 0 0.04 0.105 0 0.06 0.105 0 0.08 0.105 0 0.1 0.105 0 0 0.11 0 0.02 0.11 0 0.04 0.11 0 0.06 0.11 0 0.08 0.11 0 0.1 0.11 0 0 0.115 0 0.02 0.115 0 0.04 0.115 0 0.06 0.115 0 0.08 0.115 0 0.1 0.115 0 0 0.12 0 0.02 0.12 0 0.04 0.12 0 0.06 0.12 0 0.08 0.12 0 0.1 0.12 0 0 0.125 0 0.02 0.125 0 0.04 0.125 0 0.06 0.125 0 0.08 0.125 0 0.1 0.125 0 0 0.13 0 0.02 0.13 0 0.04 0.13 0 0.06 0.13 0 0.08 0.13 0 0.1 0.13 0 0 0.135 0 0.02 0.135 0 0.04 0.135 0 0.06 0.135 0 0.08 0.135 0 0.1 0.135 0 0 0.14 0 0.02 0.14 0 0.04 0.14 0 0.06 0.14 0 0.08 0.14 0 0.1 0.14 0 0 0.145 0 0.02 0.145 0 0.04 0.145 0 0.06 0.145 0 0.08 0.145 0 0.1 0.145 0 0 0.15 0 0.02 0.15 0 0.04 0.15 0 0.06 0.15 0 0.08 0.15 0 0.1 0.15 0 0 0.155 0 0.02 0.155 0 0.04 0.155 0 0.06 0.155 0 0.08 0.155 0 0.1 0.155 0 0 0.16 0 0.02 0.16 0 0.04 0.16 0 0.06 0.16 0 0.08 0.16 0 0.1 0.16 0 0 0.165 0 0.02 0.165 0 0.04 0.165 0 0.06 0.165 0 0.08 0.165 0 0.1 0.165 0 0 0.17 0 0.02 0.17 0 0.04 0.17 0 0.06 0.17 0 0.08 0.17 0 0.1 0.17 0 0 0.175 0 0.02 0.175 0 0.04 0.175 0 0.06 0.175 0 0.08 0.175 0 0.1 0.175 0 0 0.18 0 0.02 0.18 0 0.04 0.18 0 0.06 0.18 0 0.08 0.18 0 0.1 0.18 0 0 0.185 0 0.02 0.185 0 0.04 0.185 0 0.06 0.185 0 0.08 0.185 0 0.1 0.185 0 0 0.19 0 0.02 0.19 0 0.04 0.19 0 0.06 0.19 0 0.08 0.19 0 0.1 0.19 0 0 0.195 0 0.02 0.195 0 0.04 0.195 0 0.06 0.195 0 0.08 0.195 0 0.1 0.195 0 0 0.2 0 0.02 0.2 0 0.04 0.2 0 0.06 0.2 0 0.08 0.2 0 0.1 0.2 0 0 0.205 0 0.02 0.205 0 0.04 0.205 0 0.06 0.205 0 0.08 0.205 0 0.1 0.205 0 0 0.21 0 0.02 0.21 0 0.04 0.21 0 0.06 0.21 0 0.08 0.21 0 0.1 0.21 0 0 0.215 0 0.02 0.215 0 0.04 0.215 0 0.06 0.215 0 0.08 0.215 0 0.1 0.215 0 0 0.22 0 0.02 0.22 0 0.04 0.22 0 0.06 0.22 0 0.08 0.22 0 0.1 0.22 0 0 0.225 0 0.02 0.225 0 0.04 0.225 0 0.06 0.225 0 0.08 0.225 0 0.1 0.225 0 0 0.23 0 0.02 0.23 0 0.04 0.23 0 0.06 0.23 0 0.08 0.23 0 0.1 0.23 0 0 0.235 0 0.02 0.235 0 0.04 0.235 0 0.06 0.235 0 0.08 0.235 0 0.1 0.235 0 0 0.24 0 0.02 0.24 0 0.04 0.24 0 0.06 0.24 0 0.08 0.24 0 0.1 0.24 0 0 0.245 0 0.02 0.245 0 0.04 0.245 0 0.06 0.245 0 0.08 0.245 0 0.1 0.245 0 0 0.25 0 0.02 0.25 0 0.04 0.25 0 0.06 0.25 0 0.08 0.25 0 0.1 0.25 0 0 0.255 0 0.02 0.255 0 0.04 0.255 0 0.06 0.255 0 0.08 0.255 0 0.1 0.255 0 0 0.26 0 0.02 0.26 0 0.04 0.26 0 0.06 0.26 0 0.08 0.26 0 0.1 0.26 0 0 0.265 0 0.02 0.265 0 0.04 0.265 0 0.06 0.265 0 0.08 0.265 0 0.1 0.265 0 0 0.27 0 0.02 0.27 0 0.04 0.27 0 0.06 0.27 0 0.08 0.27 0 0.1 0.27 0 0 0.275 0 0.02 0.275 0 0.04 0.275 0 0.06 0.275 0 0.08 0.275 0 0.1 0.275 0 0 0.28 0 0.02 0.28 0 0.04 0.28 0 0.06 0.28 0 0.08 0.28 0 0.1 0.28 0 0 0.285 0 0.02 0.285 0 0.04 0.285 0 0.06 0.285 0 0.08 0.285 0 0.1 0.285 0 0 0.29 0 0.02 0.29 0 0.04 0.29 0 0.06 0.29 0 0.08 0.29 0 0.1 0.29 0 0 0.295 0 0.02 0.295 0 0.04 0.295 0 0.06 0.295 0 0.08 0.295 0 0.1 0.295 0 0 0.3 0 0.02 0.3 0 0.04 0.3 0 0.06 0.3 0 0.08 0.3 0 0.1 0.3 0 0 0.305 0 0.02 0.305 0 0.04 0.305 0 0.06 0.305 0 0.08 0.305 0 0.1 0.305 0 0 0.31 0 0.02 0.31 0 0.04 0.31 0 0.06 0.31 0 0.08 0.31 0 0.1 0.31 0 0 0.315 0 0.02 0.315 0 0.04 0.315 0 0.06 0.315 0 0.08 0.315 0 0.1 0.315 0 0 0.32 0 0.02 0.32 0 0.04 0.32 0 0.06 0.32 0 0.08 0.32 0 0.1 0.32 0 0 0.325 0 0.02 0.325 0 0.04 0.325 0 0.06 0.325 0 0.08 0.325 0 0.1 0.325 0 0 0.33 0 0.02 0.33 0 0.04 0.33 0 0.06 0.33 0 0.08 0.33 0 0.1 0.33 0 0 0.335 0 0.02 0.335 0 0.04 0.335 0 0.06 0.335 0 0.08 0.335 0 0.1 0.335 0 0 0.34 0 0.02 0.34 0 0.04 0.34 0 0.06 0.34 0 0.08 0.34 0 0.1 0.34 0 0 0.345 0 0.02 0.345 0 0.04 0.345 0 0.06 0.345 0 0.08 0.345 0 0.1 0.345 0 0 0.35 0 0.02 0.35 0 0.04 0.35 0 0.06 0.35 0 0.08 0.35 0 0.1 0.35 0 0 0.355 0 0.02 0.355 0 0.04 0.355 0 0.06 0.355 0 0.08 0.355 0 0.1 0.355 0 0 0.36 0 0.02 0.36 0 0.04 0.36 0 0.06 0.36 0 0.08 0.36 0 0.1 0.36 0 0 0.365 0 0.02 0.365 0 0.04 0.365 0 0.06 0.365 0 0.08 0.365 0 0.1 0.365 0 0 0.37 0 0.02 0.37 0 0.04 0.37 0 0.06 0.37 0 0.08 0.37 0 0.1 0.37 0 0 0.375 0 0.02 0.375 0 0.04 0.375 0 0.06 0.375 0 0.08 0.375 0 0.1 0.375 0 0 0.38 0 0.02 0.38 0 0.04 0.38 0 0.06 0.38 0 0.08 0.38 0 0.1 0.38 0 0 0.385 0 0.02 0.385 0 0.04 0.385 0 0.06 0.385 0 0.08 0.385 0 0.1 0.385 0 0 0.39 0 0.02 0.39 0 0.04 0.39 0 0.06 0.39 0 0.08 0.39 0 0.1 0.39 0 0 0.395 0 0.02 0.395 0 0.04 0.395 0 0.06 0.395 0 0.08 0.395 0 0.1 0.395 0 0 0.4 0 0.02 0.4 0 0.04 0.4 0 0.06 0.4 0 0.08 0.4 0 0.1 0.4 0 0 0.405 0 0.02 0.405 0 0.04 0.405 0 0.06 0.405 0 0.08 0.405 0 0.1 0.405 0 0 0.41 0 0.02 0.41 0 0.04 0.41 0 0.06 0.41 0 0.08 0.41 0 0.1 0.41 0 0 0.415 0 0.02 0.415 0 0.04 0.415 0 0.06 0.415 0 0.08 0.415 0 0.1 0.415 0 0 0.42 0 0.02 0.42 0 0.04 0.42 0 0.06 0.42 0 0.08 0.42 0 0.1 0.42 0 0 0.425 0 0.02 0.425 0 0.04 0.425 0 0.06 0.425 0 0.08 0.425 0 0.1 0.425 0 0 0.43 0 0.02 0.43 0 0.04 0.43 0 0.06 0.43 0 0.08 0.43 0 0.1 0.43 0 0 0.435 0 0.02 0.435 0 0.04 0.435 0 0.06 0.435 0 0.08 0.435 0 0.1 0.435 0 0 0.44 0 0.02 0.44 0 0.04 0.44 0 0.06 0.44 0 0.08 0.44 0 0.1 0.44 0 0 0.445 0 0.02 0.445 0 0.04 0.445 0 0.06 0.445 0 0.08 0.445 0 0.1 0.445 0 0 0.45 0 0.02 0.45 0 0.04 0.45 0 0.06 0.45 0 0.08 0.45 0 0.1 0.45 0 0 0.455 0 0.02 0.455 0 0.04 0.455 0 0.06 0.455 0 0.08 0.455 0 0.1 0.455 0 0 0.46 0 0.02 0.46 0 0.04 0.46 0 0.06 0.46 0 0.08 0.46 0 0.1 0.46 0 0 0.465 0 0.02 0.465 0 0.04 0.465 0 0.06 0.465 0 0.08 0.465 0 0.1 0.465 0 0 0.47 0 0.02 0.47 0 0.04 0.47 0 0.06 0.47 0 0.08 0.47 0 0.1 0.47 0 0 0.475 0 0.02 0.475 0 0.04 0.475 0 0.06 0.475 0 0.08 0.475 0 0.1 0.475 0 0 0.48 0 0.02 0.48 0 0.04 0.48 0 0.06 0.48 0 0.08 0.48 0 0.1 0.48 0 0 0.485 0 0.02 0.485 0 0.04 0.485 0 0.06 0.485 0 0.08 0.485 0 0.1 0.485 0 0 0.49 0 0.02 0.49 0 0.04 0.49 0 0.06 0.49 0 0.08 0.49 0 0.1 0.49 0 0 0.495 0 0.02 0.495 0 0.04 0.495 0 0.06 0.495 0 0.08 0.495 0 0.1 0.495 0 0 0.5 0 0.02 0.5 0 0.04 0.5 0 0.06 0.5 0 0.08 0.5 0 0.1 0.5 0 0 0.505 0 0.02 0.505 0 0.04 0.505 0 0.06 0.505 0 0.08 0.505 0 0.1 0.505 0 0 0.51 0 0.02 0.51 0 0.04 0.51 0 0.06 0.51 0 0.08 0.51 0 0.1 0.51 0 0 0.515 0 0.02 0.515 0 0.04 0.515 0 0.06 0.515 0 0.08 0.515 0 0.1 0.515 0 0 0.52 0 0.02 0.52 0 0.04 0.52 0 0.06 0.52 0 0.08 0.52 0 0.1 0.52 0 0 0.525 0 0.02 0.525 0 0.04 0.525 0 0.06 0.525 0 0.08 0.525 0 0.1 0.525 0 0 0.53 0 0.02 0.53 0 0.04 0.53 0 0.06 0.53 0 0.08 0.53 0 0.1 0.53 0 0 0.535 0 0.02 0.535 0 0.04 0.535 0 0.06 0.535 0 0.08 0.535 0 0.1 0.535 0 0 0.54 0 0.02 0.54 0 0.04 0.54 0 0.06 0.54 0 0.08 0.54 0 0.1 0.54 0 0 0.545 0 0.02 0.545 0 0.04 0.545 0 0.06 0.545 0 0.08 0.545 0 0.1 0.545 0 0 0.55 0 0.02 0.55 0 0.04 0.55 0 0.06 0.55 0 0.08 0.55 0 0.1 0.55 0 0 0.555 0 0.02 0.555 0 0.04 0.555 0 0.06 0.555 0 0.08 0.555 0 0.1 0.555 0 0 0.56 0 0.02 0.56 0 0.04 0.56 0 0.06 0.56 0 0.08 0.56 0 0.1 0.56 0 0 0.565 0 0.02 0.565 0 0.04 0.565 0 0.06 0.565 0 0.08 0.565 0 0.1 0.565 0 0 0.57 0 0.02 0.57 0 0.04 0.57 0 0.06 0.57 0 0.08 0.57 0 0.1 0.57 0 0 0.575 0 0.02 0.575 0 0.04 0.575 0 0.06 0.575 0 0.08 0.575 0 0.1 0.575 0 0 0.58 0 0.02 0.58 0 0.04 0.58 0 0.06 0.58 0 0.08 0.58 0 0.1 0.58 0 0 0.585 0 0.02 0.585 0 0.04 0.585 0 0.06 0.585 0 0.08 0.585 0 0.1 0.585 0 0 0.59 0 0.02 0.59 0 0.04 0.59 0 0.06 0.59 0 0.08 0.59 0 0.1 0.59 0 0 0.595 0 0.02 0.595 0 0.04 0.595 0 0.06 0.595 0 0.08 0.595 0 0.1 0.595 0 0 0.6 0 0.02 0.6 0 0.04 0.6 0 0.06 0.6 0 0.08 0.6 0 0.1 0.6 0 0 0.605 0 0.02 0.605 0 0.04 0.605 0 0.06 0.605 0 0.08 0.605 0 0.1 0.605 0 0 0.61 0 0.02 0.61 0 0.04 0.61 0 0.06 0.61 0 0.08 0.61 0 0.1 0.61 0 0 0.615 0 0.02 0.615 0 0.04 0.615 0 0.06 0.615 0 0.08 0.615 0 0.1 0.615 0 0 0.62 0 0.02 0.62 0 0.04 0.62 0 0.06 0.62 0 0.08 0.62 0 0.1 0.62 0 0 0.625 0 0.02 0.625 0 0.04 0.625 0 0.06 0.625 0 0.08 0.625 0 0.1 0.625 0 0 0.63 0 0.02 0.63 0 0.04 0.63 0 0.06 0.63 0 0.08 0.63 0 0.1 0.63 0 0 0.635 0 0.02 0.635 0 0.04 0.635 0 0.06 0.635 0 0.08 0.635 0 0.1 0.635 0 0 0.64 0 0.02 0.64 0 0.04 0.64 0 0.06 0.64 0 0.08 0.64 0 0.1 0.64 0 0 0.645 0 0.02 0.645 0 0.04 0.645 0 0.06 0.645 0 0.08 0.645 0 0.1 0.645 0 0 0.65 0 0.02 0.65 0 0.04 0.65 0 0.06 0.65 0 0.08 0.65 0 0.1 0.65 0 0 0.655 0 0.02 0.655 0 0.04 0.655 0 0.06 0.655 0 0.08 0.655 0 0.1 0.655 0 0 0.66 0 0.02 0.66 0 0.04 0.66 0 0.06 0.66 0 0.08 0.66 0 0.1 0.66 0 0 0.665 0 0.02 0.665 0 0.04 0.665 0 0.06 0.665 0 0.08 0.665 0 0.1 0.665 0 0 0.67 0 0.02 0.67 0 0.04 0.67 0 0.06 0.67 0 0.08 0.67 0 0.1 0.67 0 0 0.675 0 0.02 0.675 0 0.04 0.675 0 0.06 0.675 0 0.08 0.675 0 0.1 0.675 0 0 0.68 0 0.02 0.68 0 0.04 0.68 0 0.06 0.68 0 0.08 0.68 0 0.1 0.68 0 0 0.685 0 0.02 0.685 0 0.04 0.685 0 0.06 0.685 0 0.08 0.685 0 0.1 0.685 0 0 0.69 0 0.02 0.69 0 0.04 0.69 0 0.06 0.69 0 0.08 0.69 0 0.1 
[...]
			<PointData Scalars="VitesseX">
				<DataArray Name="VitesseX" type="Float32" format="ascii">
 0 8.42616e-15 -1.43126e-14 -6.98806e-15 -3.05286e-14 0 0 6.98161e-15 -9.63843e-15 -1.29972e-14 -2.68577e-14 0 0 7.60152e-15 -6.52862e-15 -2.0742e-14 -2.12019e-14 0 0 5.64393e-15 -4.77765e-15 -2.57903e-14 -2.07413e-14 0 0 1.32897e-15 -6.30006e-15 -2.3512e-14 -2.49839e-14 0 0 -5.22268e-15 -4.04672e-15 -2.62417e-14 -2.36161e-14 0 0 -1.23224e-15 -1.80731e-14 -1.16106e-14 -3.54845e-14 0 0 -3.00754e-15 -1.76904e-14 -1.75391e-14 -3.46062e-14 0 0 -9.74157e-15 -1.326e-14 -2.60599e-14 -2.62898e-14 0 0 -8.75073e-15 -2.53427e-14 -1.54863e-14 -2.73312e-14 0 0 -7.72636e-15 -2.13704e-14 -3.87033e-14 -6.93381e-15 0 0 -6.34263e-15 -2.41836e-14 -4.57321e-14 4.99099e-15 0 0 -3.71804e-15 -4.40207e-14 -1.46726e-14 -1.00638e-14 0 0 -7.09696e-15 -4.41883e-14 -7.78612e-15 -1.17492e-14 0 0 -2.11474e-15 -4.67656e-14 -1.56064e-14 3.33573e-15 0 0 -1.51695e-14 -2.1863e-14 -4.46088e-14 1.98669e-14 0 0 -2.65494e-14 -3.30664e-15 -4.8814e-14 3.23276e-14 0 0 -9.80738e-15 -2.84057e-14 -1.29319e-14 4.19527e-14 0 0 -1.88871e-14 -1.57895e-14 -1.22159e-14 3.5289e-14 0 0 -1.61362e-14 -2.45773e-14 4.81934e-16 1.97262e-14 0 0 -1.05416e-14 -1.59358e-14 -2.54706e-14 4.17286e-14 0 0 4.07473e-15 -1.95022e-14 -2.86604e-14 3.49619e-14 0 0 7.12099e-15 -1.11907e-14 -2.83822e-14 8.59281e-15 0 0 -2.31893e-14 5.77922e-14 -1.09051e-13 3.68861e-14 0 0 1.99979e-14 -1.41328e-14 -5.41042e-14 -4.55413e-15 0 0 6.19333e-14 -1.11338e-13 3.39685e-14 -5.85199e-14 0 0 -2.83107e-14 1.85558e-15 -8.28763e-14 8.17886e-15 0 0 -5.85642e-14 1.74335e-14 -7.9819e-14 -8.12078e-15 0 0 -4.06889e-14 -7.42376e-15 -4.58715e-14 -5.41307e-14 0 0 -3.62613e-14 2.42691e-14 -1.13115e-13 -3.48074e-14 0 0 2.2098e-14 -6.22209e-14 -5.65433e-14 -5.51227e-14 0 0 -5.55121e-15 -3.10062e-14 -7.30394e-14 -5.77161e-14 0 0 -1.8611e-14 -1.33998e-14 -8.02584e-14 -6.19932e-14 0 0 1.96829e-14 -7.7781e-14 1.86389e-14 -1.19066e-13 0 0 -4.40824e-14 3.74583e-14 -7.9496e-14 -4.75595e-14 0 0 -3.43631e-14 2.00667e-14 -8.79997e-14 1.56488e-14 0 0 2.90312e-14 -9.27842e-14 8.04762e-15 1.16898e-14 0 0 2.52784e-14 -9.90111e-14 4.59236e-14 -1.54857e-14 0 0 1.36733e-14 -8.74386e-14 5.3182e-14 -4.30076e-14 0 0 -2.48296e-14 4.59507e-15 -6.24829e-14 -1.82042e-14 0 0 -2.76638e-14 3.71785e-14 -1.17569e-13 -2.85448e-14 0 0 -4.2438e-14 4.17186e-14 -1.15435e-13 -1.05209e-14 0 0 7.96171e-15 -4.26391e-14 -2.8029e-14 -3.06996e-14 0 0 5.6e-14 -1.13603e-13 6.18115e-14 -1.11821e-13 0 0 -4.26727e-14 -5.13073e-15 3.36862e-14 -1.46396e-13 0 0 -8.77111e-14 6.08436e-14 -1.35169e-14 -1.46014e-13 0 0 1.16696e-14 -9.80236e-14 1.29362e-13 -2.67332e-13 0 0 2.1198e-14 -1.06734e-13 1.30509e-13 -2.64118e-13 0 0 -6.82114e-14 6.34056e-14 -4.60028e-14 -1.06156e-13 0 0 -1.03889e-13 8.70331e-14 -8.03752e-14 -1.33049e-14 0 0 -8.31243e-14 1.94609e-14 -1.41761e-14 -2.5023e-14 0 0 -1.02922e-13 2.91194e-16 2.4494e-14 -4.56734e-14 0 0 -1.9543e-13 1.09823e-13 -7.42788e-14 9.88166e-16 0 0 -2.76156e-13 2.10659e-13 -1.74384e-13 3.14909e-14 0 0 -1.23985e-13 -1.37146e-14 1.72254e-14 -1.27758e-13 0 0 -4.59902e-16 -1.95156e-13 1.83727e-13 -3.10454e-13 0 0 -7.7282e-14 -9.77445e-14 2.57778e-14 -2.35212e-13 0 0 -5.13337e-14 -1.00233e-13 -1.15111e-13 -4.89879e-14 0 0 -1.14466e-13 -6.8657e-14 -1.7072e-13 5.33061e-14 0 0 -1.70336e-13 -1.15096e-13 -7.56717e-14 -6.55253e-14 0 0 -1.42106e-13 -1.98903e-13 2.73503e-14 -2.42703e-13 0 0 -1.12813e-13 -1.35816e-13 -1.56401e-13 -1.65433e-13 0 0 -2.65698e-14 -1.10762e-13 -2.52763e-13 -8.54947e-14 0 0 1.65135e-14 -7.01817e-14 -2.14665e-13 -1.47937e-13 0 0 1.59448e-14 -2.96488e-14 -2.36328e-13 -1.60011e-13 0 0 -8.42327e-14 1.3332e-14 -1.86211e-13 -1.93815e-13 0 0 -2.97184e-13 1.85817e-13 -2.58347e-13 -1.48225e-13 0 0 -2.40879e-13 5.5126e-14 -9.99812e-14 -2.28595e-13 0 0 -1.60758e-13 -8.99009e-14 7.84313e-14 -3.52813e-13 0 0 -1.5108e-13 -3.36639e-14 -3.45949e-14 -3.20098e-13 0 0 -4.74208e-14 -5.84537e-14 -1.03147e-13 -2.75002e-13 0 0 -4.97276e-14 7.64283e-14 -2.53846e-13 -1.5609e-13 0 0 -7.77596e-15 1.72058e-13 -8.78895e-14 -1.41266e-13 0 0 2.44263e-13 2.34062e-13 4.49794e-13 -1.75768e-13 0 0 6.78873e-13 7.10707e-13 1.26592e-12 1.54928e-13 0 0 1.49015e-12 2.0788e-12 2.65759e-12 1.05486e-12 0 0 3.07333e-12 5.00724e-12 5.3519e-12 2.96837e-12 0 0 5.97531e-12 1.02157e-11 1.01966e-11 6.30085e-12 0 0 1.05148e-11 1.7715e-11 1.77491e-11 1.10197e-11 0 0 1.4509e-11 2.40436e-11 2.46948e-11 1.51367e-11 0 0 6.32974e-12 1.10454e-11 1.22483e-11 7.4712e-12 0 0 -3.94239e-11 -6.23357e-11 -6.01904e-11 -3.7004e-11 0 0 -1.97298e-10 -3.16268e-10 -3.12413e-10 -1.9197e-10 0 0 -6.38992e-10 -1.02796e-09 -1.02071e-09 -6.27838e-10 0 0 -1.73839e-09 -2.80194e-09 -2.78879e-09 -1.71744e-09 0 0 -4.25934e-09 -6.87486e-09 -6.85409e-09 -4.226e-09 0 0 -9.6766e-09 -1.56383e-08 -1.56153e-08 -9.63945e-09 0 0 -2.06975e-08 -3.36049e-08 -3.34951e-08 -2.07063e-08 0 0 -4.27244e-08 -6.81017e-08 -6.93898e-08 -4.28768e-08 0 0 -8.16169e-08 -1.37202e-07 -1.32755e-07 -8.23943e-08 0 0 -1.59797e-07 -2.47123e-07 -2.61213e-07 -1.6225e-07 0 0 -2.73274e-07 -4.72263e-07 -4.53011e-07 -2.80059e-07 0 0 -5.0899e-07 -7.86681e-07 -8.11255e-07 -5.24765e-07 0 0 -7.99867e-07 -1.34653e-06 -1.42096e-06 -8.32779e-07 0 0 -1.39557e-06 -2.29343e-06 -2.16837e-06 -1.47918e-06 0 0 -2.11576e-06 -3.42699e-06 -3.69568e-06 -2.19367e-06 0 0 -3.2158e-06 -5.40495e-06 -5.6853e-06 -3.61935e-06 0 0 -5.07394e-06 -8.48453e-06 -8.12716e-06 -5.24141e-06 0 0 -7.04699e-06 -1.14355e-05 -1.25451e-05 -7.91427e-06 0 0 -9.91642e-06 -1.70222e-05 -1.76187e-05 -1.12241e-05 0 0 -1.42373e-05 -2.35549e-05 -2.41066e-05 -1.5208e-05 0 0 -1.85824e-05 -3.10236e-05 -3.23498e-05 -2.08435e-05 0 0 -2.45703e-05 -4.09428e-05 -4.27697e-05 -2.70498e-05 0 0 -3.18659e-05 -5.28941e-05 -5.37648e-05 -3.39554e-05 0 0 -4.02503e-05 -6.51198e-05 -6.58924e-05 -4.08498e-05 0 0 -4.96076e-05 -7.93243e-05 -7.79208e-05 -4.7351e-05 0 0 -5.98497e-05 -9.37212e-05 -8.94488e-05 -5.3205e-05 0 0 -7.0282e-05 -0.000107895 -0.000100525 -5.88651e-05 0 0 -8.10764e-05 -0.000122464 -0.000112687 -6.4515e-05 0 0 -9.22215e-05 -0.000139038 -0.000126298 -7.17006e-05 0 0 -0.00010321 -0.000155978 -0.000141474 -8.05976e-05 0 0 -0.000113913 -0.000172438 -0.000157445 -9.01053e-05 0 0 -0.000124073 -0.000188811 -0.000175778 -0.000102243 0 0 -0.000133496 -0.000207037 -0.000198119 -0.000118813 0 0 -0.000142331 -0.000225477 -0.00022139 -0.000135867 0 0 -0.000150826 -0.00024332 -0.000243662 -0.000151885 0 0 -0.000159021 -0.000259442 -0.000265063 -0.000170303 0 0 -0.000166813 -0.000273096 -0.000287835 -0.000188964 0 0 -0.000173456 -0.000287844 -0.000310266 -0.000206149 0 0 -0.000177402 -0.000304718 -0.000330755 -0.000221492 0 0 -0.000183147 -0.000321629 -0.000347198 -0.000227429 0 0 -0.000189956 -0.000337069 -0.000360455 -0.000222881 0 0 -0.000198693 -0.00035055 -0.000357758 -0.000214687 0 0 -0.00019591 -0.000348938 -0.000347875 -0.000205279 0 0 -0.000183263 -0.000344827 -0.000343075 -0.000189861 0 0 -0.000182897 -0.000351832 -0.000353307 -0.000161192 0 0 -0.000225821 -0.000417091 -0.000351717 -0.000102834 0 0 -0.000396719 -0.000543579 -0.000327193 3.66325e-05 0 0 -0.000618783 -0.000653676 -0.000227611 0.000248651 0 0 -0.000678697 -0.000714631 -0.000205142 0.000344671 0 0 -0.000648881 -0.000679245 -0.000215005 0.000324495 0 0 -0.000546576 -0.00054962 -0.000247481 0.000248529 0 0 -0.000322262 -0.000541177 -0.000361397 0.000106964 0 0 -0.000229814 -0.000606282 -0.000644596 -4.69248e-05 0 0 -0.000169748 -0.00089495 -0.000993254 -0.000208013 0 0 0.000219477 -0.000787369 -0.000968385 -0.000219014 0 0 0.00113679 0.000363565 -0.000318066 -0.000106642 0 0 0.00130509 0.00152648 0.000748343 9.60602e-05 0 0 0.0012459 0.00162266 0.00107542 0.000259898 0 0 0.00106644 0.00155749 0.00106677 0.000380206 0 0 0.000889365 0.00131996 0.000994149 0.000428408 0 0 0.00074157 0.00105823 0.000854956 0.000433943 0 0 0.000622886 0.000849302 0.000733176 0.000430021 0 0 0.000531399 0.000715803 0.000645631 0.000407723 0 0 0.000464351 0.000645936 0.000598721 0.000379732 0 0 0.000415226 0.000611306 0.00058128 0.0003582 0 0 0.00037716 0.000580834 0.000560013 0.000341946 0 0 0.000344385 0.000536995 0.000523852 0.000320337 0 0 0.00031235 0.000490403 0.000481889 0.000294569 0 0 0.00027987 0.000444622 0.000439573 0.000268793 0 0 0.000248426 0.000400989 0.000398395 0.00024424 0 0 0.000220951 0.000361009 0.000360118 0.000221881 0 0 0.000200375 0.000327628 0.000327674 0.000202632 0 0 0.000186101 0.000302023 0.000301905 0.000186526 0 0 0.000173567 0.00028025 0.000279259 0.000171918 0 0 0.00015862 0.000255653 0.000254053 0.00015605 0 0 0.000141367 0.000227456 0.000225626 0.000138417 0 0 0.000121531 0.000195331 0.000193565 0.000118677 0 0 9.92668e-05 0.00015948 0.000157992 9.68626e-05 0 0 7.56216e-05 0.000121503 0.000120407 7.38493e-05 0 0 5.24806e-05 8.43637e-05 8.36676e-05 5.1355e-05 0 0 3.2447e-05 5.22032e-05 5.1832e-05 3.18466e-05 0 0 1.74594e-05 2.81196e-05 2.79579e-05 1.71978e-05 0 0 8.03209e-06 1.2951e-05 1.28952e-05 7.94174e-06 0 0 3.19282e-06 5.15343e-06 5.13778e-06 3.1675e-06 0 0 1.13992e-06 1.84146e-06 1.83778e-06 1.13397e-06 0 0 3.82076e-07 6.17587e-07 6.16814e-07 3.80826e-07 0 0 1.24101e-07 2.00678e-07 2.00526e-07 1.23856e-07 0 0 3.96557e-08 6.41416e-08 6.41133e-08 3.961e-08 0 0 1.25446e-08 2.02939e-08 2.02889e-08 1.25368e-08 0 0 3.93748e-09 6.37074e-09 6.36988e-09 3.93644e-09 0 0 1.22702e-09 1.98567e-09 1.98562e-09 1.227e-09 0 0 3.79619e-10 6.14386e-10 6.14628e-10 3.7966e-10 0 0 1.16543e-10 1.88518e-10 1.88958e-10 1.16511e-10 0 0 3.54271e-11 5.72309e-11 5.77912e-11 3.53466e-11 0 0 1.05943e-11 1.71308e-11 1.75323e-11 1.06382e-11 0 0 3.0569e-12 5.00985e-12 5.26771e-12 3.14149e-12 0 0 7.4893e-13 1.46094e-12 1.50847e-12 8.80889e-13 0 0 8.1594e-14 4.39466e-13 2.79027e-13 2.39118e-13 0 0 4.80733e-15 -5.18077e-15 2.79575e-14 8.65861e-14 0 0 -2.30229e-14 -1.18797e-13 -3.22801e-14 4.73171e-14 0 0 -1.39584e-13 4.84135e-14 -2.22675e-13 7.83112e-14 0 0 -1.05447e-13 -1.98679e-14 -9.79553e-14 -1.52714e-14 0 0 -1.21627e-13 -1.244e-13 1.36924e-13 -2.18096e-13 0 0 -1.499e-13 -1.47728e-13 1.00657e-13 -3.74067e-14 0 0 -1.04046e-13 -1.56385e-13 6.43871e-14 6.56947e-14 0 0 -3.98599e-14 -2.22289e-13 1.85582e-13 -2.05291e-13 0 0 -5.08378e-14 -1.80281e-13 6.31215e-14 -1.63735e-13 0 0 -6.88484e-15 -1.41327e-13 -7.81958e-14 -1.26242e-13 0 0 9.42711e-14 -2.13226e-13 -6.45776e-14 -1.71131e-13 0 0 -1.20257e-13 1.04209e-13 -2.60954e-13 -1.30735e-13 0 0 -6.23212e-14 -2.39609e-14 -4.06441e-14 -3.61094e-13 0 0 1.0976e-13 -4.23861e-13 2.54381e-13 -3.34539e-13 0 0 -5.56108e-14 -1.95684e-13 -4.45342e-14 -2.39447e-14 0 0 7.6576e-15 -2.2328e-13 -4.67135e-14 7.01242e-15 0 0 4.68226e-14 -1.97556e-13 -6.32313e-14 -2.01532e-14 0 0 -1.92431e-13 3.01258e-13 -4.40173e-13 7.571e-14 0 0 2.84627e-14 -5.83244e-14 1.39178e-14 -2.05511e-13 0 0 1.99693e-13 -4.32396e-13 3.44607e-13 -2.41112e-13 0 0 1.01886e-13 -4.60741e-13 2.11613e-13 8.92146e-14 0 0 1.22073e-13 -6.20357e-13 2.64631e-13 1.79429e-13 0
				</DataArray>
				<DataArray Name="VitesseY" type="Float32" format="ascii">