<?xml version="1.0"?>
<VTKFile type="PolyData">
	<PolyData>
		<Piece NumberOfPoints="1206" NumberOfPolys="1000">
			<Points>
				<DataArray type="Float32" NumberOfComponents="3" format="ascii">
 0 0 0 0.02 0 0 0.04 0 0 0.06 0 0 0.08 0 0 0.1 0 0 0 0.005 0 0.02 0.005 0 0.04 0.005 0 0.06 0.005 0 0.08 0.005 0 0.1 0.005 0 0 0.01 0 0.02 0.01 0 0.04 0.01 0 0.06 0.01 0 0.08 0.01 0 0.1 0.01 0 0 0.015 0 0.02 0.015 0 0.04 0.015 0 0.06 0.015 0 0.08 0.015 0 0.1 0.015 0 0 0.02 0 0.02 0.02 0 0.04 0.02 0 0.06 0.02 0 0.08 0.02 0 0.1 0.02 0 0 0.025 0 0.02 0.025 0 0.04 0.025 0 0.06 0.025 0 0.08 0.025 0 0.1 0.025 0 0 0.03 0 0.02 0.03 0 0.04 0.03 0 0.06 0.03 0 0.08 0.03 0 0.1 0.03 0 0 0.035 0 0.02 0.035 0 0.04 0.035 0 0.06 0.035 0 0.08 0.035 0 0.1 0.035 0 0 0.04 0 0.02 0.04 0 0.04 0.04 0 0.06 0.04 0 0.08 0.04 0 0.1 0.04 0 0 0.045 0 0.02 0.045 0 0.04 0.045 0 0.06 0.045 0 0.08 0.045 0 0.1 0.045 0 0 0.05 0 0.02 0.05 0 0.04 0.05 0 0.06 0.05 0 0.08 0.05 0 0.1 0.05 0 0 0.055 0 0.02 0.055 0 0.04 0.055 0 0.06 0.055 0 0.08 0.055 0 0.1 0.055 0 0 0.06 0 0.02 0.06 0 0.04 0.06 0 0.06 0.06 0 0.08 0.06 0 0.1 0.06 0 0 0.065 0 0.02 0.065 0 0.04 0.065 0 0.06 0.065 0 0.08 0.065 0 0.1 0.065 0 0 0.07 0 0.02 0.07 0 0.04 0.07 0 0.06 0.07 0 0.08 0.07 0 0.1 0.07 0 0 0.075 0 0.02 0.075 0 0.04 0.075 0 0.06 0.075 0 0.08 0.075 0 0.1 0.075 0 0 0.08 0 0.02 0.08 0 0.04 0.08 0 0.06 0.08 0 0.08 0.08 0 0.1 0.08 0 0 0.085 0 0.02 0.085 0 0.04 0.085 0 0.06 0.085 0 0.08 0.085 0 0.1 0.085 0 0 0.09 0 0.02 0.09 0 0.04 0.09 0 0.06 0.09 0 0.08 0.09 0 0.1 0.09 0 0 0.095 0 0.02 0.095 0 0.04 0.095 0 0.06 0.095 0 0.08 0.095 0 0.1 0.095 0 0 0.1 0 0.02 0.1 0 0.04 0.1 0 0.06 0.1 0 0.08 0.1 0 0.1 0.1 0 0 0.105 0 0.02 0.105 0 0.04 0.105 0 0.06 0.105 0 0.08 0.105 0 0.1 0.105 0 0 0.11 0 0.02 0.11 0 0.04 0.11 0 0.06 0.11 0 0.08 0.11 0 0.1 0.11 0 0 0.115 0 0.02 0.115 0 0.04 0.115 0 0.06 0.115 0 0.08 0.115 0 0.1 0.115 0 0 0.12 0 0.02 0.12 0 0.04 0.12 0 0.06 0.12 0 0.08 0.12 0 0.1 0.12 0 0 0.125 0 0.02 0.125 0 0.04 0.125 0 0.06 0.125 0 0.08 0.125 0 0.1 0.125 0 0 0.13 0 0.02 0.13 0 0.04 0.13 0 0.06 0.13 0 0.08 0.13 0 0.1 0.13 0 0 0.135 0 0.02 0.135 0 0.04 0.135 0 0.06 0.135 0 0.08 0.135 0 0.1 0.135 0 0 0.14 0 0.02 0.14 0 0.04 0.14 0 0.06 0.14 0 0.08 0.14 0 0.1 0.14 0 0 0.145 0 0.02 0.145 0 0.04 0.145 0 0.06 0.145 0 0.08 0.145 0 0.1 0.145 0 0 0.15 0 0.02 0.15 0 0.04 0.15 0 0.06 0.15 0 0.08 0.15 0 0.1 0.15 0 0 0.155 0 0.02 0.155 0 0.04 0.155 0 0.06 0.155 0 0.08 0.155 0 0.1 0.155 0 0 0.16 0 0.02 0.16 0 0.04 0.16 0 0.06 0.16 0 0.08 0.16 0 0.1 0.16 0 0 0.165 0 0.02 0.165 0 0.04 0.165 0 0.06 0.165 0 0.08 0.165 0 0.1 0.165 0 0 0.17 0 0.02 0.17 0 0.04 0.17 0 0.06 0.17 0 0.08 0.17 0 0.1 0.17 0 0 0.175 0 0.02 0.175 0 0.04 0.175 0 0.06 0.175 0 0.08 0.175 0 0.1 0.175 0 0 0.18 0 0.02 0.18 0 0.04 0.18 0 0.06 0.18 0 0.08 0.18 0 0.1 0.18 0 0 0.185 0 0.02 0.185 0 0.04 0.185 0 0.06 0.185 0 0.08 0.185 0 0.1 0.185 0 0 0.19 0 0.02 0.19 0 0.04 0.19 0 0.06 0.19 0 0.08 0.19 0 0.1 0.19 0 0 0.195 0 0.02 0.195 0 0.04 0.195 0 0.06 0.195 0 0.08 0.195 0 0.1 0.195 0 0 0.2 0 0.02 0.2 0 0.04 0.2 0 0.06 0.2 0 0.08 0.2 0 0.1 0.2 0 0 0.205 0 0.02 0.205 0 0.04 0.205 0 0.06 0.205 0 0.08 0.205 0 0.1 0.205 0 0 0.21 0 0.02 0.21 0 0.04 0.21 0 0.06 0.21 0 0.08 0.21 0 0.1 0.21 0 0 0.215 0 0.02 0.215 0 0.04 0.215 0 0.06 0.215 0 0.08 0.215 0 0.1 0.215 0 0 0.22 0 0.02 0.22 0 0.04 0.22 0 0.06 0.22 0 0.08 0.22 0 0.1 0.22 0 0 0.225 0 0.02 0.225 0 0.04 0.225 0 0.06 0.225 0 0.08 0.225 0 0.1 0.225 0 0 0.23 0 0.02 0.23 0 0.04 0.23 0 0.06 0.23 0 0.08 0.23 0 0.1 0.23 0 0 0.235 0 0.02 0.235 0 0.04 0.235 0 0.06 0.235 0 0.08 0.235 0 0.1 0.235 0 0 0.24 0 0.02 0.24 0 0.04 0.24 0 0.06 0.24 0 0.08 0.24 0 0.1 0.24 0 0 0.245 0 0.02 0.245 0 0.04 0.245 0 0.06 0.245 0 0.08 0.245 0 0.1 0.245 0 0 0.25 0 0.02 0.25 0 0.04 0.25 0 0.06 0.25 0 0.08 0.25 0 0.1 0.25 0 0 0.255 0 0.02 0.255 0 0.04 0.255 0 0.06 0.255 0 0.08 0.255 0 0.1 0.255 0 0 0.26 0 0.02 0.26 0 0.04 0.26 0 0.06 0.26 0 0.08 0.26 0 0.1 0.26 0 0 0.265 0 0.02 0.265 0 0.04 0.265 0 0.06 0.265 0 0.08 0.265 0 0.1 0.265 0 0 0.27 0 0.02 0.27 0 0.04 0.27 0 0.06 0.27 0 0.08 0.27 0 0.1 0.27 0 0 0.275 0 0.02 0.275 0 0.04 0.275 0 0.06 0.275 0 0.08 0.275 0 0.1 0.275 0 0 0.28 0 0.02 0.28 0 0.04 0.28 0 0.06 0.28 0 0.08 0.28 0 0.1 0.28 0 0 0.285 0 0.02 0.285 0 0.04 0.285 0 0.06 0.285 0 0.08 0.285 0 0.1 0.285 0 0 0.29 0 0.02 0.29 0 0.04 0.29 0 0.06 0.29 0 0.08 0.29 0 0.1 0.29 0 0 0.295 0 0.02 0.295 0 0.04 0.295 0 0.06 0.295 0 0.08 0.295 0 0.1 0.295 0 0 0.3 0 0.02 0.3 0 0.04 0.3 0 0.06 0.3 0 0.08 0.3 0 0.1 0.3 0 0 0.305 0 0.02 0.305 0 0.04 0.305 0 0.06 0.305 0 0.08 0.305 0 0.1 0.305 0 0 0.31 0 0.02 0.31 0 0.04 0.31 0 0.06 0.31 0 0.08 0.31 0 0.1 0.31 0 0 0.315 0 0.02 0.315 0 0.04 0.315 0 0.06 0.315 0 0.08 0.315 0 0.1 0.315 0 0 0.32 0 0.02 0.32 0 0.04 0.32 0 0.06 0.32 0 0.08 0.32 0 0.1 0.32 0 0 0.325 0 0.02 0.325 0 0.04 0.325 0 0.06 0.325 0 0.08 0.325 0 0.1 0.325 0 0 0.33 0 0.02 0.33 0 0.04 0.33 0 0.06 0.33 0 0.08 0.33 0 0.1 0.33 0 0 0.335 0 0.02 0.335 0 0.04 0.335 0 0.06 0.335 0 0.08 0.335 0 0.1 0.335 0 0 0.34 0 0.02 0.34 0 0.04 0.34 0 0.06 0.34 0 0.08 0.34 0 0.1 0.34 0 0 0.345 0 0.02 0.345 0 0.04 0.345 0 0.06 0.345 0 0.08 0.345 0 0.1 0.345 0 0 0.35 0 0.02 0.35 0 0.04 0.35 0 0.06 0.35 0 0.08 0.35 0 0.1 0.35 0 0 0.355 0 0.02 0.355 0 0.04 0.355 0 0.06 0.355 0 0.08 0.355 0 0.1 0.355 0 0 0.36 0 0.02 0.36 0 0.04 0.36 0 0.06 0.36 0 0.08 0.36 0 0.1 0.36 0 0 0.365 0 0.02 0.365 0 0.04 0.365 0 0.06 0.365 0 0.08 0.365 0 0.1 0.365 0 0 0.37 0 0.02 0.37 0 0.04 0.37 0 0.06 0.37 0 0.08 0.37 0 0.1 0.37 0 0 0.375 0 0.02 0.375 0 0.04 0.375 0 0.06 0.375 0 0.08 0.375 0 0.1 0.375 0 0 0.38 0 0.02 0.38 0 0.04 0.38 0 0.06 0.38 0 0.08 0.38 0 0.1 0.38 0 0 0.385 0 0.02 0.385 0 0.04 0.385 0 0.06 0.385 0 0.08 0.385 0 0.1 0.385 0 0 0.39 0 0.02 0.39 0 0.04 0.39 0 0.06 0.39 0 0.08 0.39 0 0.1 0.39 0 0 0.395 0 0.02 0.395 0 0.04 0.395 0 0.06 0.395 0 0.08 0.395 0 0.1 0.395 0 0 0.4 0 0.02 0.4 0 0.04 0.4 0 0.06 0.4 0 0.08 0.4 0 0.1 0.4 0 0 0.405 0 0.02 0.405 0 0.04 0.405 0 0.06 0.405 0 0.08 0.405 0 0.1 0.405 0 0 0.41 0 0.02 0.41 0 0.04 0.41 0 0.06 0.41 0 0.08 0.41 0 0.1 0.41 0 0 0.415 0 0.02 0.415 0 0.04 0.415 0 0.06 0.415 0 0.08 0.415 0 0.1 0.415 0 0 0.42 0 0.02 0.42 0 0.04 0.42 0 0.06 0.42 0 0.08 0.42 0 0.1 0.42 0 0 0.425 0 0.02 0.425 0 0.04 0.425 0 0.06 0.425 0 0.08 0.425 0 0.1 0.425 0 0 0.43 0 0.02 0.43 0 0.04 0.43 0 0.06 0.43 0 0.08 0.43 0 0.1 0.43 0 0 0.435 0 0.02 0.435 0 0.04 0.435 0 0.06 0.435 0 0.08 0.435 0 0.1 0.435 0 0 0.44 0 0.02 0.44 0 0.04 0.44 0 0.06 0.44 0 0.08 0.44 0 0.1 0.44 0 0 0.445 0 0.02 0.445 0 0.04 0.445 0 0.06 0.445 0 0.08 0.445 0 0.1 0.445 0 0 0.45 0 0.02 0.45 0 0.04 0.45 0 0.06 0.45 0 0.08 0.45 0 0.1 0.45 0 0 0.455 0 0.02 0.455 0 0.04 0.455 0 0.06 0.455 0 0.08 0.455 0 0.1 0.455 0 0 0.46 0 0.02 0.46 0 0.04 0.46 0 0.06 0.46 0 0.08 0.46 0 0.1 0.46 0 0 0.465 0 0.02 0.465 0 0.04 0.465 0 0.06 0.465 0 0.08 0.465 0 0.1 0.465 0 0 0.47 0 0.02 0.47 0 0.04 0.47 0 0.06 0.47 0 0.08 0.47 0 0.1 0.47 0 0 0.475 0 0.02 0.475 0 0.04 0.475 0 0.06 0.475 0 0.08 0.475 0 0.1 0.475 0 0 0.48 0 0.02 0.48 0 0.04 0.48 0 0.06 0.48 0 0.08 0.48 0 0.1 0.48 0 0 0.485 0 0.02 0.485 0 0.04 0.485 0 0.06 0.485 0 0.08 0.485 0 0.1 0.485 0 0 0.49 0 0.02 0.49 0 0.04 0.49 0 0.06 0.49 0 0.08 0.49 0 0.1 0.49 0 0 0.495 0 0.02 0.495 0 0.04 0.495 0 0.06 0.495 0 0.08 0.495 0 0.1 0.495 0 0 0.5 0 0.02 0.5 0 0.04 0.5 0 0.06 0.5 0 0.08 0.5 0 0.1 0.5 0 0 0.505 0 0.02 0.505 0 0.04 0.505 0 0.06 0.505 0 0.08 0.505 0 0.1 0.505 0 0 0.51 0 0.02 0.51 0 0.04 0.51 0 0.06 0.51 0 0.08 0.51 0 0.1 0.51 0 0 0.515 0 0.02 0.515 0 0.04 0.515 0 0.06 0.515 0 0.08 0.515 0 0.1 0.515 0 0 0.52 0 0.02 0.52 0 0.04 0.52 0 0.06 0.52 0 0.08 0.52 0 0.1 0.52 0 0 0.525 0 0.02 0.525 0 0.04 0.525 0 0.06 0.525 0 0.08 0.525 0 0.1 0.525 0 0 0.53 0 0.02 0.53 0 0.04 0.53 0 0.06 0.53 0 0.08 0.53 0 0.1 0.53 0 0 0.535 0 0.02 0.535 0 0.04 0.535 0 0.06 0.535 0 0.08 0.535 0 0.1 0.535 0 0 0.54 0 0.02 0.54 0 0.04 0.54 0 0.06 0.54 0 0.08 0.54 0 0.1 0.54 0 0 0.545 0 0.02 0.545 0 0.04 0.545 0 0.06 0.545 0 0.08 0.545 0 0.1 0.545 0 0 0.55 0 0.02 0.55 0 0.04 0.55 0 0.06 0.55 0 0.08 0.55 0 0.1 0.55 0 0 0.555 0 0.02 0.555 0 0.04 0.555 0 0.06 0.555 0 0.08 0.555 0 0.1 0.555 0 0 0.56 0 0.02 0.56 0 0.04 0.56 0 0.06 0.56 0 0.08 0.56 0 0.1 0.56 0 0 0.565 0 0.02 0.565 0 0.04 0.565 0 0.06 0.565 0 0.08 0.565 0 0.1 0.565 0 0 0.57 0 0.02 0.57 0 0.04 0.57 0 0.06 0.57 0 0.08 0.57 0 0.1 0.57 0 0 0.575 0 0.02 0.575 0 0.04 0.575 0 0.06 0.575 0 0.08 0.575 0 0.1 0.575 0 0 0.58 0 0.02 0.58 0 0.04 0.58 0 0.06 0.58 0 0.08 0.58 0 0.1 0.58 0 0 0.585 0 0.02 0.585 0 0.04 0.585 0 0.06 0.585 0 0.08 0.585 0 0.1 0.585 0 0 0.59 0 0.02 0.59 0 0.04 0.59 0 0.06 0.59 0 0.08 0.59 0 0.1 0.59 0 0 0.595 0 0.02 0.595 0 0.04 0.595 0 0.06 0.595 0 0.08 0.595 0 0.1 0.595 0 0 0.6 0 0.02 0.6 0 0.04 0.6 0 0.06 0.6 0 0.08 0.6 0 0.1 0.6 0 0 0.605 0 0.02 0.605 0 0.04 0.605 0 0.06 0.605 0 0.08 0.605 0 0.1 0.605 0 0 0.61 0 0.02 0.61 0 0.04 0.61 0 0.06 0.61 0 0.08 0.61 0 0.1 0.61 0 0 0.615 0 0.02 0.615 0 0.04 0.615 0 0.06 0.615 0 0.08 0.615 0 0.1 0.615 0 0 0.62 0 0.02 0.62 0 0.04 0.62 0 0.06 0.62 0 0.08 0.62 0 0.1 0.62 0 0 0.625 0 0.02 0.625 0 0.04 0.625 0 0.06 0.625 0 0.08 0.625 0 0.1 0.625 0 0 0.63 0 0.02 0.63 0 0.04 0.63 0 0.06 0.63 0 0.08 0.63 0 0.1 0.63 0 0 0.635 0 0.02 0.635 0 0.04 0.635 0 0.06 0.635 0 0.08 0.635 0 0.1 0.635 0 0 0.64 0 0.02 0.64 0 0.04 0.64 0 0.06 0.64 0 0.08 0.64 0 0.1 0.64 0 0 0.645 0 0.02 0.645 0 0.04 0.645 0 0.06 0.645 0 0.08 0.645 0 0.1 0.645 0 0 0.65 0 0.02 0.65 0 0.04 0.65 0 0.06 0.65 0 0.08 0.65 0 0.1 0.65 0 0 0.655 0 0.02 0.655 0 0.04 0.655 0 0.06 0.655 0 0.08 0.655 0 0.1 0.655 0 0 0.66 0 0.02 0.66 0 0.04 0.66 0 0.06 0.66 0 0.08 0.66 0 0.1 0.66 0 0 0.665 0 0.02 0.665 0 0.04 0.665 0 0.06 0.665 0 0.08 0.665 0 0.1 0.665 0 0 0.67 0 0.02 0.67 0 0.04 0.67 0 0.06 0.67 0 0.08 0.67 0 0.1 0.67 0 0 0.675 0 0.02 0.675 0 0.04 0.675 0 0.06 0.675 0 0.08 0.675 0 0.1 0.675 0 0 0.68 0 0.02 0.68 0 0.04 0.68 0 0.06 0.68 0 0.08 0.68 0 0.1 0.68 0 0 0.685 0 0.02 0.685 0 0.04 0.685 0 0.06 0.685 0 0.08 0.685 0 0.1 0.685 0 0 0.69 0 0.02 0.69 0 0.04 0.69 0 0.06 0.69 0 0.08 0.69 0 0.1 
[...]
			<PointData Scalars="VitesseX">
				<DataArray Name="VitesseX" type="Float32" format="ascii">
 0 -1.76849e-14 -2.14694e-15 1.17206e-14 6.64605e-15 0 0 -1.17426e-14 -7.59523e-15 1.44516e-14 4.80285e-15 0 0 -5.06554e-15 -8.62231e-15 1.12813e-14 4.94594e-15 0 0 -4.65513e-15 -2.94433e-15 6.31613e-15 7.25372e-15 0 0 -3.33759e-15 -2.10221e-15 8.0643e-15 1.01727e-14 0 0 5.76217e-15 -1.02979e-14 1.21949e-14 1.90947e-14 0 0 3.00254e-15 -1.1423e-15 9.44291e-15 1.93127e-14 0 0 3.27686e-15 3.81441e-15 1.45962e-14 8.62537e-15 0 0 1.02557e-14 2.76296e-15 1.57043e-14 1.41997e-14 0 0 -8.42962e-16 2.70548e-14 8.75655e-16 2.44108e-14 0 0 -5.9089e-15 2.9571e-14 1.95915e-14 4.30667e-15 0 0 -2.51201e-15 2.03398e-14 3.99232e-14 -2.20407e-14 0 0 -7.3716e-15 2.94207e-14 2.27187e-14 -2.00269e-14 0 0 -6.82062e-15 3.95899e-14 -2.30636e-15 -5.34484e-15 0 0 -1.45733e-15 4.51146e-14 -3.09357e-14 1.76345e-14 0 0 2.53864e-14 -2.11457e-14 2.06665e-14 -1.48843e-14 0 0 -8.92435e-16 -5.59037e-16 -1.23748e-14 4.43338e-15 0 0 3.6842e-16 -1.72074e-14 3.13549e-15 -4.7845e-15 0 0 -8.24857e-15 -1.58635e-14 5.93534e-15 3.18882e-15 0 0 -3.31234e-14 2.32693e-14 -5.15139e-14 5.75176e-14 0 0 1.89778e-14 -7.4977e-14 4.54063e-14 -1.07191e-14 0 0 9.71302e-15 -7.11831e-14 4.83597e-14 -1.87998e-14 0 0 -7.88028e-15 -5.23159e-14 4.81858e-14 -2.66309e-14 0 0 -9.49886e-16 -4.66785e-14 5.43807e-14 -4.24526e-14 0 0 -4.06127e-14 4.27912e-14 -4.10417e-14 1.98121e-14 0 0 -5.39915e-14 6.944e-14 -6.0902e-14 3.7384e-14 0 0 1.77794e-14 -3.45498e-14 2.6912e-14 -2.56019e-15 0 0 2.06033e-14 -3.31253e-14 1.24646e-14 1.19814e-14 0 0 -3.28749e-14 4.11649e-14 -4.61292e-14 4.47898e-14 0 0 -3.32153e-14 2.21394e-14 -1.85201e-15 2.16385e-14 0 0 3.4285e-15 -3.18582e-14 4.343e-14 1.18701e-14 0 0 1.75645e-14 -3.5348e-14 4.41332e-15 5.52621e-14 0 0 1.83034e-14 -3.27425e-14 -1.11824e-14 6.90895e-14 0 0 3.51279e-14 -6.01129e-14 1.15656e-14 7.38114e-14 0 0 -9.71489e-15 7.09941e-15 -9.43231e-14 1.86936e-13 0 0 -1.6965e-14 -5.65387e-15 -8.58261e-14 1.70903e-13 0 0 1.41555e-14 -7.00457e-14 2.8219e-15 8.90363e-14 0 0 -1.93638e-14 -3.40641e-15 -5.35249e-14 1.48316e-13 0 0 -2.25428e-14 1.3275e-14 -2.17955e-14 1.14207e-13 0 0 9.77418e-15 -2.0365e-14 1.73666e-14 5.24662e-14 0 0 8.72092e-14 -1.03995e-13 4.43013e-14 2.32843e-14 0 0 1.27454e-13 -1.15279e-13 4.15526e-16 4.54545e-14 0 0 7.56062e-14 -1.46433e-14 -8.06559e-14 4.73425e-14 0 0 5.25891e-14 5.21776e-14 -1.0262e-13 1.21653e-14 0 0 1.23302e-13 -2.61824e-14 -4.03611e-14 -1.00683e-14 0 0 1.32601e-13 -6.33461e-14 -1.3832e-14 3.59679e-15 0 0 4.60193e-14 5.30843e-14 -1.26962e-13 9.34631e-14 0 0 4.24565e-14 4.54272e-14 -1.17523e-13 9.31397e-14 0 0 4.98716e-14 1.03672e-15 -4.33821e-14 1.94032e-14 0 0 1.22791e-13 -1.05245e-13 5.84701e-14 -7.11492e-14 0 0 1.58576e-13 -1.14868e-13 2.26287e-14 -5.70499e-14 0 0 1.29001e-13 -4.59597e-14 -8.66701e-14 6.80862e-14 0 0 1.23271e-13 -4.5833e-14 -6.75786e-14 8.63447e-14 0 0 2.11943e-13 -1.6603e-13 6.2691e-14 -5.00838e-15 0 0 1.81145e-13 -1.61028e-14 -6.81237e-14 6.48398e-14 0 0 8.07716e-14 2.20596e-13 -2.40763e-13 1.45506e-13 0 0 1.76017e-13 1.93775e-14 1.51379e-14 8.61803e-15 0 0 1.44479e-13 8.40016e-14 -9.3811e-15 5.16825e-14 0 0 1.76e-13 8.8903e-14 -2.67371e-14 9.08207e-14 0 0 1.64711e-13 3.34573e-14 6.93542e-14 5.16704e-14 0 0 1.19519e-13 5.22158e-14 1.03445e-13 -2.51634e-15 0 0 1.83234e-13 -3.26483e-14 1.51537e-13 -1.08606e-13 0 0 1.75658e-13 3.30141e-14 -5.38216e-14 9.03237e-15 0 0 1.7315e-13 -8.04013e-15 -1.35938e-14 2.63758e-14 0 0 6.66775e-14 3.31264e-14 5.58457e-14 6.35898e-14 0 0 -2.03098e-14 1.66352e-13 -5.56666e-14 1.73698e-13 0 0 1.71748e-13 -4.26458e-14 1.09199e-14 1.36093e-13 0 0 2.16873e-13 -1.93636e-14 -2.08238e-13 3.05567e-13 0 0 1.41099e-13 1.54757e-13 -3.51296e-13 2.88539e-13 0 0 2.89135e-13 -1.14244e-14 -1.10815e-13 3.36874e-14 0 0 3.27832e-13 -7.82412e-14 -2.84586e-14 7.24998e-15 0 0 1.84905e-13 -1.44363e-16 -4.22147e-15 -3.30603e-14 0 0 -3.54602e-14 3.56995e-13 -3.23739e-13 1.85641e-13 0 0 6.52662e-14 3.76569e-13 -4.7847e-13 3.10986e-13 0 0 2.59016e-13 1.77062e-13 -2.56752e-13 5.61878e-14 0 0 3.80066e-13 1.61346e-14 -6.47068e-14 -1.41773e-13 0 0 4.53978e-13 -1.14158e-13 -3.43027e-15 -1.2233e-13 0 0 3.38108e-13 9.87521e-14 -3.13043e-13 1.67761e-13 0 0 1.98166e-13 3.18148e-13 -6.7891e-13 4.62556e-13 0 0 2.73198e-13 1.61434e-13 -5.62761e-13 3.92522e-13 0 0 3.36661e-13 -1.89132e-13 -2.12292e-13 1.80585e-13 0 0 2.51413e-13 -1.85816e-13 -1.39567e-13 8.42099e-14 0 0 -8.70534e-15 4.64577e-14 -2.17549e-13 1.18292e-14 0 0 -2.9178e-13 8.21337e-14 -1.68176e-13 -6.17892e-14 0 0 -3.04443e-13 4.37476e-14 -7.95599e-14 -8.18862e-14 0 0 -2.79802e-13 -3.07826e-14 -6.11527e-14 -3.55898e-14 0 0 -2.80183e-13 -8.57869e-14 -8.53654e-14 9.64119e-14 0 0 -3.30994e-13 -1.00485e-13 -1.86587e-13 2.24304e-13 0 0 -4.58104e-13 -2.598e-13 -4.51421e-13 1.82168e-13 0 0 -9.39047e-13 -1.1245e-12 -1.31177e-12 -2.79736e-13 0 0 -3.0738e-12 -4.84459e-12 -4.86335e-12 -2.50984e-12 0 0 -1.20509e-11 -1.97936e-11 -1.95717e-11 -1.17452e-11 0 0 -4.6984e-11 -7.69154e-11 -7.674e-11 -4.74145e-11 0 0 -1.73353e-10 -2.82848e-10 -2.84279e-10 -1.7671e-10 0 0 -6.00329e-10 -9.79936e-10 -9.89542e-10 -6.16732e-10 0 0 -1.95086e-09 -3.19252e-09 -3.23691e-09 -2.023e-09 0 0 -5.95358e-09 -9.77925e-09 -9.96073e-09 -6.24699e-09 0 0 -1.70778e-08 -2.81862e-08 -2.88719e-08 -1.81867e-08 0 0 -4.60921e-08 -7.65302e-08 -7.89431e-08 -4.99959e-08 0 0 -1.17177e-07 -1.96009e-07 -2.03931e-07 -1.29996e-07 0 0 -2.80917e-07 -4.74189e-07 -4.98466e-07 -3.20198e-07 0 0 -6.35718e-07 -1.08485e-06 -1.15428e-06 -7.48042e-07 0 0 -1.35915e-06 -2.34836e-06 -2.53659e-06 -1.65824e-06 0 0 -2.83511e-06 -4.99802e-06 -5.26961e-06 -3.48686e-06 0 0 -5.27324e-06 -9.34064e-06 -1.105e-05 -7.34228e-06 0 0 -1.00951e-05 -1.86876e-05 -1.95704e-05 -1.32025e-05 0 0 -1.7092e-05 -3.04235e-05 -3.54384e-05 -2.39574e-05 0 0 -2.55756e-05 -4.79646e-05 -5.75452e-05 -3.9778e-05 0 0 -3.76445e-05 -7.0421e-05 -8.06369e-05 -5.56591e-05 0 0 -5.09598e-05 -9.56884e-05 -0.000109856 -7.50168e-05 0 0 -6.42077e-05 -0.00012147 -0.000144488 -9.95356e-05 0 0 -7.81971e-05 -0.000149764 -0.000178937 -0.000124313 0 0 -9.24053e-05 -0.000177661 -0.000210925 -0.000146892 0 0 -0.00010652 -0.000203735 -0.000239654 -0.000166249 0 0 -0.000120076 -0.000226614 -0.000265374 -0.000183707 0 0 -0.000132407 -0.000244966 -0.000287556 -0.000200209 0 0 -0.000143564 -0.000257524 -0.000305592 -0.000215504 0 0 -0.000154486 -0.000265099 -0.000317519 -0.000226499 0 0 -0.000168091 -0.000280859 -0.000324397 -0.000232108 0 0 -0.000179611 -0.0003136 -0.00033982 -0.000243511 0 0 -0.000179416 -0.00035169 -0.000389504 -0.000281954 0 0 -0.000183533 -0.000376084 -0.000552353 -0.000418981 0 0 -0.000198219 -0.000400688 -0.000854915 -0.00068908 0 0 -0.00024509 -0.000463844 -0.00104044 -0.000738711 0 0 -0.000273556 -0.000463656 -0.0010154 -0.000734683 0 0 -0.000258968 -0.000414362 -0.000887266 -0.000761738 0 0 -0.000216833 -0.000268289 -0.000666729 -0.000770875 0 0 -0.000156222 -4.33947e-05 -0.000510863 -0.000740186 0 0 3.31674e-05 -3.38614e-05 -0.00037366 -0.000609699 0 0 8.49448e-05 -0.000140643 0.000161211 -6.44367e-06 0 0 -0.000119699 -9.16592e-05 0.00111436 0.00104752 0 0 -0.000254281 0.000203528 0.00126669 0.0011934 0 0 -0.00023323 0.000396027 0.00121694 0.00113462 0 0 -0.000116604 0.000386069 0.00101114 0.000923809 0 0 3.23855e-05 0.000361881 0.000769591 0.000694901 0 0 0.000121715 0.000348844 0.000584333 0.000513584 0 0 0.000147843 0.000350457 0.000488466 0.000398653 0 0 0.000159589 0.000352761 0.000454595 0.000337546 0 0 0.000164747 0.000345638 0.000433102 0.000305098 0 0 0.000166834 0.000329668 0.000405186 0.000282117 0 0 0.000167284 0.000314087 0.000372007 0.000256253 0 0 0.000164483 0.000295407 0.000337659 0.000229087 0 0 0.000153582 0.00027242 0.00030365 0.000203315 0 0 0.000139682 0.000245778 0.000270379 0.000179468 0 0 0.000124425 0.000216774 0.000236408 0.000155994 0 0 0.000107594 0.000185784 0.000200535 0.000131339 0 0 8.94222e-05 0.000153093 0.000163569 0.000106323 0 0 7.0452e-05 0.000119611 0.000126526 8.16354e-05 0 0 5.15813e-05 8.68372e-05 9.10188e-05 5.83532e-05 0 0 3.43046e-05 5.7344e-05 5.96256e-05 3.79943e-05 0 0 2.02846e-05 3.36833e-05 3.47482e-05 2.20073e-05 0 0 1.03724e-05 1.71134e-05 1.75212e-05 1.10323e-05 0 0 4.4728e-06 7.33853e-06 7.46376e-06 4.6755e-06 0 0 1.63218e-06 2.66652e-06 2.69814e-06 1.68335e-06 0 0 5.19432e-07 8.45792e-07 8.52383e-07 5.30096e-07 0 0 1.51522e-07 2.46182e-07 2.47435e-07 1.53549e-07 0 0 4.20987e-08 6.82994e-08 6.8525e-08 4.24631e-08 0 0 1.13589e-08 1.84109e-08 1.84506e-08 1.14222e-08 0 0 3.00148e-09 4.86208e-09 4.869e-09 3.01234e-09 0 0 7.79225e-10 1.26211e-09 1.26302e-09 7.81364e-10 0 0 1.99059e-10 3.22376e-10 3.22559e-10 1.99605e-10 0 0 5.02254e-11 8.09333e-11 8.13809e-11 5.03538e-11 0 0 1.24922e-11 2.0161e-11 2.02946e-11 1.27743e-11 0 0 3.02274e-12 5.21018e-12 5.04154e-12 3.33523e-12 0 0 7.65358e-13 1.51969e-12 1.36984e-12 9.76244e-13 0 0 2.4856e-13 6.84501e-13 3.8267e-13 5.80371e-13 0 0 2.53704e-13 3.60074e-13 3.25874e-13 3.76396e-13 0 0 3.66194e-13 1.27018e-13 5.52884e-13 1.52844e-13 0 0 3.56235e-13 1.71042e-13 4.9792e-13 1.59537e-13 0 0 2.85218e-13 2.94525e-13 4.15263e-13 2.33137e-13 0 0 2.25673e-13 3.46769e-13 4.19025e-13 2.32534e-13 0 0 1.74231e-13 3.80425e-13 4.32101e-13 2.24587e-13 0 0 1.13362e-13 4.98351e-13 2.4773e-13 4.18608e-13 0 0 2.44084e-13 3.37636e-13 4.44706e-13 1.84183e-13 0 0 1.88908e-13 5.31222e-13 3.03555e-13 1.97088e-13 0 0 1.87449e-13 6.18556e-13 1.5845e-13 3.93857e-13 0 0 2.50221e-13 4.75694e-13 4.03659e-13 1.40133e-13 0 0 1.81596e-13 5.6701e-13 3.49642e-13 1.04504e-13 0 0 3.3203e-13 3.57316e-13 3.27546e-13 4.14061e-13 0 0 2.30138e-13 4.5692e-13 2.28289e-13 5.55515e-13 0 0 1.06232e-13 5.70459e-13 2.14107e-13 4.6529e-13 0 0 1.62474e-13 4.74188e-13 2.59404e-13 4.59081e-13 0 0 2.59176e-13 3.32487e-13 4.11906e-13 4.06144e-13 0 0 2.68595e-13 3.19123e-13 4.95192e-13 3.66835e-13 0 0 2.04076e-13 4.0784e-13 4.14015e-13 3.73191e-13 0 0 2.54365e-13 3.36491e-13 2.57162e-13 6.73616e-13 0 0 2.94254e-13 3.31475e-13 1.76836e-13 8.48689e-13 0 0 2.32998e-13 4.64928e-13 2.72072e-13 5.35398e-13 0 0 2.55642e-13 4.10712e-13 4.36409e-13 2.67966e-13 0 0 4.16628e-13 5.42889e-14 7.78273e-13 3.01677e-14 0 0 2.95244e-13 1.33819e-13 8.0228e-13 -3.07553e-14 0 0 1.60623e-13 3.07834e-13 7.0651e-13 7.59836e-14 0 0 1.16481e-13 4.20198e-13 5.91644e-13 1.86331e-13 0 0 2.43893e-13 1.83581e-13 8.12939e-13 3.30841e-14 0 0 4.07485e-13 -9.53596e-14 9.81735e-13 -1.17788e-13 0 0 3.26868e-13 5.57482e-14 6.62615e-13 1.4988e-13 0 0 2.37759e-13 1.67793e-13 5.26793e-13 2.23219e-13 0 0 -2.46511e-14 6.57755e-13 2.24309e-13 1.0199e-13 0 0 -1.04774e-13 8.87732e-13 -9.49947e-14 2.50473e-13 0 0 -3.21291e-14 8.568e-13 -3.80368e-13 5.76515e-13 0 0 -6.8494e-14 9.5275e-13 -5.64625e-13 7.00309e-13 0
				</DataArray>
				<DataArray Name="VitesseY" type="Float32" format="ascii">