<?xml version="1.0"?>
<VTKFile type="PolyData">
	<PolyData>
		<Piece NumberOfPoints="1206" NumberOfPolys="1000">
			<Points>
				<DataArray type="Float32" NumberOfComponents="3" format="ascii">
 0 0 0 0.02 0 0 0.04 0 0 0.06 0 0 0.08 0 0 0.1 0 0 0 0.005 0 0.02 0.005 0 0.04 0.005 0 0.06 0.005 0 0.08 0.005 0 0.1 0.005 0 0 0.01 0 0.02 0.01 0 0.04 0.01 0 0.06 0.01 0 0.08 0.01 0 0.1 0.01 0 0 0.015 0 0.02 0.015 0 0.04 0.015 0 0.06 0.015 0 0.08 0.015 0 0.1 0.015 0 0 0.02 0 0.02 0.02 0 0.04 0.02 0 0.06 0.02 0 0.08 0.02 0 0.1 0.02 0 0 0.025 0 0.02 0.025 0 0.04 0.025 0 0.06 0.025 0 0.08 0.025 0 0.1 0.025 0 0 0.03 0 0.02 0.03 0 0.04 0.03 0 0.06 0.03 0 0.08 0.03 0 0.1 0.03 0 0 0.035 0 0.02 0.035 0 0.04 0.035 0 0.06 0.035 0 0.08 0.035 0 0.1 0.035 0 0 0.04 0 0.02 0.04 0 0.04 0.04 0 0.06 0.04 0 0.08 0.04 0 0.1 0.04 0 0 0.045 0 0.02 0.045 0 0.04 0.045 0 0.06 0.045 0 0.08 0.045 0 0.1 0.045 0 0 0.05 0 0.02 0.05 0 0.04 0.05 0 0.06 0.05 0 0.08 0.05 0 0.1 0.05 0 0 0.055 0 0.02 0.055 0 0.04 0.055 0 0.06 0.055 0 0.08 0.055 0 0.1 0.055 0 0 0.06 0 0.02 0.06 0 0.04 0.06 0 0.06 0.06 0 0.08 0.06 0 0.1 0.06 0 0 0.065 0 0.02 0.065 0 0.04 0.065 0 0.06 0.065 0 0.08 0.065 0 0.1 0.065 0 0 0.07 0 0.02 0.07 0 0.04 0.07 0 0.06 0.07 0 0.08 0.07 0 0.1 0.07 0 0 0.075 0 0.02 0.075 0 0.04 0.075 0 0.06 0.075 0 0.08 0.075 0 0.1 0.075 0 0 0.08 0 0.02 0.08 0 0.04 0.08 0 0.06 0.08 0 0.08 0.08 0 0.1 0.08 0 0 0.085 0 0.02 0.085 0 0.04 0.085 0 0.06 0.085 0 0.08 0.085 0 0.1 0.085 0 0 0.09 0 0.02 0.09 0 0.04 0.09 0 0.06 0.09 0 0.08 0.09 0 0.1 0.09 0 0 0.095 0 0.02 0.095 0 0.04 0.095 0 0.06 0.095 0 0.08 0.095 0 0.1 0.095 0 0 0.1 0 0.02 0.1 0 0.04 0.1 0 0.06 0.1 0 0.08 0.1 0 0.1 0.1 0 0 0.105 0 0.02 0.105 0 0.04 0.105 0 0.06 0.105 0 0.08 0.105 0 0.1 0.105 0 0 0.11 0 0.02 0.11 0 0.04 0.11 0 0.06 0.11 0 0.08 0.11 0 0.1 0.11 0 0 0.115 0 0.02 0.115 0 0.04 0.115 0 0.06 0.115 0 0.08 0.115 0 0.1 0.115 0 0 0.12 0 0.02 0.12 0 0.04 0.12 0 0.06 0.12 0 0.08 0.12 0 0.1 0.12 0 0 0.125 0 0.02 0.125 0 0.04 0.125 0 0.06 0.125 0 0.08 0.125 0 0.1 0.125 0 0 0.13 0 0.02 0.13 0 0.04 0.13 0 0.06 0.13 0 0.08 0.13 0 0.1 0.13 0 0 0.135 0 0.02 0.135 0 0.04 0.135 0 0.06 0.135 0 0.08 0.135 0 0.1 0.135 0 0 0.14 0 0.02 0.14 0 0.04 0.14 0 0.06 0.14 0 0.08 0.14 0 0.1 0.14 0 0 0.145 0 0.02 0.145 0 0.04 0.145 0 0.06 0.145 0 0.08 0.145 0 0.1 0.145 0 0 0.15 0 0.02 0.15 0 0.04 0.15 0 0.06 0.15 0 0.08 0.15 0 0.1 0.15 0 0 0.155 0 0.02 0.155 0 0.04 0.155 0 0.06 0.155 0 0.08 0.155 0 0.1 0.155 0 0 0.16 0 0.02 0.16 0 0.04 0.16 0 0.06 0.16 0 0.08 0.16 0 0.1 0.16 0 0 0.165 0 0.02 0.165 0 0.04 0.165 0 0.06 0.165 0 0.08 0.165 0 0.1 0.165 0 0 0.17 0 0.02 0.17 0 0.04 0.17 0 0.06 0.17 0 0.08 0.17 0 0.1 0.17 0 0 0.175 0 0.02 0.175 0 0.04 0.175 0 0.06 0.175 0 0.08 0.175 0 0.1 0.175 0 0 0.18 0 0.02 0.18 0 0.04 0.18 0 0.06 0.18 0 0.08 0.18 0 0.1 0.18 0 0 0.185 0 0.02 0.185 0 0.04 0.185 0 0.06 0.185 0 0.08 0.185 0 0.1 0.185 0 0 0.19 0 0.02 0.19 0 0.04 0.19 0 0.06 0.19 0 0.08 0.19 0 0.1 0.19 0 0 0.195 0 0.02 0.195 0 0.04 0.195 0 0.06 0.195 0 0.08 0.195 0 0.1 0.195 0 0 0.2 0 0.02 0.2 0 0.04 0.2 0 0.06 0.2 0 0.08 0.2 0 0.1 0.2 0 0 0.205 0 0.02 0.205 0 0.04 0.205 0 0.06 0.205 0 0.08 0.205 0 0.1 0.205 0 0 0.21 0 0.02 0.21 0 0.04 0.21 0 0.06 0.21 0 0.08 0.21 0 0.1 0.21 0 0 0.215 0 0.02 0.215 0 0.04 0.215 0 0.06 0.215 0 0.08 0.215 0 0.1 0.215 0 0 0.22 0 0.02 0.22 0 0.04 0.22 0 0.06 0.22 0 0.08 0.22 0 0.1 0.22 0 0 0.225 0 0.02 0.225 0 0.04 0.225 0 0.06 0.225 0 0.08 0.225 0 0.1 0.225 0 0 0.23 0 0.02 0.23 0 0.04 0.23 0 0.06 0.23 0 0.08 0.23 0 0.1 0.23 0 0 0.235 0 0.02 0.235 0 0.04 0.235 0 0.06 0.235 0 0.08 0.235 0 0.1 0.235 0 0 0.24 0 0.02 0.24 0 0.04 0.24 0 0.06 0.24 0 0.08 0.24 0 0.1 0.24 0 0 0.245 0 0.02 0.245 0 0.04 0.245 0 0.06 0.245 0 0.08 0.245 0 0.1 0.245 0 0 0.25 0 0.02 0.25 0 0.04 0.25 0 0.06 0.25 0 0.08 0.25 0 0.1 0.25 0 0 0.255 0 0.02 0.255 0 0.04 0.255 0 0.06 0.255 0 0.08 0.255 0 0.1 0.255 0 0 0.26 0 0.02 0.26 0 0.04 0.26 0 0.06 0.26 0 0.08 0.26 0 0.1 0.26 0 0 0.265 0 0.02 0.265 0 0.04 0.265 0 0.06 0.265 0 0.08 0.265 0 0.1 0.265 0 0 0.27 0 0.02 0.27 0 0.04 0.27 0 0.06 0.27 0 0.08 0.27 0 0.1 0.27 0 0 0.275 0 0.02 0.275 0 0.04 0.275 0 0.06 0.275 0 0.08 0.275 0 0.1 0.275 0 0 0.28 0 0.02 0.28 0 0.04 0.28 0 0.06 0.28 0 0.08 0.28 0 0.1 0.28 0 0 0.285 0 0.02 0.285 0 0.04 0.285 0 0.06 0.285 0 0.08 0.285 0 0.1 0.285 0 0 0.29 0 0.02 0.29 0 0.04 0.29 0 0.06 0.29 0 0.08 0.29 0 0.1 0.29 0 0 0.295 0 0.02 0.295 0 0.04 0.295 0 0.06 0.295 0 0.08 0.295 0 0.1 0.295 0 0 0.3 0 0.02 0.3 0 0.04 0.3 0 0.06 0.3 0 0.08 0.3 0 0.1 0.3 0 0 0.305 0 0.02 0.305 0 0.04 0.305 0 0.06 0.305 0 0.08 0.305 0 0.1 0.305 0 0 0.31 0 0.02 0.31 0 0.04 0.31 0 0.06 0.31 0 0.08 0.31 0 0.1 0.31 0 0 0.315 0 0.02 0.315 0 0.04 0.315 0 0.06 0.315 0 0.08 0.315 0 0.1 0.315 0 0 0.32 0 0.02 0.32 0 0.04 0.32 0 0.06 0.32 0 0.08 0.32 0 0.1 0.32 0 0 0.325 0 0.02 0.325 0 0.04 0.325 0 0.06 0.325 0 0.08 0.325 0 0.1 0.325 0 0 0.33 0 0.02 0.33 0 0.04 0.33 0 0.06 0.33 0 0.08 0.33 0 0.1 0.33 0 0 0.335 0 0.02 0.335 0 0.04 0.335 0 0.06 0.335 0 0.08 0.335 0 0.1 0.335 0 0 0.34 0 0.02 0.34 0 0.04 0.34 0 0.06 0.34 0 0.08 0.34 0 0.1 0.34 0 0 0.345 0 0.02 0.345 0 0.04 0.345 0 0.06 0.345 0 0.08 0.345 0 0.1 0.345 0 0 0.35 0 0.02 0.35 0 0.04 0.35 0 0.06 0.35 0 0.08 0.35 0 0.1 0.35 0 0 0.355 0 0.02 0.355 0 0.04 0.355 0 0.06 0.355 0 0.08 0.355 0 0.1 0.355 0 0 0.36 0 0.02 0.36 0 0.04 0.36 0 0.06 0.36 0 0.08 0.36 0 0.1 0.36 0 0 0.365 0 0.02 0.365 0 0.04 0.365 0 0.06 0.365 0 0.08 0.365 0 0.1 0.365 0 0 0.37 0 0.02 0.37 0 0.04 0.37 0 0.06 0.37 0 0.08 0.37 0 0.1 0.37 0 0 0.375 0 0.02 0.375 0 0.04 0.375 0 0.06 0.375 0 0.08 0.375 0 0.1 0.375 0 0 0.38 0 0.02 0.38 0 0.04 0.38 0 0.06 0.38 0 0.08 0.38 0 0.1 0.38 0 0 0.385 0 0.02 0.385 0 0.04 0.385 0 0.06 0.385 0 0.08 0.385 0 0.1 0.385 0 0 0.39 0 0.02 0.39 0 0.04 0.39 0 0.06 0.39 0 0.08 0.39 0 0.1 0.39 0 0 0.395 0 0.02 0.395 0 0.04 0.395 0 0.06 0.395 0 0.08 0.395 0 0.1 0.395 0 0 0.4 0 0.02 0.4 0 0.04 0.4 0 0.06 0.4 0 0.08 0.4 0 0.1 0.4 0 0 0.405 0 0.02 0.405 0 0.04 0.405 0 0.06 0.405 0 0.08 0.405 0 0.1 0.405 0 0 0.41 0 0.02 0.41 0 0.04 0.41 0 0.06 0.41 0 0.08 0.41 0 0.1 0.41 0 0 0.415 0 0.02 0.415 0 0.04 0.415 0 0.06 0.415 0 0.08 0.415 0 0.1 0.415 0 0 0.42 0 0.02 0.42 0 0.04 0.42 0 0.06 0.42 0 0.08 0.42 0 0.1 0.42 0 0 0.425 0 0.02 0.425 0 0.04 0.425 0 0.06 0.425 0 0.08 0.425 0 0.1 0.425 0 0 0.43 0 0.02 0.43 0 0.04 0.43 0 0.06 0.43 0 0.08 0.43 0 0.1 0.43 0 0 0.435 0 0.02 0.435 0 0.04 0.435 0 0.06 0.435 0 0.08 0.435 0 0.1 0.435 0 0 0.44 0 0.02 0.44 0 0.04 0.44 0 0.06 0.44 0 0.08 0.44 0 0.1 0.44 0 0 0.445 0 0.02 0.445 0 0.04 0.445 0 0.06 0.445 0 0.08 0.445 0 0.1 0.445 0 0 0.45 0 0.02 0.45 0 0.04 0.45 0 0.06 0.45 0 0.08 0.45 0 0.1 0.45 0 0 0.455 0 0.02 0.455 0 0.04 0.455 0 0.06 0.455 0 0.08 0.455 0 0.1 0.455 0 0 0.46 0 0.02 0.46 0 0.04 0.46 0 0.06 0.46 0 0.08 0.46 0 0.1 0.46 0 0 0.465 0 0.02 0.465 0 0.04 0.465 0 0.06 0.465 0 0.08 0.465 0 0.1 0.465 0 0 0.47 0 0.02 0.47 0 0.04 0.47 0 0.06 0.47 0 0.08 0.47 0 0.1 0.47 0 0 0.475 0 0.02 0.475 0 0.04 0.475 0 0.06 0.475 0 0.08 0.475 0 0.1 0.475 0 0 0.48 0 0.02 0.48 0 0.04 0.48 0 0.06 0.48 0 0.08 0.48 0 0.1 0.48 0 0 0.485 0 0.02 0.485 0 0.04 0.485 0 0.06 0.485 0 0.08 0.485 0 0.1 0.485 0 0 0.49 0 0.02 0.49 0 0.04 0.49 0 0.06 0.49 0 0.08 0.49 0 0.1 0.49 0 0 0.495 0 0.02 0.495 0 0.04 0.495 0 0.06 0.495 0 0.08 0.495 0 0.1 0.495 0 0 0.5 0 0.02 0.5 0 0.04 0.5 0 0.06 0.5 0 0.08 0.5 0 0.1 0.5 0 0 0.505 0 0.02 0.505 0 0.04 0.505 0 0.06 0.505 0 0.08 0.505 0 0.1 0.505 0 0 0.51 0 0.02 0.51 0 0.04 0.51 0 0.06 0.51 0 0.08 0.51 0 0.1 0.51 0 0 0.515 0 0.02 0.515 0 0.04 0.515 0 0.06 0.515 0 0.08 0.515 0 0.1 0.515 0 0 0.52 0 0.02 0.52 0 0.04 0.52 0 0.06 0.52 0 0.08 0.52 0 0.1 0.52 0 0 0.525 0 0.02 0.525 0 0.04 0.525 0 0.06 0.525 0 0.08 0.525 0 0.1 0.525 0 0 0.53 0 0.02 0.53 0 0.04 0.53 0 0.06 0.53 0 0.08 0.53 0 0.1 0.53 0 0 0.535 0 0.02 0.535 0 0.04 0.535 0 0.06 0.535 0 0.08 0.535 0 0.1 0.535 0 0 0.54 0 0.02 0.54 0 0.04 0.54 0 0.06 0.54 0 0.08 0.54 0 0.1 0.54 0 0 0.545 0 0.02 0.545 0 0.04 0.545 0 0.06 0.545 0 0.08 0.545 0 0.1 0.545 0 0 0.55 0 0.02 0.55 0 0.04 0.55 0 0.06 0.55 0 0.08 0.55 0 0.1 0.55 0 0 0.555 0 0.02 0.555 0 0.04 0.555 0 0.06 0.555 0 0.08 0.555 0 0.1 0.555 0 0 0.56 0 0.02 0.56 0 0.04 0.56 0 0.06 0.56 0 0.08 0.56 0 0.1 0.56 0 0 0.565 0 0.02 0.565 0 0.04 0.565 0 0.06 0.565 0 0.08 0.565 0 0.1 0.565 0 0 0.57 0 0.02 0.57 0 0.04 0.57 0 0.06 0.57 0 0.08 0.57 0 0.1 0.57 0 0 0.575 0 0.02 0.575 0 0.04 0.575 0 0.06 0.575 0 0.08 0.575 0 0.1 0.575 0 0 0.58 0 0.02 0.58 0 0.04 0.58 0 0.06 0.58 0 0.08 0.58 0 0.1 0.58 0 0 0.585 0 0.02 0.585 0 0.04 0.585 0 0.06 0.585 0 0.08 0.585 0 0.1 0.585 0 0 0.59 0 0.02 0.59 0 0.04 0.59 0 0.06 0.59 0 0.08 0.59 0 0.1 0.59 0 0 0.595 0 0.02 0.595 0 0.04 0.595 0 0.06 0.595 0 0.08 0.595 0 0.1 0.595 0 0 0.6 0 0.02 0.6 0 0.04 0.6 0 0.06 0.6 0 0.08 0.6 0 0.1 0.6 0 0 0.605 0 0.02 0.605 0 0.04 0.605 0 0.06 0.605 0 0.08 0.605 0 0.1 0.605 0 0 0.61 0 0.02 0.61 0 0.04 0.61 0 0.06 0.61 0 0.08 0.61 0 0.1 0.61 0 0 0.615 0 0.02 0.615 0 0.04 0.615 0 0.06 0.615 0 0.08 0.615 0 0.1 0.615 0 0 0.62 0 0.02 0.62 0 0.04 0.62 0 0.06 0.62 0 0.08 0.62 0 0.1 0.62 0 0 0.625 0 0.02 0.625 0 0.04 0.625 0 0.06 0.625 0 0.08 0.625 0 0.1 0.625 0 0 0.63 0 0.02 0.63 0 0.04 0.63 0 0.06 0.63 0 0.08 0.63 0 0.1 0.63 0 0 0.635 0 0.02 0.635 0 0.04 0.635 0 0.06 0.635 0 0.08 0.635 0 0.1 0.635 0 0 0.64 0 0.02 0.64 0 0.04 0.64 0 0.06 0.64 0 0.08 0.64 0 0.1 0.64 0 0 0.645 0 0.02 0.645 0 0.04 0.645 0 0.06 0.645 0 0.08 0.645 0 0.1 0.645 0 0 0.65 0 0.02 0.65 0 0.04 0.65 0 0.06 0.65 0 0.08 0.65 0 0.1 0.65 0 0 0.655 0 0.02 0.655 0 0.04 0.655 0 0.06 0.655 0 0.08 0.655 0 0.1 0.655 0 0 0.66 0 0.02 0.66 0 0.04 0.66 0 0.06 0.66 0 0.08 0.66 0 0.1 0.66 0 0 0.665 0 0.02 0.665 0 0.04 0.665 0 0.06 0.665 0 0.08 0.665 0 0.1 0.665 0 0 0.67 0 0.02 0.67 0 0.04 0.67 0 0.06 0.67 0 0.08 0.67 0 0.1 0.67 0 0 0.675 0 0.02 0.675 0 0.04 0.675 0 0.06 0.675 0 0.08 0.675 0 0.1 0.675 0 0 0.68 0 0.02 0.68 0 0.04 0.68 0 0.06 0.68 0 0.08 0.68 0 0.1 0.68 0 0 0.685 0 0.02 0.685 0 0.04 0.685 0 0.06 0.685 0 0.08 0.685 0 0.1 0.685 0 0 0.69 0 0.02 0.69 0 0.04 0.69 0 0.06 0.69 0 0.08 0.69 0 0.1 
[...]
			<PointData Scalars="VitesseX">
				<DataArray Name="VitesseX" type="Float32" format="ascii">
 0 -1.19568e-14 -1.36535e-14 -2.09866e-14 -2.37022e-14 0 0 -1.10727e-14 -1.66413e-14 -1.66425e-14 -2.66319e-14 0 0 -1.33549e-14 -1.56492e-14 -1.60104e-14 -2.64186e-14 0 0 -1.40109e-14 -1.81207e-14 -1.35232e-14 -2.44793e-14 0 0 -1.29901e-14 -2.17127e-14 -1.29433e-14 -1.77703e-14 0 0 -1.29311e-14 -2.2433e-14 -1.6539e-14 -1.24557e-14 0 0 -1.62271e-14 -2.01642e-14 -2.26653e-14 -1.39108e-14 0 0 -3.01025e-14 -5.03888e-15 -4.18627e-14 5.65316e-16 0 0 -3.0998e-14 -1.19507e-14 -2.87893e-14 -1.14995e-14 0 0 -3.38754e-14 -1.28705e-14 -1.51213e-14 -3.1167e-14 0 0 -2.7203e-14 -2.44904e-14 -1.01878e-14 -2.55267e-14 0 0 -1.85409e-14 -3.39922e-14 -1.79707e-14 -6.62643e-15 0 0 -1.59072e-14 -2.83772e-14 -1.53401e-14 -1.25835e-14 0 0 -1.59225e-14 -1.56343e-14 -1.43166e-14 -2.2251e-14 0 0 -2.16722e-14 -7.48249e-15 -2.06179e-14 -8.70441e-15 0 0 -3.10134e-15 -3.65291e-14 1.32542e-14 -1.88395e-14 0 0 -9.66706e-15 -1.43777e-14 -1.71582e-14 6.61645e-15 0 0 -1.38794e-14 2.942e-15 -5.62852e-14 4.03935e-14 0 0 -5.24675e-15 -7.06069e-15 -4.5379e-14 3.50457e-14 0 0 -1.74308e-14 1.64667e-15 -4.29084e-14 2.42191e-14 0 0 5.47831e-15 -4.4654e-14 1.11854e-14 -2.858e-14 0 0 1.96754e-15 -4.06845e-14 9.88067e-15 -4.47231e-14 0 0 3.39461e-15 -4.99064e-14 4.83084e-15 -3.12091e-14 0 0 -7.66791e-15 -3.95077e-14 2.39107e-15 -3.86297e-14 0 0 -5.62638e-14 2.95735e-14 -2.57268e-14 -5.65675e-14 0 0 -3.54287e-14 -8.56272e-15 2.84337e-14 -9.7014e-14 0 0 -3.55632e-14 -1.03107e-14 3.99045e-14 -1.23154e-13 0 0 -8.32321e-14 5.9761e-14 -4.56078e-14 -7.24324e-14 0 0 -1.6035e-14 -3.96356e-14 -4.68761e-15 -4.34682e-14 0 0 5.2487e-14 -1.20986e-13 1.77369e-14 -8.26597e-15 0 0 1.35424e-14 -2.2551e-14 -7.53342e-14 2.90443e-15 0 0 -1.91939e-14 3.40434e-14 -7.43852e-14 -5.4294e-14 0 0 -2.42417e-15 -1.26665e-14 -1.54609e-14 -7.18366e-14 0 0 -2.44715e-15 -9.84594e-15 -2.59849e-14 -6.01661e-14 0 0 8.68748e-15 -3.43843e-14 4.91762e-15 -8.8775e-14 0 0 -1.25896e-14 -1.32057e-14 -1.8868e-14 -6.39613e-14 0 0 -3.66317e-14 1.63563e-14 -6.48176e-14 2.20491e-15 0 0 -1.44539e-14 -4.77195e-14 -2.59755e-14 3.69918e-14 0 0 -1.51651e-14 -5.41169e-14 -3.50884e-14 6.74054e-14 0 0 -4.36729e-14 -1.4499e-15 -1.03682e-13 1.06174e-13 0 0 -9.39582e-14 2.79061e-14 -1.43384e-13 9.49771e-14 0 0 -4.77082e-14 -6.46707e-14 -4.67375e-14 -1.01273e-15 0 0 5.8121e-15 -1.18498e-13 4.25331e-15 -2.64372e-14 0 0 -4.52033e-14 -4.23988e-14 -4.89272e-14 -8.86248e-15 0 0 -1.2399e-13 5.76515e-14 -1.37791e-13 4.97078e-14 0 0 -7.075e-14 -2.57218e-14 -1.17385e-13 1.02649e-13 0 0 -1.04061e-13 -1.89411e-14 -8.92028e-14 8.79451e-14 0 0 -1.41773e-13 4.33151e-14 -1.27719e-13 6.44542e-14 0 0 -3.85093e-14 -9.50514e-14 -3.89177e-14 -2.75681e-14 0 0 2.03055e-14 -2.59935e-13 9.72619e-14 -1.12225e-13 0 0 1.89913e-14 -2.52915e-13 3.02412e-14 -8.81017e-14 0 0 -1.36611e-14 -1.8216e-13 -5.73595e-14 -9.358e-14 0 0 -5.6469e-15 -2.0711e-13 -5.13024e-14 -1.12693e-13 0 0 5.77109e-14 -2.99678e-13 1.37817e-14 -1.26473e-13 0 0 -3.34095e-14 -1.71888e-13 -1.55771e-13 6.36219e-14 0 0 -6.58568e-14 -1.75466e-13 -2.09393e-13 1.27301e-13 0 0 -1.60983e-14 -3.61759e-13 1.41111e-14 -9.12225e-14 0 0 -1.28586e-13 -1.95474e-13 -8.75632e-14 -1.29185e-13 0 0 -1.71721e-13 -1.00186e-13 -1.44217e-13 -1.3328e-13 0 0 -1.04528e-13 -1.88035e-13 -8.93425e-14 -1.11666e-13 0 0 -2.60261e-14 -2.6384e-13 -1.02441e-13 -6.56781e-14 0 0 -1.06127e-13 -1.99055e-13 -1.316e-13 -9.60923e-14 0 0 -2.58362e-13 -1.19112e-13 -7.88011e-14 -1.3307e-13 0 0 -3.52027e-13 -1.85829e-13 1.00452e-13 -2.56886e-13 0 0 -3.83701e-13 -2.32324e-13 1.37139e-13 -2.76426e-13 0 0 -3.6725e-13 -2.22924e-13 3.29462e-14 -2.17927e-13 0 0 -3.02331e-13 -2.69546e-13 -2.75216e-14 -2.08004e-13 0 0 -2.49959e-13 -2.85853e-13 -9.05206e-14 -1.58762e-13 0 0 -2.75606e-13 -2.12456e-13 -2.19859e-13 -4.87301e-14 0 0 -2.96645e-13 -1.89453e-13 -2.9784e-13 4.96616e-14 0 0 -2.59711e-13 -2.46546e-13 -2.1289e-13 -2.91842e-15 0 0 -2.43642e-13 -3.40205e-13 -9.81135e-14 -9.49213e-14 0 0 -2.39003e-13 -4.03768e-13 -9.15916e-14 -8.79539e-14 0 0 -2.3851e-13 -3.88403e-13 -1.42422e-13 -4.25539e-14 0 0 -2.49877e-13 -3.51292e-13 -2.492e-13 3.37931e-14 0 0 -2.76482e-13 -2.96779e-13 -3.24985e-13 1.66375e-14 0 0 -2.82135e-13 -2.71281e-13 -3.11778e-13 -5.23573e-14 0 0 -2.65262e-13 -2.8515e-13 -2.39868e-13 -1.31915e-13 0 0 -2.37899e-13 -3.17487e-13 -1.4139e-13 -1.22667e-13 0 0 -2.3068e-13 -3.60681e-13 -7.47539e-14 -7.11805e-14 0 0 -2.43424e-13 -4.35072e-13 -1.02468e-13 -9.8437e-15 0 0 -3.38558e-13 -6.2414e-13 -2.95327e-13 -6.79455e-14 0 0 -6.87386e-13 -1.21292e-12 -9.49579e-13 -3.84534e-13 0 0 -1.75353e-12 -2.99563e-12 -2.80001e-12 -1.45475e-12 0 0 -4.79991e-12 -8.03928e-12 -7.84291e-12 -4.58589e-12 0 0 -1.31169e-11 -2.16487e-11 -2.13896e-11 -1.30767e-11 0 0 -3.49292e-11 -5.7092e-11 -5.68232e-11 -3.51221e-11 0 0 -9.00284e-11 -1.46382e-10 -1.46316e-10 -9.05767e-11 0 0 -2.2426e-10 -3.63851e-10 -3.64445e-10 -2.25652e-10 0 0 -5.39971e-10 -8.75695e-10 -8.78045e-10 -5.43814e-10 0 0 -1.25742e-09 -2.03995e-09 -2.04698e-09 -1.26846e-09 0 0 -2.83335e-09 -4.59993e-09 -4.61967e-09 -2.86478e-09 0 0 -6.18025e-09 -1.00429e-08 -1.00967e-08 -6.26682e-09 0 0 -1.30604e-08 -2.12345e-08 -2.13815e-08 -1.32837e-08 0 0 -2.66906e-08 -4.39145e-08 -4.38486e-08 -2.72866e-08 0 0 -5.41844e-08 -8.61377e-08 -8.90357e-08 -5.55768e-08 0 0 -1.01372e-07 -1.72978e-07 -1.70021e-07 -1.04801e-07 0 0 -1.99663e-07 -3.09703e-07 -3.15782e-07 -2.02517e-07 0 0 -3.42174e-07 -5.96489e-07 -6.09523e-07 -3.76042e-07 0 0 -6.15254e-07 -9.81802e-07 -1.00065e-06 -6.24539e-07 0 0 -1.08653e-06 -1.77922e-06 -1.81802e-06 -1.16066e-06 0 0 -1.63186e-06 -2.79847e-06 -2.91977e-06 -1.82358e-06 0 0 -2.75024e-06 -4.44427e-06 -4.49603e-06 -2.85474e-06 0 0 -4.1e-06 -6.88e-06 -7.2042e-06 -4.6032e-06 0 0 -5.93566e-06 -9.92403e-06 -1.03111e-05 -6.53486e-06 0 0 -8.25422e-06 -1.37826e-05 -1.42813e-05 -9.07925e-06 0 0 -1.09197e-05 -1.8078e-05 -1.85687e-05 -1.17351e-05 0 0 -1.35576e-05 -2.22608e-05 -2.26622e-05 -1.42216e-05 0 0 -1.60905e-05 -2.61368e-05 -2.62701e-05 -1.63062e-05 0 0 -1.84182e-05 -2.9461e-05 -2.90488e-05 -1.77188e-05 0 0 -2.04628e-05 -3.20348e-05 -3.07499e-05 -1.86145e-05 0 0 -2.21403e-05 -3.37057e-05 -3.14237e-05 -1.81912e-05 0 0 -2.33265e-05 -3.46477e-05 -3.06488e-05 -1.70211e-05 0 0 -2.4023e-05 -3.40344e-05 -2.86038e-05 -1.45705e-05 0 0 -2.36588e-05 -3.25175e-05 -2.49062e-05 -1.16273e-05 0 0 -2.26741e-05 -2.97436e-05 -2.08905e-05 -8.4657e-06 0 0 -2.06481e-05 -2.56277e-05 -1.61516e-05 -5.41112e-06 0 0 -1.74732e-05 -2.03302e-05 -1.12585e-05 -2.69567e-06 0 0 -1.24388e-05 -1.40641e-05 -6.57455e-06 -6.69236e-07 0 0 -6.4401e-06 -6.42339e-06 -2.45731e-06 7.79271e-07 0 0 1.95605e-06 1.32409e-06 7.82187e-07 9.99696e-08 0 0 1.07486e-05 1.09516e-05 3.00676e-06 -2.19504e-06 0 0 2.3379e-05 2.1825e-05 2.37661e-06 -7.07908e-06 0 0 3.83851e-05 3.23846e-05 -6.62383e-08 -1.52091e-05 0 0 5.20664e-05 4.31519e-05 -3.1912e-06 -2.30397e-05 0 0 6.81094e-05 5.35284e-05 -9.11592e-06 -3.10541e-05 0 0 7.96454e-05 6.30027e-05 -1.48612e-05 -4.21659e-05 0 0 9.87903e-05 7.27453e-05 -1.81995e-05 -5.29622e-05 0 0 0.000102227 7.2102e-05 -2.63519e-05 -6.19481e-05 0 0 9.53801e-05 6.60276e-05 -3.59092e-05 -6.75045e-05 0 0 7.43177e-05 5.24268e-05 -2.99095e-05 -6.80483e-05 0 0 2.2112e-05 5.39941e-05 -4.94898e-06 -6.84982e-05 0 0 -9.1484e-05 7.55263e-05 6.50484e-05 -7.36902e-05 0 0 -0.000172863 9.33449e-05 0.000108625 -9.439e-05 0 0 -0.00017193 8.89858e-05 0.000106638 -0.000101473 0 0 -0.000155386 6.86879e-05 9.20708e-05 -9.77523e-05 0 0 -0.000108396 5.27893e-06 4.59948e-05 -8.49412e-05 0 0 -3.58228e-05 -8.78093e-05 -5.68578e-05 -7.43367e-05 0 0 9.84057e-05 -0.00018547 -0.000236247 -5.95715e-05 0 0 0.000135968 -0.000175792 -0.000270499 -5.73001e-05 0 0 9.71477e-05 -5.2693e-05 -0.000151863 -5.13055e-05 0 0 5.3011e-05 9.97309e-05 6.95465e-05 5.21386e-06 0 0 2.69339e-05 0.000128397 0.000161241 8.6238e-05 0 0 1.04434e-05 0.000120763 0.000164916 0.00011241 0 0 1.46947e-06 9.12104e-05 0.000154183 0.000111021 0 0 1.6921e-06 5.95338e-05 0.000107919 9.14176e-05 0 0 6.60175e-06 3.23698e-05 5.90055e-05 5.50653e-05 0 0 1.05642e-05 2.97141e-05 4.67074e-05 3.34725e-05 0 0 1.05323e-05 3.14699e-05 4.61772e-05 3.14451e-05 0 0 1.09789e-05 3.40014e-05 4.79212e-05 3.27425e-05 0 0 1.16632e-05 3.53746e-05 5.01453e-05 3.57362e-05 0 0 1.35474e-05 3.595e-05 4.98646e-05 3.60617e-05 0 0 1.7796e-05 3.66126e-05 4.64342e-05 3.32985e-05 0 0 2.19624e-05 3.73277e-05 4.12848e-05 2.76054e-05 0 0 2.41897e-05 3.74926e-05 3.718e-05 2.32403e-05 0 0 2.46382e-05 3.73816e-05 3.49233e-05 2.09804e-05 0 0 2.46697e-05 3.69945e-05 3.36304e-05 1.95579e-05 0 0 2.45085e-05 3.64195e-05 3.22585e-05 1.79534e-05 0 0 2.47832e-05 3.64393e-05 3.12745e-05 1.671e-05 0 0 2.52331e-05 3.6674e-05 3.13466e-05 1.66712e-05 0 0 2.54829e-05 3.73699e-05 3.24986e-05 1.76373e-05 0 0 2.54342e-05 3.80097e-05 3.41233e-05 1.91433e-05 0 0 2.49521e-05 3.79907e-05 3.49487e-05 2.01529e-05 0 0 2.37832e-05 3.69326e-05 3.47317e-05 2.03005e-05 0 0 2.18798e-05 3.4245e-05 3.29218e-05 1.96396e-05 0 0 1.91376e-05 3.02185e-05 2.92756e-05 1.76378e-05 0 0 1.56447e-05 2.48904e-05 2.43526e-05 1.47751e-05 0 0 1.17252e-05 1.8764e-05 1.85011e-05 1.13e-05 0 0 7.86014e-06 1.26395e-05 1.25401e-05 7.69925e-06 0 0 4.59448e-06 7.40998e-06 7.38008e-06 4.5461e-06 0 0 2.29985e-06 3.71589e-06 3.70925e-06 2.28911e-06 0 0 9.8833e-07 1.59846e-06 1.59761e-06 9.86955e-07 0 0 3.76833e-07 6.09743e-07 6.0976e-07 3.76861e-07 0 0 1.33112e-07 2.15422e-07 2.15474e-07 1.33196e-07 0 0 4.50645e-08 7.29327e-08 7.29531e-08 4.50978e-08 0 0 1.48808e-08 2.40826e-08 2.40884e-08 1.48906e-08 0 0 4.83065e-09 7.81726e-09 7.81871e-09 4.83301e-09 0 0 1.5466e-09 2.50249e-09 2.5029e-09 1.54694e-09 0 0 4.88931e-10 7.9101e-10 7.91122e-10 4.88854e-10 0 0 1.52562e-10 2.47e-10 2.46845e-10 1.52507e-10 0 0 4.6956e-11 7.60724e-11 7.59358e-11 4.68383e-11 0 0 1.42074e-11 2.2974e-11 2.28643e-11 1.40842e-11 0 0 4.21359e-12 6.628e-12 6.65227e-12 4.01216e-12 0 0 1.15948e-12 1.67326e-12 1.80472e-12 9.14608e-13 0 0 1.34715e-13 3.58202e-13 1.92674e-13 1.80606e-13 0 0 -3.80255e-14 -2.08732e-13 -1.29091e-13 -6.82324e-14 0 0 -9.93486e-14 -3.45559e-13 -2.21843e-13 -2.56746e-13 0 0 -2.63385e-13 -1.08259e-13 -5.45712e-13 -1.29716e-13 0 0 -1.33643e-13 -3.16204e-13 -3.84498e-13 -1.32335e-13 0 0 -1.25456e-13 -3.85243e-13 -1.98069e-13 -3.43654e-13 0 0 -3.37769e-13 -1.16268e-13 -3.17255e-13 -3.67562e-13 0 0 -1.76662e-13 -3.65832e-13 -1.18641e-13 -4.15647e-13 0 0 -8.95589e-14 -4.5245e-13 -1.419e-13 -3.64743e-13 0 0 -1.61608e-13 -4.00145e-13 -1.16582e-13 -3.77972e-13 0 0 -2.49246e-13 -3.56275e-13 -1.35993e-13 -3.03623e-13 0 0 -1.16359e-13 -5.3682e-13 -1.19003e-13 -1.79857e-13 0 0 7.54034e-14 -6.7543e-13 -2.77921e-14 -2.76758e-13 0 0 -8.71574e-14 -3.73648e-13 -1.44442e-13 -3.81936e-13 0 0 -2.90149e-13 -2.35254e-13 -2.77138e-13 -2.49432e-13 0 0 -5.42017e-13 8.1675e-14 -6.82115e-13 3.39559e-14 0 0 -6.46825e-13 2.75264e-13 -8.34268e-13 5.03189e-14 0
				</DataArray>
				<DataArray Name="VitesseY" type="Float32" format="ascii">