<?xml version="1.0"?>
<VTKFile type="PolyData">
	<PolyData>
		<Piece NumberOfPoints="1206" NumberOfPolys="1000">
			<Points>
				<DataArray type="Float32" NumberOfComponents="3" format="ascii">
 0 0 0 0.02 0 0 0.04 0 0 0.06 0 0 0.08 0 0 0.1 0 0 0 0.005 0 0.02 0.005 0 0.04 0.005 0 0.06 0.005 0 0.08 0.005 0 0.1 0.005 0 0 0.01 0 0.02 0.01 0 0.04 0.01 0 0.06 0.01 0 0.08 0.01 0 0.1 0.01 0 0 0.015 0 0.02 0.015 0 0.04 0.015 0 0.06 0.015 0 0.08 0.015 0 0.1 0.015 0 0 0.02 0 0.02 0.02 0 0.04 0.02 0 0.06 0.02 0 0.08 0.02 0 0.1 0.02 0 0 0.025 0 0.02 0.025 0 0.04 0.025 0 0.06 0.025 0 0.08 0.025 0 0.1 0.025 0 0 0.03 0 0.02 0.03 0 0.04 0.03 0 0.06 0.03 0 0.08 0.03 0 0.1 0.03 0 0 0.035 0 0.02 0.035 0 0.04 0.035 0 0.06 0.035 0 0.08 0.035 0 0.1 0.035 0 0 0.04 0 0.02 0.04 0 0.04 0.04 0 0.06 0.04 0 0.08 0.04 0 0.1 0.04 0 0 0.045 0 0.02 0.045 0 0.04 0.045 0 0.06 0.045 0 0.08 0.045 0 0.1 0.045 0 0 0.05 0 0.02 0.05 0 0.04 0.05 0 0.06 0.05 0 0.08 0.05 0 0.1 0.05 0 0 0.055 0 0.02 0.055 0 0.04 0.055 0 0.06 0.055 0 0.08 0.055 0 0.1 0.055 0 0 0.06 0 0.02 0.06 0 0.04 0.06 0 0.06 0.06 0 0.08 0.06 0 0.1 0.06 0 0 0.065 0 0.02 0.065 0 0.04 0.065 0 0.06 0.065 0 0.08 0.065 0 0.1 0.065 0 0 0.07 0 0.02 0.07 0 0.04 0.07 0 0.06 0.07 0 0.08 0.07 0 0.1 0.07 0 0 0.075 0 0.02 0.075 0 0.04 0.075 0 0.06 0.075 0 0.08 0.075 0 0.1 0.075 0 0 0.08 0 0.02 0.08 0 0.04 0.08 0 0.06 0.08 0 0.08 0.08 0 0.1 0.08 0 0 0.085 0 0.02 0.085 0 0.04 0.085 0 0.06 0.085 0 0.08 0.085 0 0.1 0.085 0 0 0.09 0 0.02 0.09 0 0.04 0.09 0 0.06 0.09 0 0.08 0.09 0 0.1 0.09 0 0 0.095 0 0.02 0.095 0 0.04 0.095 0 0.06 0.095 0 0.08 0.095 0 0.1 0.095 0 0 0.1 0 0.02 0.1 0 0.04 0.1 0 0.06 0.1 0 0.08 0.1 0 0.1 0.1 0 0 0.105 0 0.02 0.105 0 0.04 0.105 0 0.06 0.105 0 0.08 0.105 0 0.1 0.105 0 0 0.11 0 0.02 0.11 0 0.04 0.11 0 0.06 0.11 0 0.08 0.11 0 0.1 0.11 0 0 0.115 0 0.02 0.115 0 0.04 0.115 0 0.06 0.115 0 0.08 0.115 0 0.1 0.115 0 0 0.12 0 0.02 0.12 0 0.04 0.12 0 0.06 0.12 0 0.08 0.12 0 0.1 0.12 0 0 0.125 0 0.02 0.125 0 0.04 0.125 0 0.06 0.125 0 0.08 0.125 0 0.1 0.125 0 0 0.13 0 0.02 0.13 0 0.04 0.13 0 0.06 0.13 0 0.08 0.13 0 0.1 0.13 0 0 0.135 0 0.02 0.135 0 0.04 0.135 0 0.06 0.135 0 0.08 0.135 0 0.1 0.135 0 0 0.14 0 0.02 0.14 0 0.04 0.14 0 0.06 0.14 0 0.08 0.14 0 0.1 0.14 0 0 0.145 0 0.02 0.145 0 0.04 0.145 0 0.06 0.145 0 0.08 0.145 0 0.1 0.145 0 0 0.15 0 0.02 0.15 0 0.04 0.15 0 0.06 0.15 0 0.08 0.15 0 0.1 0.15 0 0 0.155 0 0.02 0.155 0 0.04 0.155 0 0.06 0.155 0 0.08 0.155 0 0.1 0.155 0 0 0.16 0 0.02 0.16 0 0.04 0.16 0 0.06 0.16 0 0.08 0.16 0 0.1 0.16 0 0 0.165 0 0.02 0.165 0 0.04 0.165 0 0.06 0.165 0 0.08 0.165 0 0.1 0.165 0 0 0.17 0 0.02 0.17 0 0.04 0.17 0 0.06 0.17 0 0.08 0.17 0 0.1 0.17 0 0 0.175 0 0.02 0.175 0 0.04 0.175 0 0.06 0.175 0 0.08 0.175 0 0.1 0.175 0 0 0.18 0 0.02 0.18 0 0.04 0.18 0 0.06 0.18 0 0.08 0.18 0 0.1 0.18 0 0 0.185 0 0.02 0.185 0 0.04 0.185 0 0.06 0.185 0 0.08 0.185 0 0.1 0.185 0 0 0.19 0 0.02 0.19 0 0.04 0.19 0 0.06 0.19 0 0.08 0.19 0 0.1 0.19 0 0 0.195 0 0.02 0.195 0 0.04 0.195 0 0.06 0.195 0 0.08 0.195 0 0.1 0.195 0 0 0.2 0 0.02 0.2 0 0.04 0.2 0 0.06 0.2 0 0.08 0.2 0 0.1 0.2 0 0 0.205 0 0.02 0.205 0 0.04 0.205 0 0.06 0.205 0 0.08 0.205 0 0.1 0.205 0 0 0.21 0 0.02 0.21 0 0.04 0.21 0 0.06 0.21 0 0.08 0.21 0 0.1 0.21 0 0 0.215 0 0.02 0.215 0 0.04 0.215 0 0.06 0.215 0 0.08 0.215 0 0.1 0.215 0 0 0.22 0 0.02 0.22 0 0.04 0.22 0 0.06 0.22 0 0.08 0.22 0 0.1 0.22 0 0 0.225 0 0.02 0.225 0 0.04 0.225 0 0.06 0.225 0 0.08 0.225 0 0.1 0.225 0 0 0.23 0 0.02 0.23 0 0.04 0.23 0 0.06 0.23 0 0.08 0.23 0 0.1 0.23 0 0 0.235 0 0.02 0.235 0 0.04 0.235 0 0.06 0.235 0 0.08 0.235 0 0.1 0.235 0 0 0.24 0 0.02 0.24 0 0.04 0.24 0 0.06 0.24 0 0.08 0.24 0 0.1 0.24 0 0 0.245 0 0.02 0.245 0 0.04 0.245 0 0.06 0.245 0 0.08 0.245 0 0.1 0.245 0 0 0.25 0 0.02 0.25 0 0.04 0.25 0 0.06 0.25 0 0.08 0.25 0 0.1 0.25 0 0 0.255 0 0.02 0.255 0 0.04 0.255 0 0.06 0.255 0 0.08 0.255 0 0.1 0.255 0 0 0.26 0 0.02 0.26 0 0.04 0.26 0 0.06 0.26 0 0.08 0.26 0 0.1 0.26 0 0 0.265 0 0.02 0.265 0 0.04 0.265 0 0.06 0.265 0 0.08 0.265 0 0.1 0.265 0 0 0.27 0 0.02 0.27 0 0.04 0.27 0 0.06 0.27 0 0.08 0.27 0 0.1 0.27 0 0 0.275 0 0.02 0.275 0 0.04 0.275 0 0.06 0.275 0 0.08 0.275 0 0.1 0.275 0 0 0.28 0 0.02 0.28 0 0.04 0.28 0 0.06 0.28 0 0.08 0.28 0 0.1 0.28 0 0 0.285 0 0.02 0.285 0 0.04 0.285 0 0.06 0.285 0 0.08 0.285 0 0.1 0.285 0 0 0.29 0 0.02 0.29 0 0.04 0.29 0 0.06 0.29 0 0.08 0.29 0 0.1 0.29 0 0 0.295 0 0.02 0.295 0 0.04 0.295 0 0.06 0.295 0 0.08 0.295 0 0.1 0.295 0 0 0.3 0 0.02 0.3 0 0.04 0.3 0 0.06 0.3 0 0.08 0.3 0 0.1 0.3 0 0 0.305 0 0.02 0.305 0 0.04 0.305 0 0.06 0.305 0 0.08 0.305 0 0.1 0.305 0 0 0.31 0 0.02 0.31 0 0.04 0.31 0 0.06 0.31 0 0.08 0.31 0 0.1 0.31 0 0 0.315 0 0.02 0.315 0 0.04 0.315 0 0.06 0.315 0 0.08 0.315 0 0.1 0.315 0 0 0.32 0 0.02 0.32 0 0.04 0.32 0 0.06 0.32 0 0.08 0.32 0 0.1 0.32 0 0 0.325 0 0.02 0.325 0 0.04 0.325 0 0.06 0.325 0 0.08 0.325 0 0.1 0.325 0 0 0.33 0 0.02 0.33 0 0.04 0.33 0 0.06 0.33 0 0.08 0.33 0 0.1 0.33 0 0 0.335 0 0.02 0.335 0 0.04 0.335 0 0.06 0.335 0 0.08 0.335 0 0.1 0.335 0 0 0.34 0 0.02 0.34 0 0.04 0.34 0 0.06 0.34 0 0.08 0.34 0 0.1 0.34 0 0 0.345 0 0.02 0.345 0 0.04 0.345 0 0.06 0.345 0 0.08 0.345 0 0.1 0.345 0 0 0.35 0 0.02 0.35 0 0.04 0.35 0 0.06 0.35 0 0.08 0.35 0 0.1 0.35 0 0 0.355 0 0.02 0.355 0 0.04 0.355 0 0.06 0.355 0 0.08 0.355 0 0.1 0.355 0 0 0.36 0 0.02 0.36 0 0.04 0.36 0 0.06 0.36 0 0.08 0.36 0 0.1 0.36 0 0 0.365 0 0.02 0.365 0 0.04 0.365 0 0.06 0.365 0 0.08 0.365 0 0.1 0.365 0 0 0.37 0 0.02 0.37 0 0.04 0.37 0 0.06 0.37 0 0.08 0.37 0 0.1 0.37 0 0 0.375 0 0.02 0.375 0 0.04 0.375 0 0.06 0.375 0 0.08 0.375 0 0.1 0.375 0 0 0.38 0 0.02 0.38 0 0.04 0.38 0 0.06 0.38 0 0.08 0.38 0 0.1 0.38 0 0 0.385 0 0.02 0.385 0 0.04 0.385 0 0.06 0.385 0 0.08 0.385 0 0.1 0.385 0 0 0.39 0 0.02 0.39 0 0.04 0.39 0 0.06 0.39 0 0.08 0.39 0 0.1 0.39 0 0 0.395 0 0.02 0.395 0 0.04 0.395 0 0.06 0.395 0 0.08 0.395 0 0.1 0.395 0 0 0.4 0 0.02 0.4 0 0.04 0.4 0 0.06 0.4 0 0.08 0.4 0 0.1 0.4 0 0 0.405 0 0.02 0.405 0 0.04 0.405 0 0.06 0.405 0 0.08 0.405 0 0.1 0.405 0 0 0.41 0 0.02 0.41 0 0.04 0.41 0 0.06 0.41 0 0.08 0.41 0 0.1 0.41 0 0 0.415 0 0.02 0.415 0 0.04 0.415 0 0.06 0.415 0 0.08 0.415 0 0.1 0.415 0 0 0.42 0 0.02 0.42 0 0.04 0.42 0 0.06 0.42 0 0.08 0.42 0 0.1 0.42 0 0 0.425 0 0.02 0.425 0 0.04 0.425 0 0.06 0.425 0 0.08 0.425 0 0.1 0.425 0 0 0.43 0 0.02 0.43 0 0.04 0.43 0 0.06 0.43 0 0.08 0.43 0 0.1 0.43 0 0 0.435 0 0.02 0.435 0 0.04 0.435 0 0.06 0.435 0 0.08 0.435 0 0.1 0.435 0 0 0.44 0 0.02 0.44 0 0.04 0.44 0 0.06 0.44 0 0.08 0.44 0 0.1 0.44 0 0 0.445 0 0.02 0.445 0 0.04 0.445 0 0.06 0.445 0 0.08 0.445 0 0.1 0.445 0 0 0.45 0 0.02 0.45 0 0.04 0.45 0 0.06 0.45 0 0.08 0.45 0 0.1 0.45 0 0 0.455 0 0.02 0.455 0 0.04 0.455 0 0.06 0.455 0 0.08 0.455 0 0.1 0.455 0 0 0.46 0 0.02 0.46 0 0.04 0.46 0 0.06 0.46 0 0.08 0.46 0 0.1 0.46 0 0 0.465 0 0.02 0.465 0 0.04 0.465 0 0.06 0.465 0 0.08 0.465 0 0.1 0.465 0 0 0.47 0 0.02 0.47 0 0.04 0.47 0 0.06 0.47 0 0.08 0.47 0 0.1 0.47 0 0 0.475 0 0.02 0.475 0 0.04 0.475 0 0.06 0.475 0 0.08 0.475 0 0.1 0.475 0 0 0.48 0 0.02 0.48 0 0.04 0.48 0 0.06 0.48 0 0.08 0.48 0 0.1 0.48 0 0 0.485 0 0.02 0.485 0 0.04 0.485 0 0.06 0.485 0 0.08 0.485 0 0.1 0.485 0 0 0.49 0 0.02 0.49 0 0.04 0.49 0 0.06 0.49 0 0.08 0.49 0 0.1 0.49 0 0 0.495 0 0.02 0.495 0 0.04 0.495 0 0.06 0.495 0 0.08 0.495 0 0.1 0.495 0 0 0.5 0 0.02 0.5 0 0.04 0.5 0 0.06 0.5 0 0.08 0.5 0 0.1 0.5 0 0 0.505 0 0.02 0.505 0 0.04 0.505 0 0.06 0.505 0 0.08 0.505 0 0.1 0.505 0 0 0.51 0 0.02 0.51 0 0.04 0.51 0 0.06 0.51 0 0.08 0.51 0 0.1 0.51 0 0 0.515 0 0.02 0.515 0 0.04 0.515 0 0.06 0.515 0 0.08 0.515 0 0.1 0.515 0 0 0.52 0 0.02 0.52 0 0.04 0.52 0 0.06 0.52 0 0.08 0.52 0 0.1 0.52 0 0 0.525 0 0.02 0.525 0 0.04 0.525 0 0.06 0.525 0 0.08 0.525 0 0.1 0.525 0 0 0.53 0 0.02 0.53 0 0.04 0.53 0 0.06 0.53 0 0.08 0.53 0 0.1 0.53 0 0 0.535 0 0.02 0.535 0 0.04 0.535 0 0.06 0.535 0 0.08 0.535 0 0.1 0.535 0 0 0.54 0 0.02 0.54 0 0.04 0.54 0 0.06 0.54 0 0.08 0.54 0 0.1 0.54 0 0 0.545 0 0.02 0.545 0 0.04 0.545 0 0.06 0.545 0 0.08 0.545 0 0.1 0.545 0 0 0.55 0 0.02 0.55 0 0.04 0.55 0 0.06 0.55 0 0.08 0.55 0 0.1 0.55 0 0 0.555 0 0.02 0.555 0 0.04 0.555 0 0.06 0.555 0 0.08 0.555 0 0.1 0.555 0 0 0.56 0 0.02 0.56 0 0.04 0.56 0 0.06 0.56 0 0.08 0.56 0 0.1 0.56 0 0 0.565 0 0.02 0.565 0 0.04 0.565 0 0.06 0.565 0 0.08 0.565 0 0.1 0.565 0 0 0.57 0 0.02 0.57 0 0.04 0.57 0 0.06 0.57 0 0.08 0.57 0 0.1 0.57 0 0 0.575 0 0.02 0.575 0 0.04 0.575 0 0.06 0.575 0 0.08 0.575 0 0.1 0.575 0 0 0.58 0 0.02 0.58 0 0.04 0.58 0 0.06 0.58 0 0.08 0.58 0 0.1 0.58 0 0 0.585 0 0.02 0.585 0 0.04 0.585 0 0.06 0.585 0 0.08 0.585 0 0.1 0.585 0 0 0.59 0 0.02 0.59 0 0.04 0.59 0 0.06 0.59 0 0.08 0.59 0 0.1 0.59 0 0 0.595 0 0.02 0.595 0 0.04 0.595 0 0.06 0.595 0 0.08 0.595 0 0.1 0.595 0 0 0.6 0 0.02 0.6 0 0.04 0.6 0 0.06 0.6 0 0.08 0.6 0 0.1 0.6 0 0 0.605 0 0.02 0.605 0 0.04 0.605 0 0.06 0.605 0 0.08 0.605 0 0.1 0.605 0 0 0.61 0 0.02 0.61 0 0.04 0.61 0 0.06 0.61 0 0.08 0.61 0 0.1 0.61 0 0 0.615 0 0.02 0.615 0 0.04 0.615 0 0.06 0.615 0 0.08 0.615 0 0.1 0.615 0 0 0.62 0 0.02 0.62 0 0.04 0.62 0 0.06 0.62 0 0.08 0.62 0 0.1 0.62 0 0 0.625 0 0.02 0.625 0 0.04 0.625 0 0.06 0.625 0 0.08 0.625 0 0.1 0.625 0 0 0.63 0 0.02 0.63 0 0.04 0.63 0 0.06 0.63 0 0.08 0.63 0 0.1 0.63 0 0 0.635 0 0.02 0.635 0 0.04 0.635 0 0.06 0.635 0 0.08 0.635 0 0.1 0.635 0 0 0.64 0 0.02 0.64 0 0.04 0.64 0 0.06 0.64 0 0.08 0.64 0 0.1 0.64 0 0 0.645 0 0.02 0.645 0 0.04 0.645 0 0.06 0.645 0 0.08 0.645 0 0.1 0.645 0 0 0.65 0 0.02 0.65 0 0.04 0.65 0 0.06 0.65 0 0.08 0.65 0 0.1 0.65 0 0 0.655 0 0.02 0.655 0 0.04 0.655 0 0.06 0.655 0 0.08 0.655 0 0.1 0.655 0 0 0.66 0 0.02 0.66 0 0.04 0.66 0 0.06 0.66 0 0.08 0.66 0 0.1 0.66 0 0 0.665 0 0.02 0.665 0 0.04 0.665 0 0.06 0.665 0 0.08 0.665 0 0.1 0.665 0 0 0.67 0 0.02 0.67 0 0.04 0.67 0 0.06 0.67 0 0.08 0.67 0 0.1 0.67 0 0 0.675 0 0.02 0.675 0 0.04 0.675 0 0.06 0.675 0 0.08 0.675 0 0.1 0.675 0 0 0.68 0 0.02 0.68 0 0.04 0.68 0 0.06 0.68 0 0.08 0.68 0 0.1 0.68 0 0 0.685 0 0.02 0.685 0 0.04 0.685 0 0.06 0.685 0 0.08 0.685 0 0.1 0.685 0 0 0.69 0 0.02 0.69 0 0.04 0.69 0 0.06 0.69 0 0.08 0.69 0 0.1 
[...]
			<PointData Scalars="VitesseX">
				<DataArray Name="VitesseX" type="Float32" format="ascii">
 0 -2.1026e-14 4.25433e-15 8.38385e-15 1.32881e-14 0 0 -1.40923e-14 -2.43348e-15 1.16875e-14 1.05865e-14 0 0 -7.60919e-15 -4.5021e-15 9.79742e-15 9.4991e-15 0 0 -4.83849e-15 -5.03111e-15 1.01162e-14 7.28012e-15 0 0 -2.64773e-15 -5.74926e-15 9.89162e-15 9.19939e-15 0 0 4.00911e-16 -4.48248e-15 8.55699e-15 1.09954e-14 0 0 5.94072e-16 -2.9722e-15 1.22437e-14 8.70747e-15 0 0 5.20764e-15 -3.36966e-15 1.8084e-14 5.66223e-15 0 0 1.55825e-14 -5.74482e-15 2.21313e-14 3.43808e-15 0 0 3.56777e-15 1.5498e-14 6.86625e-15 1.68189e-14 0 0 -9.34348e-15 2.66643e-14 1.21398e-14 1.22128e-14 0 0 -1.03196e-15 4.5691e-15 4.42359e-14 -1.65041e-14 0 0 -1.75773e-14 1.82852e-14 2.56441e-14 -1.05527e-14 0 0 -2.07006e-14 1.93642e-14 2.06943e-15 1.21622e-14 0 0 -2.00493e-14 2.20871e-14 -2.08364e-14 3.10953e-14 0 0 -5.15967e-15 -1.03816e-14 1.62624e-14 -1.20147e-14 0 0 -7.19865e-15 -1.58078e-14 2.23492e-14 -2.93325e-14 0 0 -1.31848e-14 -2.583e-15 -3.85314e-15 -1.79921e-14 0 0 -1.73993e-14 1.61869e-14 -2.80357e-14 -7.01428e-15 0 0 -2.89911e-14 1.79917e-14 -2.12554e-14 3.47727e-15 0 0 -1.61628e-14 -1.78623e-14 5.20424e-15 9.86323e-15 0 0 -4.77671e-14 3.64014e-14 -5.41958e-14 4.88829e-14 0 0 -2.33237e-14 -1.11275e-14 4.89156e-15 4.27468e-15 0 0 8.78009e-15 -6.78264e-14 7.66312e-14 -4.89418e-14 0 0 -4.07246e-14 1.36231e-14 -1.77116e-14 1.73271e-14 0 0 -4.54175e-14 2.65483e-14 -5.9523e-14 6.07936e-14 0 0 7.34629e-15 -7.20822e-14 5.44476e-14 -2.87483e-15 0 0 4.57423e-15 -5.55795e-14 6.79623e-14 -2.77125e-14 0 0 -2.88077e-14 3.30579e-14 1.53441e-15 -1.62358e-14 0 0 -2.24643e-14 5.24796e-14 -4.93221e-17 -3.10019e-14 0 0 1.16636e-14 1.11337e-14 4.68025e-14 -4.45367e-14 0 0 6.47583e-15 -1.23309e-14 6.90949e-14 -3.10411e-14 0 0 -4.73295e-15 -1.61124e-14 1.51568e-14 3.40051e-14 0 0 1.30932e-14 -3.53445e-14 -3.40922e-14 1.0353e-13 0 0 3.41164e-14 -9.07791e-14 2.55771e-14 9.55851e-14 0 0 5.33191e-14 -1.40843e-13 9.17864e-14 7.14676e-14 0 0 -5.7741e-15 -1.94279e-14 -1.54168e-14 1.01295e-13 0 0 -7.79e-14 9.77158e-14 -9.44651e-14 9.91323e-14 0 0 -7.74567e-14 8.59264e-14 -6.22049e-14 5.63909e-14 0 0 -5.17738e-15 -1.42882e-14 1.61208e-14 9.07907e-15 0 0 2.78759e-14 -4.52298e-14 4.20755e-14 -6.84004e-15 0 0 -4.93e-15 5.19846e-15 2.13463e-14 -1.80225e-14 0 0 2.43708e-14 -2.55819e-14 1.6459e-14 -5.49626e-15 0 0 3.79195e-14 9.70625e-16 -3.56926e-14 3.27314e-14 0 0 5.45008e-14 -4.38683e-14 2.34382e-14 2.03716e-14 0 0 6.08563e-14 -5.02234e-14 -2.51222e-14 1.10351e-13 0 0 2.42634e-14 5.25286e-14 -1.3896e-13 1.75205e-13 0 0 3.2812e-15 7.58988e-14 -1.2923e-13 1.42566e-13 0 0 3.88815e-14 1.27103e-14 -4.48574e-14 7.16606e-14 0 0 1.43195e-13 -1.42258e-13 1.25687e-13 -5.29226e-14 0 0 1.63114e-13 -1.718e-13 1.50537e-13 -8.43567e-14 0 0 1.39322e-13 -1.01367e-13 1.17059e-14 1.28398e-14 0 0 1.7597e-13 -9.00512e-14 -3.63535e-14 1.94234e-14 0 0 2.40793e-13 -1.49791e-13 1.0867e-14 1.5137e-14 0 0 1.45036e-13 5.36535e-15 -1.08915e-13 1.17548e-13 0 0 8.01156e-14 1.27252e-13 -1.50668e-13 1.36527e-13 0 0 1.58845e-13 1.74351e-14 3.50603e-14 2.68026e-14 0 0 1.40212e-13 7.67812e-14 1.78253e-14 4.54495e-14 0 0 1.25596e-13 7.02405e-14 3.56702e-15 9.38444e-14 0 0 6.64174e-14 7.59318e-14 9.62824e-14 -9.43796e-15 0 0 9.56595e-14 1.48608e-13 1.06428e-15 9.22903e-15 0 0 1.74284e-13 1.00134e-13 -6.81954e-14 1.46976e-14 0 0 1.90187e-13 2.0869e-14 -3.03714e-14 -1.6159e-14 0 0 9.07988e-14 4.79822e-14 2.89519e-14 2.61419e-15 0 0 5.3517e-14 3.31804e-16 1.53794e-13 3.24557e-15 0 0 1.3223e-13 -3.22272e-14 1.30617e-13 2.29248e-14 0 0 1.9448e-13 -9.52551e-14 7.65569e-14 4.12403e-15 0 0 2.16345e-13 -9.06808e-14 -9.61655e-14 1.17039e-13 0 0 1.86338e-13 6.89543e-14 -2.76467e-13 1.64424e-13 0 0 2.85938e-13 -3.20968e-14 -1.34912e-13 3.2558e-14 0 0 3.02988e-13 -1.0018e-13 -5.76182e-16 -9.16622e-15 0 0 1.99009e-13 -8.20054e-14 1.0626e-13 -5.66701e-14 0 0 -2.6727e-14 2.7745e-13 -2.40771e-13 1.68991e-13 0 0 6.09586e-16 4.58341e-13 -5.31898e-13 3.26281e-13 0 0 1.97735e-13 2.13352e-13 -3.18795e-13 1.13802e-13 0 0 3.46921e-13 1.34035e-14 -6.76427e-14 -7.42628e-14 0 0 4.37628e-13 -8.22916e-14 4.06692e-14 -4.53857e-14 0 0 3.73781e-13 1.68833e-13 -2.0126e-13 2.96256e-13 0 0 3.85631e-13 6.43136e-13 -2.79453e-13 7.7363e-13 0 0 7.95511e-13 1.21097e-12 4.51093e-13 1.15798e-12 0 0 2.04851e-12 2.87386e-12 2.67058e-12 2.14474e-12 0 0 4.97985e-12 7.5088e-12 7.74367e-12 4.95237e-12 0 0 1.13347e-11 1.81584e-11 1.85458e-11 1.1514e-11 0 0 2.36426e-11 3.89989e-11 3.93287e-11 2.45689e-11 0 0 4.13135e-11 6.8632e-11 6.97065e-11 4.38895e-11 0 0 3.39612e-11 5.97463e-11 6.53871e-11 4.31526e-11 0 0 -9.40282e-11 -1.41503e-10 -1.2855e-10 -7.31199e-11 0 0 -6.50318e-10 -1.02665e-09 -9.95273e-10 -5.99236e-10 0 0 -2.45638e-09 -3.91968e-09 -3.85247e-09 -2.34681e-09 0 0 -7.49738e-09 -1.20354e-08 -1.1918e-08 -7.3062e-09 0 0 -2.01406e-08 -3.24858e-08 -3.23594e-08 -1.99352e-08 0 0 -4.92747e-08 -7.98484e-08 -7.99955e-08 -4.95127e-08 0 0 -1.11734e-07 -1.81976e-07 -1.83443e-07 -1.14102e-07 0 0 -2.38933e-07 -3.91888e-07 -3.9448e-07 -2.46766e-07 0 0 -4.79739e-07 -7.81478e-07 -8.22316e-07 -5.15172e-07 0 0 -9.2161e-07 -1.58195e-06 -1.54152e-06 -9.76757e-07 0 0 -1.72979e-06 -2.73097e-06 -3.00493e-06 -1.93659e-06 0 0 -2.80511e-06 -5.02645e-06 -5.19598e-06 -3.22579e-06 0 0 -5.05318e-06 -8.41204e-06 -8.5656e-06 -5.88768e-06 0 0 -7.5955e-06 -1.29238e-05 -1.46991e-05 -9.26252e-06 0 0 -1.16852e-05 -2.07209e-05 -2.23818e-05 -1.47232e-05 0 0 -1.75616e-05 -3.08215e-05 -3.27499e-05 -2.17716e-05 0 0 -2.4262e-05 -4.24642e-05 -4.80228e-05 -3.20036e-05 0 0 -3.37219e-05 -6.00036e-05 -6.57331e-05 -4.3661e-05 0 0 -4.59181e-05 -7.90804e-05 -8.59969e-05 -5.64122e-05 0 0 -5.97998e-05 -0.000101505 -0.000107225 -6.84064e-05 0 0 -7.82519e-05 -0.000128225 -0.00012781 -7.86671e-05 0 0 -9.86811e-05 -0.000155218 -0.000147608 -8.74928e-05 0 0 -0.000122537 -0.000183867 -0.000168596 -9.58963e-05 0 0 -0.000147463 -0.00021879 -0.000192895 -0.000104268 0 0 -0.000174475 -0.000258285 -0.000219009 -0.000114451 0 0 -0.000205517 -0.000297613 -0.000248179 -0.000129216 0 0 -0.000236432 -0.000333576 -0.000282554 -0.00014771 0 0 -0.000265504 -0.000378188 -0.000326762 -0.00017781 0 0 -0.000302167 -0.000434307 -0.000381003 -0.000216199 0 0 -0.000337507 -0.000494367 -0.0004379 -0.000256621 0 0 -0.000382451 -0.000553946 -0.000493455 -0.000293196 0 0 -0.000447993 -0.000608328 -0.000542567 -0.000349707 0 0 -0.000516864 -0.000648873 -0.000574531 -0.000420469 0 0 -0.000576327 -0.000680908 -0.00062057 -0.000488479 0 0 -0.000674942 -0.000756317 -0.000732327 -0.000546266 0 0 -0.000906637 -0.0009667 -0.000762275 -0.000544951 0 0 -0.0012393 -0.00122288 -0.000739703 -0.000537661 0 0 -0.00139969 -0.00127063 -0.000656203 -0.000544779 0 0 -0.00137823 -0.00124158 -0.000574291 -0.000601139 0 0 -0.00131341 -0.00114947 -0.000575895 -0.000669201 0 0 -0.00110529 -0.00100185 -0.000614547 -0.000658104 0 0 -0.000887046 -0.000983969 -0.000737716 -0.000607646 0 0 -0.000607936 -0.00095707 -0.00102996 -0.000483682 0 0 0.000335744 -0.000521765 -0.000943498 -0.000168351 0 0 0.00136139 0.00119208 0.000153247 4.12627e-06 0 0 0.00138388 0.00194391 0.00120193 9.0174e-05 0 0 0.00127855 0.00191091 0.00128486 0.000292602 0 0 0.00109449 0.00169333 0.00124776 0.000504742 0 0 0.000922293 0.00136573 0.00109887 0.000532142 0 0 0.000771558 0.00109251 0.000933803 0.000522497 0 0 0.000647919 0.000901437 0.000801561 0.0004832 0 0 0.000552835 0.00077992 0.000707363 0.000433299 0 0 0.000483712 0.000700433 0.000642837 0.000388367 0 0 0.000428903 0.000636784 0.000591996 0.000348674 0 0 0.000375376 0.000569254 0.000533029 0.000309319 0 0 0.000323507 0.000501371 0.000470895 0.000270794 0 0 0.00028171 0.000440745 0.000413506 0.000238099 0 0 0.00025184 0.000391615 0.000367217 0.000213627 0 0 0.000225654 0.000349214 0.000329169 0.000193537 0 0 0.00019608 0.000305016 0.000290009 0.000171725 0 0 0.000164553 0.000257535 0.0002469 0.000147306 0 0 0.00013182 0.000207608 0.000200663 0.000120575 0 0 9.89243e-05 0.000156808 0.000152783 9.24158e-05 0 0 6.7963e-05 0.000108342 0.000106345 6.47315e-05 0 0 4.18584e-05 6.7031e-05 6.61735e-05 4.04714e-05 0 0 2.25285e-05 3.62155e-05 3.59232e-05 2.20558e-05 0 0 1.0359e-05 1.67013e-05 1.6627e-05 1.02389e-05 0 0 4.08368e-06 6.59627e-06 6.58239e-06 4.0612e-06 0 0 1.4279e-06 2.3091e-06 2.3075e-06 1.42532e-06 0 0 4.63227e-07 7.4954e-07 7.49568e-07 4.63273e-07 0 0 1.44528e-07 2.33917e-07 2.33998e-07 1.44659e-07 0 0 4.41296e-08 7.14282e-08 7.14591e-08 4.41795e-08 0 0 1.32808e-08 2.14962e-08 2.15048e-08 1.32951e-08 0 0 3.94901e-09 6.39183e-09 6.39381e-09 3.9528e-09 0 0 1.16086e-09 1.87893e-09 1.87955e-09 1.16181e-09 0 0 3.37378e-10 5.45979e-10 5.46415e-10 3.37544e-10 0 0 9.69632e-11 1.56833e-10 1.57154e-10 9.69776e-11 0 0 2.75813e-11 4.45602e-11 4.49032e-11 2.7571e-11 0 0 7.7789e-12 1.26332e-11 1.28646e-11 7.77784e-12 0 0 2.25015e-12 3.64881e-12 3.8422e-12 2.26164e-12 0 0 7.67672e-13 1.16901e-12 1.26327e-12 8.27343e-13 0 0 4.19831e-13 4.90627e-13 5.1847e-13 5.44644e-13 0 0 3.82001e-13 2.0327e-13 5.32919e-13 3.44424e-13 0 0 4.33136e-13 5.20065e-14 6.14028e-13 2.48707e-13 0 0 3.79271e-13 2.2208e-13 3.0768e-13 5.40731e-13 0 0 2.79089e-13 4.00015e-13 1.70767e-13 6.01408e-13 0 0 2.22681e-13 5.27467e-13 1.51844e-13 4.87209e-13 0 0 3.25361e-13 4.55766e-13 2.26176e-13 4.51307e-13 0 0 3.62452e-13 3.70946e-13 3.86529e-13 3.5801e-13 0 0 1.62139e-13 6.43681e-13 2.28299e-13 3.87116e-13 0 0 2.24837e-13 5.38484e-13 3.69004e-13 2.5563e-13 0 0 2.53352e-13 3.59409e-13 5.5842e-13 1.54566e-13 0 0 1.93011e-13 3.64449e-13 4.08923e-13 4.22e-13 0 0 2.26387e-13 4.41116e-13 2.30286e-13 5.64192e-13 0 0 2.36468e-13 5.39592e-13 1.6421e-13 4.74093e-13 0 0 2.86128e-13 4.75461e-13 3.75999e-13 2.0716e-13 0 0 3.50589e-13 4.63803e-13 4.45288e-13 1.03604e-13 0 0 3.12827e-13 4.17178e-13 5.45674e-13 7.73762e-14 0 0 3.56067e-13 2.61384e-13 6.5357e-13 6.42526e-14 0 0 3.55023e-13 3.26483e-13 4.67254e-13 1.33592e-13 0 0 1.00603e-13 6.16198e-13 2.49451e-13 1.95163e-13 0 0 2.08182e-13 4.40089e-13 2.73813e-13 3.1321e-13 0 0 3.33832e-13 2.69433e-13 4.66065e-13 1.83979e-13 0 0 2.69743e-13 2.96347e-13 5.10198e-13 9.76714e-14 0 0 2.81154e-13 3.1703e-13 2.53516e-13 5.23029e-13 0 0 3.37969e-13 2.62984e-13 2.99906e-13 5.59801e-13 0 0 2.3861e-13 4.03634e-13 4.08222e-13 1.6393e-13 0 0 1.28882e-13 3.96689e-13 7.43094e-13 -2.70899e-13 0 0 -1.80972e-14 4.9482e-13 5.22465e-13 5.15423e-14 0 0 -1.94342e-13 8.61909e-13 -7.65608e-14 5.16692e-13 0 0 4.83912e-14 5.15104e-13 2.75926e-13 2.33294e-13 0 0 2.33015e-14 5.84452e-13 3.05787e-13 5.22486e-14 0 0 -7.12265e-15 7.57124e-13 7.89983e-14 6.81161e-14 0 0 -3.64716e-14 9.00241e-13 -3.14037e-13 3.26412e-13 0 0 -2.68666e-13 1.24764e-12 -6.64933e-13 4.49815e-13 0
				</DataArray>
				<DataArray Name="VitesseY" type="Float32" format="ascii">