<?xml version="1.0"?>
<VTKFile type="PolyData">
	<PolyData>
		<Piece NumberOfPoints="1206" NumberOfPolys="1000">
			<Points>
				<DataArray type="Float32" NumberOfComponents="3" format="ascii">
 0 0 0 0.02 0 0 0.04 0 0 0.06 0 0 0.08 0 0 0.1 0 0 0 0.005 0 0.02 0.005 0 0.04 0.005 0 0.06 0.005 0 0.08 0.005 0 0.1 0.005 0 0 0.01 0 0.02 0.01 0 0.04 0.01 0 0.06 0.01 0 0.08 0.01 0 0.1 0.01 0 0 0.015 0 0.02 0.015 0 0.04 0.015 0 0.06 0.015 0 0.08 0.015 0 0.1 0.015 0 0 0.02 0 0.02 0.02 0 0.04 0.02 0 0.06 0.02 0 0.08 0.02 0 0.1 0.02 0 0 0.025 0 0.02 0.025 0 0.04 0.025 0 0.06 0.025 0 0.08 0.025 0 0.1 0.025 0 0 0.03 0 0.02 0.03 0 0.04 0.03 0 0.06 0.03 0 0.08 0.03 0 0.1 0.03 0 0 0.035 0 0.02 0.035 0 0.04 0.035 0 0.06 0.035 0 0.08 0.035 0 0.1 0.035 0 0 0.04 0 0.02 0.04 0 0.04 0.04 0 0.06 0.04 0 0.08 0.04 0 0.1 0.04 0 0 0.045 0 0.02 0.045 0 0.04 0.045 0 0.06 0.045 0 0.08 0.045 0 0.1 0.045 0 0 0.05 0 0.02 0.05 0 0.04 0.05 0 0.06 0.05 0 0.08 0.05 0 0.1 0.05 0 0 0.055 0 0.02 0.055 0 0.04 0.055 0 0.06 0.055 0 0.08 0.055 0 0.1 0.055 0 0 0.06 0 0.02 0.06 0 0.04 0.06 0 0.06 0.06 0 0.08 0.06 0 0.1 0.06 0 0 0.065 0 0.02 0.065 0 0.04 0.065 0 0.06 0.065 0 0.08 0.065 0 0.1 0.065 0 0 0.07 0 0.02 0.07 0 0.04 0.07 0 0.06 0.07 0 0.08 0.07 0 0.1 0.07 0 0 0.075 0 0.02 0.075 0 0.04 0.075 0 0.06 0.075 0 0.08 0.075 0 0.1 0.075 0 0 0.08 0 0.02 0.08 0 0.04 0.08 0 0.06 0.08 0 0.08 0.08 0 0.1 0.08 0 0 0.085 0 0.02 0.085 0 0.04 0.085 0 0.06 0.085 0 0.08 0.085 0 0.1 0.085 0 0 0.09 0 0.02 0.09 0 0.04 0.09 0 0.06 0.09 0 0.08 0.09 0 0.1 0.09 0 0 0.095 0 0.02 0.095 0 0.04 0.095 0 0.06 0.095 0 0.08 0.095 0 0.1 0.095 0 0 0.1 0 0.02 0.1 0 0.04 0.1 0 0.06 0.1 0 0.08 0.1 0 0.1 0.1 0 0 0.105 0 0.02 0.105 0 0.04 0.105 0 0.06 0.105 0 0.08 0.105 0 0.1 0.105 0 0 0.11 0 0.02 0.11 0 0.04 0.11 0 0.06 0.11 0 0.08 0.11 0 0.1 0.11 0 0 0.115 0 0.02 0.115 0 0.04 0.115 0 0.06 0.115 0 0.08 0.115 0 0.1 0.115 0 0 0.12 0 0.02 0.12 0 0.04 0.12 0 0.06 0.12 0 0.08 0.12 0 0.1 0.12 0 0 0.125 0 0.02 0.125 0 0.04 0.125 0 0.06 0.125 0 0.08 0.125 0 0.1 0.125 0 0 0.13 0 0.02 0.13 0 0.04 0.13 0 0.06 0.13 0 0.08 0.13 0 0.1 0.13 0 0 0.135 0 0.02 0.135 0 0.04 0.135 0 0.06 0.135 0 0.08 0.135 0 0.1 0.135 0 0 0.14 0 0.02 0.14 0 0.04 0.14 0 0.06 0.14 0 0.08 0.14 0 0.1 0.14 0 0 0.145 0 0.02 0.145 0 0.04 0.145 0 0.06 0.145 0 0.08 0.145 0 0.1 0.145 0 0 0.15 0 0.02 0.15 0 0.04 0.15 0 0.06 0.15 0 0.08 0.15 0 0.1 0.15 0 0 0.155 0 0.02 0.155 0 0.04 0.155 0 0.06 0.155 0 0.08 0.155 0 0.1 0.155 0 0 0.16 0 0.02 0.16 0 0.04 0.16 0 0.06 0.16 0 0.08 0.16 0 0.1 0.16 0 0 0.165 0 0.02 0.165 0 0.04 0.165 0 0.06 0.165 0 0.08 0.165 0 0.1 0.165 0 0 0.17 0 0.02 0.17 0 0.04 0.17 0 0.06 0.17 0 0.08 0.17 0 0.1 0.17 0 0 0.175 0 0.02 0.175 0 0.04 0.175 0 0.06 0.175 0 0.08 0.175 0 0.1 0.175 0 0 0.18 0 0.02 0.18 0 0.04 0.18 0 0.06 0.18 0 0.08 0.18 0 0.1 0.18 0 0 0.185 0 0.02 0.185 0 0.04 0.185 0 0.06 0.185 0 0.08 0.185 0 0.1 0.185 0 0 0.19 0 0.02 0.19 0 0.04 0.19 0 0.06 0.19 0 0.08 0.19 0 0.1 0.19 0 0 0.195 0 0.02 0.195 0 0.04 0.195 0 0.06 0.195 0 0.08 0.195 0 0.1 0.195 0 0 0.2 0 0.02 0.2 0 0.04 0.2 0 0.06 0.2 0 0.08 0.2 0 0.1 0.2 0 0 0.205 0 0.02 0.205 0 0.04 0.205 0 0.06 0.205 0 0.08 0.205 0 0.1 0.205 0 0 0.21 0 0.02 0.21 0 0.04 0.21 0 0.06 0.21 0 0.08 0.21 0 0.1 0.21 0 0 0.215 0 0.02 0.215 0 0.04 0.215 0 0.06 0.215 0 0.08 0.215 0 0.1 0.215 0 0 0.22 0 0.02 0.22 0 0.04 0.22 0 0.06 0.22 0 0.08 0.22 0 0.1 0.22 0 0 0.225 0 0.02 0.225 0 0.04 0.225 0 0.06 0.225 0 0.08 0.225 0 0.1 0.225 0 0 0.23 0 0.02 0.23 0 0.04 0.23 0 0.06 0.23 0 0.08 0.23 0 0.1 0.23 0 0 0.235 0 0.02 0.235 0 0.04 0.235 0 0.06 0.235 0 0.08 0.235 0 0.1 0.235 0 0 0.24 0 0.02 0.24 0 0.04 0.24 0 0.06 0.24 0 0.08 0.24 0 0.1 0.24 0 0 0.245 0 0.02 0.245 0 0.04 0.245 0 0.06 0.245 0 0.08 0.245 0 0.1 0.245 0 0 0.25 0 0.02 0.25 0 0.04 0.25 0 0.06 0.25 0 0.08 0.25 0 0.1 0.25 0 0 0.255 0 0.02 0.255 0 0.04 0.255 0 0.06 0.255 0 0.08 0.255 0 0.1 0.255 0 0 0.26 0 0.02 0.26 0 0.04 0.26 0 0.06 0.26 0 0.08 0.26 0 0.1 0.26 0 0 0.265 0 0.02 0.265 0 0.04 0.265 0 0.06 0.265 0 0.08 0.265 0 0.1 0.265 0 0 0.27 0 0.02 0.27 0 0.04 0.27 0 0.06 0.27 0 0.08 0.27 0 0.1 0.27 0 0 0.275 0 0.02 0.275 0 0.04 0.275 0 0.06 0.275 0 0.08 0.275 0 0.1 0.275 0 0 0.28 0 0.02 0.28 0 0.04 0.28 0 0.06 0.28 0 0.08 0.28 0 0.1 0.28 0 0 0.285 0 0.02 0.285 0 0.04 0.285 0 0.06 0.285 0 0.08 0.285 0 0.1 0.285 0 0 0.29 0 0.02 0.29 0 0.04 0.29 0 0.06 0.29 0 0.08 0.29 0 0.1 0.29 0 0 0.295 0 0.02 0.295 0 0.04 0.295 0 0.06 0.295 0 0.08 0.295 0 0.1 0.295 0 0 0.3 0 0.02 0.3 0 0.04 0.3 0 0.06 0.3 0 0.08 0.3 0 0.1 0.3 0 0 0.305 0 0.02 0.305 0 0.04 0.305 0 0.06 0.305 0 0.08 0.305 0 0.1 0.305 0 0 0.31 0 0.02 0.31 0 0.04 0.31 0 0.06 0.31 0 0.08 0.31 0 0.1 0.31 0 0 0.315 0 0.02 0.315 0 0.04 0.315 0 0.06 0.315 0 0.08 0.315 0 0.1 0.315 0 0 0.32 0 0.02 0.32 0 0.04 0.32 0 0.06 0.32 0 0.08 0.32 0 0.1 0.32 0 0 0.325 0 0.02 0.325 0 0.04 0.325 0 0.06 0.325 0 0.08 0.325 0 0.1 0.325 0 0 0.33 0 0.02 0.33 0 0.04 0.33 0 0.06 0.33 0 0.08 0.33 0 0.1 0.33 0 0 0.335 0 0.02 0.335 0 0.04 0.335 0 0.06 0.335 0 0.08 0.335 0 0.1 0.335 0 0 0.34 0 0.02 0.34 0 0.04 0.34 0 0.06 0.34 0 0.08 0.34 0 0.1 0.34 0 0 0.345 0 0.02 0.345 0 0.04 0.345 0 0.06 0.345 0 0.08 0.345 0 0.1 0.345 0 0 0.35 0 0.02 0.35 0 0.04 0.35 0 0.06 0.35 0 0.08 0.35 0 0.1 0.35 0 0 0.355 0 0.02 0.355 0 0.04 0.355 0 0.06 0.355 0 0.08 0.355 0 0.1 0.355 0 0 0.36 0 0.02 0.36 0 0.04 0.36 0 0.06 0.36 0 0.08 0.36 0 0.1 0.36 0 0 0.365 0 0.02 0.365 0 0.04 0.365 0 0.06 0.365 0 0.08 0.365 0 0.1 0.365 0 0 0.37 0 0.02 0.37 0 0.04 0.37 0 0.06 0.37 0 0.08 0.37 0 0.1 0.37 0 0 0.375 0 0.02 0.375 0 0.04 0.375 0 0.06 0.375 0 0.08 0.375 0 0.1 0.375 0 0 0.38 0 0.02 0.38 0 0.04 0.38 0 0.06 0.38 0 0.08 0.38 0 0.1 0.38 0 0 0.385 0 0.02 0.385 0 0.04 0.385 0 0.06 0.385 0 0.08 0.385 0 0.1 0.385 0 0 0.39 0 0.02 0.39 0 0.04 0.39 0 0.06 0.39 0 0.08 0.39 0 0.1 0.39 0 0 0.395 0 0.02 0.395 0 0.04 0.395 0 0.06 0.395 0 0.08 0.395 0 0.1 0.395 0 0 0.4 0 0.02 0.4 0 0.04 0.4 0 0.06 0.4 0 0.08 0.4 0 0.1 0.4 0 0 0.405 0 0.02 0.405 0 0.04 0.405 0 0.06 0.405 0 0.08 0.405 0 0.1 0.405 0 0 0.41 0 0.02 0.41 0 0.04 0.41 0 0.06 0.41 0 0.08 0.41 0 0.1 0.41 0 0 0.415 0 0.02 0.415 0 0.04 0.415 0 0.06 0.415 0 0.08 0.415 0 0.1 0.415 0 0 0.42 0 0.02 0.42 0 0.04 0.42 0 0.06 0.42 0 0.08 0.42 0 0.1 0.42 0 0 0.425 0 0.02 0.425 0 0.04 0.425 0 0.06 0.425 0 0.08 0.425 0 0.1 0.425 0 0 0.43 0 0.02 0.43 0 0.04 0.43 0 0.06 0.43 0 0.08 0.43 0 0.1 0.43 0 0 0.435 0 0.02 0.435 0 0.04 0.435 0 0.06 0.435 0 0.08 0.435 0 0.1 0.435 0 0 0.44 0 0.02 0.44 0 0.04 0.44 0 0.06 0.44 0 0.08 0.44 0 0.1 0.44 0 0 0.445 0 0.02 0.445 0 0.04 0.445 0 0.06 0.445 0 0.08 0.445 0 0.1 0.445 0 0 0.45 0 0.02 0.45 0 0.04 0.45 0 0.06 0.45 0 0.08 0.45 0 0.1 0.45 0 0 0.455 0 0.02 0.455 0 0.04 0.455 0 0.06 0.455 0 0.08 0.455 0 0.1 0.455 0 0 0.46 0 0.02 0.46 0 0.04 0.46 0 0.06 0.46 0 0.08 0.46 0 0.1 0.46 0 0 0.465 0 0.02 0.465 0 0.04 0.465 0 0.06 0.465 0 0.08 0.465 0 0.1 0.465 0 0 0.47 0 0.02 0.47 0 0.04 0.47 0 0.06 0.47 0 0.08 0.47 0 0.1 0.47 0 0 0.475 0 0.02 0.475 0 0.04 0.475 0 0.06 0.475 0 0.08 0.475 0 0.1 0.475 0 0 0.48 0 0.02 0.48 0 0.04 0.48 0 0.06 0.48 0 0.08 0.48 0 0.1 0.48 0 0 0.485 0 0.02 0.485 0 0.04 0.485 0 0.06 0.485 0 0.08 0.485 0 0.1 0.485 0 0 0.49 0 0.02 0.49 0 0.04 0.49 0 0.06 0.49 0 0.08 0.49 0 0.1 0.49 0 0 0.495 0 0.02 0.495 0 0.04 0.495 0 0.06 0.495 0 0.08 0.495 0 0.1 0.495 0 0 0.5 0 0.02 0.5 0 0.04 0.5 0 0.06 0.5 0 0.08 0.5 0 0.1 0.5 0 0 0.505 0 0.02 0.505 0 0.04 0.505 0 0.06 0.505 0 0.08 0.505 0 0.1 0.505 0 0 0.51 0 0.02 0.51 0 0.04 0.51 0 0.06 0.51 0 0.08 0.51 0 0.1 0.51 0 0 0.515 0 0.02 0.515 0 0.04 0.515 0 0.06 0.515 0 0.08 0.515 0 0.1 0.515 0 0 0.52 0 0.02 0.52 0 0.04 0.52 0 0.06 0.52 0 0.08 0.52 0 0.1 0.52 0 0 0.525 0 0.02 0.525 0 0.04 0.525 0 0.06 0.525 0 0.08 0.525 0 0.1 0.525 0 0 0.53 0 0.02 0.53 0 0.04 0.53 0 0.06 0.53 0 0.08 0.53 0 0.1 0.53 0 0 0.535 0 0.02 0.535 0 0.04 0.535 0 0.06 0.535 0 0.08 0.535 0 0.1 0.535 0 0 0.54 0 0.02 0.54 0 0.04 0.54 0 0.06 0.54 0 0.08 0.54 0 0.1 0.54 0 0 0.545 0 0.02 0.545 0 0.04 0.545 0 0.06 0.545 0 0.08 0.545 0 0.1 0.545 0 0 0.55 0 0.02 0.55 0 0.04 0.55 0 0.06 0.55 0 0.08 0.55 0 0.1 0.55 0 0 0.555 0 0.02 0.555 0 0.04 0.555 0 0.06 0.555 0 0.08 0.555 0 0.1 0.555 0 0 0.56 0 0.02 0.56 0 0.04 0.56 0 0.06 0.56 0 0.08 0.56 0 0.1 0.56 0 0 0.565 0 0.02 0.565 0 0.04 0.565 0 0.06 0.565 0 0.08 0.565 0 0.1 0.565 0 0 0.57 0 0.02 0.57 0 0.04 0.57 0 0.06 0.57 0 0.08 0.57 0 0.1 0.57 0 0 0.575 0 0.02 0.575 0 0.04 0.575 0 0.06 0.575 0 0.08 0.575 0 0.1 0.575 0 0 0.58 0 0.02 0.58 0 0.04 0.58 0 0.06 0.58 0 0.08 0.58 0 0.1 0.58 0 0 0.585 0 0.02 0.585 0 0.04 0.585 0 0.06 0.585 0 0.08 0.585 0 0.1 0.585 0 0 0.59 0 0.02 0.59 0 0.04 0.59 0 0.06 0.59 0 0.08 0.59 0 0.1 0.59 0 0 0.595 0 0.02 0.595 0 0.04 0.595 0 0.06 0.595 0 0.08 0.595 0 0.1 0.595 0 0 0.6 0 0.02 0.6 0 0.04 0.6 0 0.06 0.6 0 0.08 0.6 0 0.1 0.6 0 0 0.605 0 0.02 0.605 0 0.04 0.605 0 0.06 0.605 0 0.08 0.605 0 0.1 0.605 0 0 0.61 0 0.02 0.61 0 0.04 0.61 0 0.06 0.61 0 0.08 0.61 0 0.1 0.61 0 0 0.615 0 0.02 0.615 0 0.04 0.615 0 0.06 0.615 0 0.08 0.615 0 0.1 0.615 0 0 0.62 0 0.02 0.62 0 0.04 0.62 0 0.06 0.62 0 0.08 0.62 0 0.1 0.62 0 0 0.625 0 0.02 0.625 0 0.04 0.625 0 0.06 0.625 0 0.08 0.625 0 0.1 0.625 0 0 0.63 0 0.02 0.63 0 0.04 0.63 0 0.06 0.63 0 0.08 0.63 0 0.1 0.63 0 0 0.635 0 0.02 0.635 0 0.04 0.635 0 0.06 0.635 0 0.08 0.635 0 0.1 0.635 0 0 0.64 0 0.02 0.64 0 0.04 0.64 0 0.06 0.64 0 0.08 0.64 0 0.1 0.64 0 0 0.645 0 0.02 0.645 0 0.04 0.645 0 0.06 0.645 0 0.08 0.645 0 0.1 0.645 0 0 0.65 0 0.02 0.65 0 0.04 0.65 0 0.06 0.65 0 0.08 0.65 0 0.1 0.65 0 0 0.655 0 0.02 0.655 0 0.04 0.655 0 0.06 0.655 0 0.08 0.655 0 0.1 0.655 0 0 0.66 0 0.02 0.66 0 0.04 0.66 0 0.06 0.66 0 0.08 0.66 0 0.1 0.66 0 0 0.665 0 0.02 0.665 0 0.04 0.665 0 0.06 0.665 0 0.08 0.665 0 0.1 0.665 0 0 0.67 0 0.02 0.67 0 0.04 0.67 0 0.06 0.67 0 0.08 0.67 0 0.1 0.67 0 0 0.675 0 0.02 0.675 0 0.04 0.675 0 0.06 0.675 0 0.08 0.675 0 0.1 0.675 0 0 0.68 0 0.02 0.68 0 0.04 0.68 0 0.06 0.68 0 0.08 0.68 0 0.1 0.68 0 0 0.685 0 0.02 0.685 0 0.04 0.685 0 0.06 0.685 0 0.08 0.685 0 0.1 0.685 0 0 0.69 0 0.02 0.69 0 0.04 0.69 0 0.06 0.69 0 0.08 0.69 0 0.1 
[...]
			<PointData Scalars="VitesseX">
				<DataArray Name="VitesseX" type="Float32" format="ascii">
 0 2.39545e-15 -1.50921e-14 -1.62002e-14 -1.40018e-14 0 0 8.85861e-16 -1.16307e-14 -1.9146e-14 -1.25716e-14 0 0 -3.29696e-16 -8.40463e-15 -2.12196e-14 -1.23894e-14 0 0 -6.03464e-16 -9.89644e-15 -1.6952e-14 -1.70271e-14 0 0 -7.43533e-18 -1.23895e-14 -1.47858e-14 -1.86759e-14 0 0 -5.74964e-15 -4.91466e-15 -2.2513e-14 -1.74395e-14 0 0 -9.56247e-15 -1.23368e-14 -1.25787e-14 -2.70569e-14 0 0 2.87127e-16 -3.74666e-14 1.23823e-14 -4.27432e-14 0 0 -4.56325e-15 -2.54989e-14 -1.60743e-14 -1.72912e-14 0 0 -5.67007e-15 -3.30267e-14 -2.18569e-14 -7.18192e-15 0 0 -7.2475e-15 -4.07513e-14 -1.93636e-14 -7.31518e-15 0 0 -2.55441e-14 -3.04907e-14 -2.24123e-14 -5.53857e-16 0 0 -3.00222e-14 -4.42683e-14 4.39948e-15 -1.04323e-14 0 0 -3.57335e-14 -3.20018e-14 -7.58176e-15 -1.22132e-14 0 0 -1.86263e-14 -4.82969e-14 -1.91314e-15 -2.13799e-14 0 0 -6.59133e-15 -5.79457e-14 8.3021e-15 -2.47273e-14 0 0 -9.96797e-15 -3.78955e-14 8.73252e-16 -3.54695e-14 0 0 -2.71396e-14 1.30805e-14 -6.37593e-14 1.49805e-14 0 0 -4.83677e-14 4.39752e-14 -8.72113e-14 3.40268e-14 0 0 -1.46228e-14 -1.398e-14 -1.06027e-14 -3.44596e-14 0 0 1.20806e-14 -4.61224e-14 2.94589e-14 -6.95155e-14 0 0 -3.97574e-15 -1.38361e-14 -6.59277e-15 -4.7096e-14 0 0 -2.38628e-14 3.2894e-14 -6.93255e-14 -1.38623e-14 0 0 -1.91072e-14 4.05158e-14 -1.07713e-13 1.79575e-14 0 0 1.66198e-14 -3.84393e-14 -4.62524e-14 -1.00954e-15 0 0 1.15697e-14 -8.5459e-14 1.60048e-14 -2.81039e-14 0 0 -3.01279e-14 -4.21821e-14 -1.75423e-14 1.61888e-14 0 0 -1.66843e-14 -6.06971e-14 3.18668e-15 1.02857e-14 0 0 -1.03934e-14 -8.07829e-14 3.85759e-14 -4.23957e-14 0 0 -6.51761e-14 -1.03244e-14 -2.26097e-14 -2.13392e-14 0 0 -7.13827e-14 -1.38747e-14 -2.39208e-14 -3.12738e-14 0 0 -3.19536e-14 -6.70863e-14 2.13885e-14 -6.40538e-14 0 0 -5.79077e-14 -2.51464e-14 -3.39133e-14 3.54785e-15 0 0 -3.79843e-14 -4.05403e-14 -4.83227e-14 3.83698e-14 0 0 -3.09159e-14 -2.94025e-14 -5.331e-14 1.68321e-14 0 0 -1.87783e-14 -4.17093e-14 -2.99285e-14 -3.2124e-15 0 0 -8.58089e-15 -3.21821e-14 -2.82108e-14 -2.64929e-14 0 0 -3.45605e-14 1.58614e-14 -3.62106e-14 -5.19115e-14 0 0 -1.50898e-14 -2.46644e-14 3.84246e-14 -1.16739e-13 0 0 3.76972e-14 -7.1601e-14 5.24112e-14 -1.47271e-13 0 0 1.6981e-14 -3.44598e-14 -4.58492e-14 -8.46891e-14 0 0 -5.05628e-14 4.3679e-14 -1.13845e-13 -3.76764e-14 0 0 -2.34905e-14 -1.83859e-14 -5.69525e-14 -3.38958e-14 0 0 -2.95167e-14 -5.87675e-14 3.40531e-14 -1.21503e-13 0 0 -5.6598e-14 -3.04772e-14 5.22137e-14 -1.90928e-13 0 0 -9.80692e-14 6.20611e-14 -8.17894e-14 -1.26383e-13 0 0 -8.63935e-14 4.15146e-15 1.11495e-14 -1.99246e-13 0 0 -7.75616e-15 -1.21029e-13 1.39133e-13 -2.36363e-13 0 0 -6.52963e-14 -1.88087e-14 1.02788e-14 -1.07136e-13 0 0 -1.71918e-13 5.49851e-14 -1.94332e-14 -6.99638e-14 0 0 -1.09723e-13 -1.90794e-14 7.04137e-14 -1.15691e-13 0 0 -8.92061e-14 1.46185e-17 3.93509e-14 -9.51183e-14 0 0 -1.92893e-13 1.05309e-13 -7.77946e-14 -1.19762e-14 0 0 -2.81346e-13 1.68837e-13 -1.26239e-13 8.06169e-16 0 0 -1.62173e-13 -5.60483e-14 9.33858e-14 -1.85355e-13 0 0 -1.06771e-13 -1.49667e-13 1.43846e-13 -3.04605e-13 0 0 -1.99025e-13 -2.35141e-14 -4.81289e-14 -2.22829e-13 0 0 -9.33113e-14 -1.28228e-13 -8.55548e-14 -8.33592e-14 0 0 -9.85188e-14 -1.11469e-13 -1.16597e-13 4.13826e-15 0 0 -1.73078e-13 -1.01999e-13 -6.11949e-14 -8.66979e-14 0 0 -2.20689e-13 -8.47697e-14 -9.67981e-14 -1.73071e-13 0 0 -1.53206e-13 -1.08187e-13 -1.38473e-13 -2.19047e-13 0 0 1.00404e-14 -2.13607e-13 -1.75135e-13 -1.27358e-13 0 0 3.32786e-14 -1.27236e-13 -2.9053e-13 -3.77908e-14 0 0 1.1056e-14 -5.26654e-14 -2.29689e-13 -1.94179e-13 0 0 -8.25981e-14 -1.28208e-14 -1.12461e-13 -3.23759e-13 0 0 -2.23341e-13 9.29716e-14 -1.38678e-13 -2.71923e-13 0 0 -1.71529e-13 -1.81995e-14 -3.06482e-14 -3.01118e-13 0 0 -1.04585e-13 -1.26788e-13 7.85594e-14 -3.48909e-13 0 0 -8.8762e-14 -8.89828e-14 -3.00393e-14 -3.2059e-13 0 0 -1.44367e-14 -1.19559e-13 -1.1124e-13 -2.91797e-13 0 0 -4.9466e-14 -6.76322e-14 -3.09346e-13 -1.93284e-13 0 0 -9.06831e-14 -7.81963e-14 -2.4585e-13 -2.27239e-13 0 0 -4.78127e-14 -3.00541e-13 4.88795e-14 -4.62598e-13 0 0 -3.1305e-14 -4.07569e-13 1.13839e-13 -4.72754e-13 0 0 -1.03066e-13 -3.49676e-13 6.97792e-14 -4.39212e-13 0 0 -2.38833e-13 -1.98508e-13 -6.60499e-14 -2.99712e-13 0 0 -3.30736e-13 -1.21626e-13 -7.9947e-14 -1.55874e-13 0 0 -3.67859e-13 -1.45826e-13 -1.68824e-14 -5.79216e-14 0 0 -3.72085e-13 -2.21975e-13 1.40538e-13 -8.20011e-14 0 0 -3.63041e-13 -2.75433e-13 2.74393e-13 -1.97739e-13 0 0 -3.96628e-13 -2.74723e-13 2.73656e-13 -3.12951e-13 0 0 -3.94579e-13 -2.5852e-13 2.14185e-13 -3.40662e-13 0 0 -4.016e-13 -3.18468e-13 5.69818e-14 -3.65636e-13 0 0 -5.15494e-13 -5.87565e-13 -3.2813e-13 -4.85437e-13 0 0 -1.04708e-12 -1.57076e-12 -1.39666e-12 -1.01925e-12 0 0 -2.95755e-12 -4.80619e-12 -4.67311e-12 -2.93644e-12 0 0 -9.10969e-12 -1.48972e-11 -1.48081e-11 -9.12135e-12 0 0 -2.7707e-11 -4.51175e-11 -4.51464e-11 -2.7838e-11 0 0 -8.12031e-11 -1.31916e-10 -1.32245e-10 -8.17835e-11 0 0 -2.2823e-10 -3.70614e-10 -3.71863e-10 -2.30432e-10 0 0 -6.14841e-10 -9.9892e-10 -1.0034e-09 -6.22564e-10 0 0 -1.58799e-09 -2.58249e-09 -2.59786e-09 -1.61368e-09 0 0 -3.93348e-09 -6.40546e-09 -6.45528e-09 -4.0151e-09 0 0 -9.34741e-09 -1.52483e-08 -1.54008e-08 -9.59517e-09 0 0 -2.13167e-08 -3.48497e-08 -3.52928e-08 -2.20344e-08 0 0 -4.66601e-08 -7.64888e-08 -7.77139e-08 -4.8643e-08 0 0 -9.80379e-08 -1.61222e-07 -1.64983e-07 -1.03446e-07 0 0 -2.01769e-07 -3.34583e-07 -3.34114e-07 -2.10643e-07 0 0 -3.89957e-07 -6.33623e-07 -6.81375e-07 -4.31091e-07 0 0 -7.15403e-07 -1.25558e-06 -1.24687e-06 -7.81448e-07 0 0 -1.36111e-06 -2.14857e-06 -2.24529e-06 -1.47283e-06 0 0 -2.23652e-06 -3.89476e-06 -4.19494e-06 -2.6491e-06 0 0 -3.64503e-06 -6.19334e-06 -6.43949e-06 -4.13322e-06 0 0 -5.92678e-06 -9.96709e-06 -1.05243e-05 -6.87525e-06 0 0 -8.5898e-06 -1.48693e-05 -1.60599e-05 -1.04552e-05 0 0 -1.21847e-05 -2.08489e-05 -2.22865e-05 -1.44939e-05 0 0 -1.58626e-05 -2.71099e-05 -2.87617e-05 -1.85691e-05 0 0 -1.99038e-05 -3.35157e-05 -3.50805e-05 -2.24605e-05 0 0 -2.40475e-05 -3.96816e-05 -4.07432e-05 -2.57223e-05 0 0 -2.80316e-05 -4.53094e-05 -4.518e-05 -2.79377e-05 0 0 -3.19549e-05 -5.02013e-05 -4.79199e-05 -2.86544e-05 0 0 -3.63262e-05 -5.42364e-05 -4.9298e-05 -2.77333e-05 0 0 -4.0559e-05 -5.73559e-05 -4.82985e-05 -2.51656e-05 0 0 -4.43254e-05 -5.95188e-05 -4.57437e-05 -2.1397e-05 0 0 -4.75906e-05 -6.07363e-05 -4.11342e-05 -1.53066e-05 0 0 -5.03571e-05 -6.0875e-05 -3.48349e-05 -8.76989e-06 0 0 -5.23153e-05 -5.9841e-05 -2.85386e-05 -2.78253e-06 0 0 -5.29253e-05 -5.74128e-05 -2.29469e-05 1.90619e-06 0 0 -5.14366e-05 -5.36537e-05 -1.91501e-05 4.1275e-06 0 0 -4.79017e-05 -4.87044e-05 -1.67653e-05 7.46381e-06 0 0 -4.28508e-05 -4.31028e-05 -1.09428e-05 7.57538e-06 0 0 -3.55029e-05 -3.60853e-05 -1.0155e-05 5.51796e-06 0 0 -2.39681e-05 -2.42418e-05 -1.26176e-05 -9.21463e-07 0 0 1.40832e-07 -1.21691e-05 -2.21192e-05 -1.65819e-05 0 0 2.9772e-05 -2.52794e-06 -4.49973e-05 -4.15107e-05 0 0 6.50657e-05 2.22234e-06 -7.71418e-05 -6.56084e-05 0 0 0.000124065 8.2831e-06 -0.000148255 -0.000102248 0 0 0.00012399 1.87314e-05 -0.000145935 -0.00013674 0 0 0.00011133 2.91186e-05 -0.000124035 -0.000150196 0 0 0.000121997 3.90085e-05 -0.000129797 -0.000171156 0 0 0.000167105 3.75418e-05 -0.000159718 -0.000198269 0 0 0.000236735 2.86763e-05 -0.00022615 -0.00020054 0 0 0.000248487 4.61078e-06 -0.00026199 -0.000178045 0 0 0.000161378 -9.12071e-05 -0.000228869 -5.38208e-05 0 0 -5.8411e-07 -9.98666e-05 -9.20566e-05 -3.69865e-05 0 0 6.46999e-05 5.96998e-05 4.86429e-06 -9.09606e-05 0 0 0.000183528 0.000243747 8.70365e-05 -8.03963e-05 0 0 0.000195482 0.00026218 0.000161787 -6.3963e-07 0 0 0.000184254 0.000252862 0.000163426 5.82886e-05 0 0 0.000159898 0.000215825 0.000150822 5.76879e-05 0 0 0.000137837 0.000173696 0.000116908 5.28713e-05 0 0 0.00011946 0.000139891 8.60346e-05 4.14741e-05 0 0 0.000104816 0.000118127 7.58077e-05 3.18478e-05 0 0 9.42107e-05 0.000111375 7.23877e-05 2.63016e-05 0 0 8.81489e-05 0.000108776 6.94062e-05 2.29767e-05 0 0 8.54433e-05 0.000105616 6.5804e-05 2.05555e-05 0 0 8.14701e-05 0.000100659 6.35149e-05 2.06493e-05 0 0 7.54304e-05 9.51321e-05 6.37202e-05 2.39962e-05 0 0 6.89761e-05 8.97357e-05 6.51946e-05 2.865e-05 0 0 6.23365e-05 8.47224e-05 6.64035e-05 3.25072e-05 0 0 5.61515e-05 8.02229e-05 6.72044e-05 3.5538e-05 0 0 5.15606e-05 7.69219e-05 6.81891e-05 3.79494e-05 0 0 4.89693e-05 7.50761e-05 6.92235e-05 3.98903e-05 0 0 4.71046e-05 7.32148e-05 6.93844e-05 4.09057e-05 0 0 4.42779e-05 6.9794e-05 6.7909e-05 4.07203e-05 0 0 4.04773e-05 6.45442e-05 6.34454e-05 3.87935e-05 0 0 3.5614e-05 5.72508e-05 5.67571e-05 3.4822e-05 0 0 2.9715e-05 4.80237e-05 4.79318e-05 2.95656e-05 0 0 2.30899e-05 3.74389e-05 3.75248e-05 2.32288e-05 0 0 1.63485e-05 2.65615e-05 2.66908e-05 1.65578e-05 0 0 1.02809e-05 1.67154e-05 1.68137e-05 1.044e-05 0 0 5.61161e-06 9.12139e-06 9.17259e-06 5.69447e-06 0 0 2.60919e-06 4.23796e-06 4.25795e-06 2.64154e-06 0 0 1.04187e-06 1.69074e-06 1.69686e-06 1.05178e-06 0 0 3.70912e-07 6.0142e-07 6.02991e-07 3.73454e-07 0 0 1.2296e-07 1.99246e-07 1.99607e-07 1.23545e-07 0 0 3.91858e-08 6.34676e-08 6.35458e-08 3.93131e-08 0 0 1.21918e-08 1.97404e-08 1.97566e-08 1.22189e-08 0 0 3.72779e-09 6.03484e-09 6.03798e-09 3.73365e-09 0 0 1.12304e-09 1.81798e-09 1.81857e-09 1.1244e-09 0 0 3.33623e-10 5.40072e-10 5.40253e-10 3.34072e-10 0 0 9.77091e-11 1.58143e-10 1.58284e-10 9.80251e-11 0 0 2.80887e-11 4.57121e-11 4.55891e-11 2.83872e-11 0 0 7.89059e-12 1.29698e-11 1.28869e-11 8.10094e-12 0 0 2.08589e-12 3.57796e-12 3.55374e-12 2.198e-12 0 0 4.28184e-13 9.32061e-13 1.06803e-12 3.02249e-13 0 0 -6.12749e-14 2.59944e-13 3.09862e-13 -6.16061e-14 0 0 -1.59857e-13 1.28028e-13 -4.59739e-14 -3.21304e-15 0 0 -2.24163e-14 -9.27552e-14 2.11132e-14 -1.61892e-13 0 0 2.38808e-16 -1.97141e-13 1.43106e-13 -3.32494e-13 0 0 -1.99435e-14 -2.34441e-13 1.6997e-13 -2.73141e-13 0 0 -1.44635e-13 -3.44131e-14 -1.00746e-13 1.19024e-14 0 0 -1.08798e-13 -2.30134e-14 -1.54169e-13 1.2722e-14 0 0 4.52467e-14 -1.87086e-13 -6.38911e-14 -2.99748e-14 0 0 -3.39417e-14 -6.45693e-15 -2.45271e-13 8.30057e-14 0 0 3.18248e-14 -4.94439e-14 -1.22973e-13 -1.23909e-13 0 0 1.56249e-13 -2.99374e-13 1.06114e-13 -2.88282e-13 0 0 -2.17073e-13 2.27271e-13 -4.44516e-13 7.33159e-14 0 0 -1.38836e-13 1.35295e-13 -3.72565e-13 1.93711e-13 0 0 1.46047e-13 -2.78543e-13 1.1368e-14 1.3998e-13 0 0 -2.12736e-13 2.25607e-13 -3.71248e-13 1.65641e-13 0 0 -4.9986e-14 -1.12898e-13 6.32594e-14 -2.56088e-13 0 0 4.25475e-14 -2.72176e-13 2.21172e-13 -3.58813e-13 0 0 -1.02973e-13 -2.24152e-14 -2.08763e-13 -8.2553e-14 0 0 5.565e-14 -2.29271e-13 -2.75546e-13 1.39955e-13 0 0 -1.83171e-15 -2.19865e-13 -3.23153e-13 2.2681e-13 0 0 2.37599e-13 -7.26065e-13 2.80103e-13 -2.12484e-13 0 0 2.16225e-13 -7.17115e-13 4.18948e-13 -3.294e-13 0 0 -6.38686e-14 -2.44763e-13 -1.63053e-14 -3.65268e-14 0 0 9.82008e-15 -3.40858e-13 1.90717e-14 6.26278e-16 0
				</DataArray>
				<DataArray Name="VitesseY" type="Float32" format="ascii">