<?xml version="1.0"?>
<VTKFile type="PolyData">
	<PolyData>
		<Piece NumberOfPoints="1206" NumberOfPolys="1000">
			<Points>
				<DataArray type="Float32" NumberOfComponents="3" format="ascii">
 0 0 0 0.02 0 0 0.04 0 0 0.06 0 0 0.08 0 0 0.1 0 0 0 0.005 0 0.02 0.005 0 0.04 0.005 0 0.06 0.005 0 0.08 0.005 0 0.1 0.005 0 0 0.01 0 0.02 0.01 0 0.04 0.01 0 0.06 0.01 0 0.08 0.01 0 0.1 0.01 0 0 0.015 0 0.02 0.015 0 0.04 0.015 0 0.06 0.015 0 0.08 0.015 0 0.1 0.015 0 0 0.02 0 0.02 0.02 0 0.04 0.02 0 0.06 0.02 0 0.08 0.02 0 0.1 0.02 0 0 0.025 0 0.02 0.025 0 0.04 0.025 0 0.06 0.025 0 0.08 0.025 0 0.1 0.025 0 0 0.03 0 0.02 0.03 0 0.04 0.03 0 0.06 0.03 0 0.08 0.03 0 0.1 0.03 0 0 0.035 0 0.02 0.035 0 0.04 0.035 0 0.06 0.035 0 0.08 0.035 0 0.1 0.035 0 0 0.04 0 0.02 0.04 0 0.04 0.04 0 0.06 0.04 0 0.08 0.04 0 0.1 0.04 0 0 0.045 0 0.02 0.045 0 0.04 0.045 0 0.06 0.045 0 0.08 0.045 0 0.1 0.045 0 0 0.05 0 0.02 0.05 0 0.04 0.05 0 0.06 0.05 0 0.08 0.05 0 0.1 0.05 0 0 0.055 0 0.02 0.055 0 0.04 0.055 0 0.06 0.055 0 0.08 0.055 0 0.1 0.055 0 0 0.06 0 0.02 0.06 0 0.04 0.06 0 0.06 0.06 0 0.08 0.06 0 0.1 0.06 0 0 0.065 0 0.02 0.065 0 0.04 0.065 0 0.06 0.065 0 0.08 0.065 0 0.1 0.065 0 0 0.07 0 0.02 0.07 0 0.04 0.07 0 0.06 0.07 0 0.08 0.07 0 0.1 0.07 0 0 0.075 0 0.02 0.075 0 0.04 0.075 0 0.06 0.075 0 0.08 0.075 0 0.1 0.075 0 0 0.08 0 0.02 0.08 0 0.04 0.08 0 0.06 0.08 0 0.08 0.08 0 0.1 0.08 0 0 0.085 0 0.02 0.085 0 0.04 0.085 0 0.06 0.085 0 0.08 0.085 0 0.1 0.085 0 0 0.09 0 0.02 0.09 0 0.04 0.09 0 0.06 0.09 0 0.08 0.09 0 0.1 0.09 0 0 0.095 0 0.02 0.095 0 0.04 0.095 0 0.06 0.095 0 0.08 0.095 0 0.1 0.095 0 0 0.1 0 0.02 0.1 0 0.04 0.1 0 0.06 0.1 0 0.08 0.1 0 0.1 0.1 0 0 0.105 0 0.02 0.105 0 0.04 0.105 0 0.06 0.105 0 0.08 0.105 0 0.1 0.105 0 0 0.11 0 0.02 0.11 0 0.04 0.11 0 0.06 0.11 0 0.08 0.11 0 0.1 0.11 0 0 0.115 0 0.02 0.115 0 0.04 0.115 0 0.06 0.115 0 0.08 0.115 0 0.1 0.115 0 0 0.12 0 0.02 0.12 0 0.04 0.12 0 0.06 0.12 0 0.08 0.12 0 0.1 0.12 0 0 0.125 0 0.02 0.125 0 0.04 0.125 0 0.06 0.125 0 0.08 0.125 0 0.1 0.125 0 0 0.13 0 0.02 0.13 0 0.04 0.13 0 0.06 0.13 0 0.08 0.13 0 0.1 0.13 0 0 0.135 0 0.02 0.135 0 0.04 0.135 0 0.06 0.135 0 0.08 0.135 0 0.1 0.135 0 0 0.14 0 0.02 0.14 0 0.04 0.14 0 0.06 0.14 0 0.08 0.14 0 0.1 0.14 0 0 0.145 0 0.02 0.145 0 0.04 0.145 0 0.06 0.145 0 0.08 0.145 0 0.1 0.145 0 0 0.15 0 0.02 0.15 0 0.04 0.15 0 0.06 0.15 0 0.08 0.15 0 0.1 0.15 0 0 0.155 0 0.02 0.155 0 0.04 0.155 0 0.06 0.155 0 0.08 0.155 0 0.1 0.155 0 0 0.16 0 0.02 0.16 0 0.04 0.16 0 0.06 0.16 0 0.08 0.16 0 0.1 0.16 0 0 0.165 0 0.02 0.165 0 0.04 0.165 0 0.06 0.165 0 0.08 0.165 0 0.1 0.165 0 0 0.17 0 0.02 0.17 0 0.04 0.17 0 0.06 0.17 0 0.08 0.17 0 0.1 0.17 0 0 0.175 0 0.02 0.175 0 0.04 0.175 0 0.06 0.175 0 0.08 0.175 0 0.1 0.175 0 0 0.18 0 0.02 0.18 0 0.04 0.18 0 0.06 0.18 0 0.08 0.18 0 0.1 0.18 0 0 0.185 0 0.02 0.185 0 0.04 0.185 0 0.06 0.185 0 0.08 0.185 0 0.1 0.185 0 0 0.19 0 0.02 0.19 0 0.04 0.19 0 0.06 0.19 0 0.08 0.19 0 0.1 0.19 0 0 0.195 0 0.02 0.195 0 0.04 0.195 0 0.06 0.195 0 0.08 0.195 0 0.1 0.195 0 0 0.2 0 0.02 0.2 0 0.04 0.2 0 0.06 0.2 0 0.08 0.2 0 0.1 0.2 0 0 0.205 0 0.02 0.205 0 0.04 0.205 0 0.06 0.205 0 0.08 0.205 0 0.1 0.205 0 0 0.21 0 0.02 0.21 0 0.04 0.21 0 0.06 0.21 0 0.08 0.21 0 0.1 0.21 0 0 0.215 0 0.02 0.215 0 0.04 0.215 0 0.06 0.215 0 0.08 0.215 0 0.1 0.215 0 0 0.22 0 0.02 0.22 0 0.04 0.22 0 0.06 0.22 0 0.08 0.22 0 0.1 0.22 0 0 0.225 0 0.02 0.225 0 0.04 0.225 0 0.06 0.225 0 0.08 0.225 0 0.1 0.225 0 0 0.23 0 0.02 0.23 0 0.04 0.23 0 0.06 0.23 0 0.08 0.23 0 0.1 0.23 0 0 0.235 0 0.02 0.235 0 0.04 0.235 0 0.06 0.235 0 0.08 0.235 0 0.1 0.235 0 0 0.24 0 0.02 0.24 0 0.04 0.24 0 0.06 0.24 0 0.08 0.24 0 0.1 0.24 0 0 0.245 0 0.02 0.245 0 0.04 0.245 0 0.06 0.245 0 0.08 0.245 0 0.1 0.245 0 0 0.25 0 0.02 0.25 0 0.04 0.25 0 0.06 0.25 0 0.08 0.25 0 0.1 0.25 0 0 0.255 0 0.02 0.255 0 0.04 0.255 0 0.06 0.255 0 0.08 0.255 0 0.1 0.255 0 0 0.26 0 0.02 0.26 0 0.04 0.26 0 0.06 0.26 0 0.08 0.26 0 0.1 0.26 0 0 0.265 0 0.02 0.265 0 0.04 0.265 0 0.06 0.265 0 0.08 0.265 0 0.1 0.265 0 0 0.27 0 0.02 0.27 0 0.04 0.27 0 0.06 0.27 0 0.08 0.27 0 0.1 0.27 0 0 0.275 0 0.02 0.275 0 0.04 0.275 0 0.06 0.275 0 0.08 0.275 0 0.1 0.275 0 0 0.28 0 0.02 0.28 0 0.04 0.28 0 0.06 0.28 0 0.08 0.28 0 0.1 0.28 0 0 0.285 0 0.02 0.285 0 0.04 0.285 0 0.06 0.285 0 0.08 0.285 0 0.1 0.285 0 0 0.29 0 0.02 0.29 0 0.04 0.29 0 0.06 0.29 0 0.08 0.29 0 0.1 0.29 0 0 0.295 0 0.02 0.295 0 0.04 0.295 0 0.06 0.295 0 0.08 0.295 0 0.1 0.295 0 0 0.3 0 0.02 0.3 0 0.04 0.3 0 0.06 0.3 0 0.08 0.3 0 0.1 0.3 0 0 0.305 0 0.02 0.305 0 0.04 0.305 0 0.06 0.305 0 0.08 0.305 0 0.1 0.305 0 0 0.31 0 0.02 0.31 0 0.04 0.31 0 0.06 0.31 0 0.08 0.31 0 0.1 0.31 0 0 0.315 0 0.02 0.315 0 0.04 0.315 0 0.06 0.315 0 0.08 0.315 0 0.1 0.315 0 0 0.32 0 0.02 0.32 0 0.04 0.32 0 0.06 0.32 0 0.08 0.32 0 0.1 0.32 0 0 0.325 0 0.02 0.325 0 0.04 0.325 0 0.06 0.325 0 0.08 0.325 0 0.1 0.325 0 0 0.33 0 0.02 0.33 0 0.04 0.33 0 0.06 0.33 0 0.08 0.33 0 0.1 0.33 0 0 0.335 0 0.02 0.335 0 0.04 0.335 0 0.06 0.335 0 0.08 0.335 0 0.1 0.335 0 0 0.34 0 0.02 0.34 0 0.04 0.34 0 0.06 0.34 0 0.08 0.34 0 0.1 0.34 0 0 0.345 0 0.02 0.345 0 0.04 0.345 0 0.06 0.345 0 0.08 0.345 0 0.1 0.345 0 0 0.35 0 0.02 0.35 0 0.04 0.35 0 0.06 0.35 0 0.08 0.35 0 0.1 0.35 0 0 0.355 0 0.02 0.355 0 0.04 0.355 0 0.06 0.355 0 0.08 0.355 0 0.1 0.355 0 0 0.36 0 0.02 0.36 0 0.04 0.36 0 0.06 0.36 0 0.08 0.36 0 0.1 0.36 0 0 0.365 0 0.02 0.365 0 0.04 0.365 0 0.06 0.365 0 0.08 0.365 0 0.1 0.365 0 0 0.37 0 0.02 0.37 0 0.04 0.37 0 0.06 0.37 0 0.08 0.37 0 0.1 0.37 0 0 0.375 0 0.02 0.375 0 0.04 0.375 0 0.06 0.375 0 0.08 0.375 0 0.1 0.375 0 0 0.38 0 0.02 0.38 0 0.04 0.38 0 0.06 0.38 0 0.08 0.38 0 0.1 0.38 0 0 0.385 0 0.02 0.385 0 0.04 0.385 0 0.06 0.385 0 0.08 0.385 0 0.1 0.385 0 0 0.39 0 0.02 0.39 0 0.04 0.39 0 0.06 0.39 0 0.08 0.39 0 0.1 0.39 0 0 0.395 0 0.02 0.395 0 0.04 0.395 0 0.06 0.395 0 0.08 0.395 0 0.1 0.395 0 0 0.4 0 0.02 0.4 0 0.04 0.4 0 0.06 0.4 0 0.08 0.4 0 0.1 0.4 0 0 0.405 0 0.02 0.405 0 0.04 0.405 0 0.06 0.405 0 0.08 0.405 0 0.1 0.405 0 0 0.41 0 0.02 0.41 0 0.04 0.41 0 0.06 0.41 0 0.08 0.41 0 0.1 0.41 0 0 0.415 0 0.02 0.415 0 0.04 0.415 0 0.06 0.415 0 0.08 0.415 0 0.1 0.415 0 0 0.42 0 0.02 0.42 0 0.04 0.42 0 0.06 0.42 0 0.08 0.42 0 0.1 0.42 0 0 0.425 0 0.02 0.425 0 0.04 0.425 0 0.06 0.425 0 0.08 0.425 0 0.1 0.425 0 0 0.43 0 0.02 0.43 0 0.04 0.43 0 0.06 0.43 0 0.08 0.43 0 0.1 0.43 0 0 0.435 0 0.02 0.435 0 0.04 0.435 0 0.06 0.435 0 0.08 0.435 0 0.1 0.435 0 0 0.44 0 0.02 0.44 0 0.04 0.44 0 0.06 0.44 0 0.08 0.44 0 0.1 0.44 0 0 0.445 0 0.02 0.445 0 0.04 0.445 0 0.06 0.445 0 0.08 0.445 0 0.1 0.445 0 0 0.45 0 0.02 0.45 0 0.04 0.45 0 0.06 0.45 0 0.08 0.45 0 0.1 0.45 0 0 0.455 0 0.02 0.455 0 0.04 0.455 0 0.06 0.455 0 0.08 0.455 0 0.1 0.455 0 0 0.46 0 0.02 0.46 0 0.04 0.46 0 0.06 0.46 0 0.08 0.46 0 0.1 0.46 0 0 0.465 0 0.02 0.465 0 0.04 0.465 0 0.06 0.465 0 0.08 0.465 0 0.1 0.465 0 0 0.47 0 0.02 0.47 0 0.04 0.47 0 0.06 0.47 0 0.08 0.47 0 0.1 0.47 0 0 0.475 0 0.02 0.475 0 0.04 0.475 0 0.06 0.475 0 0.08 0.475 0 0.1 0.475 0 0 0.48 0 0.02 0.48 0 0.04 0.48 0 0.06 0.48 0 0.08 0.48 0 0.1 0.48 0 0 0.485 0 0.02 0.485 0 0.04 0.485 0 0.06 0.485 0 0.08 0.485 0 0.1 0.485 0 0 0.49 0 0.02 0.49 0 0.04 0.49 0 0.06 0.49 0 0.08 0.49 0 0.1 0.49 0 0 0.495 0 0.02 0.495 0 0.04 0.495 0 0.06 0.495 0 0.08 0.495 0 0.1 0.495 0 0 0.5 0 0.02 0.5 0 0.04 0.5 0 0.06 0.5 0 0.08 0.5 0 0.1 0.5 0 0 0.505 0 0.02 0.505 0 0.04 0.505 0 0.06 0.505 0 0.08 0.505 0 0.1 0.505 0 0 0.51 0 0.02 0.51 0 0.04 0.51 0 0.06 0.51 0 0.08 0.51 0 0.1 0.51 0 0 0.515 0 0.02 0.515 0 0.04 0.515 0 0.06 0.515 0 0.08 0.515 0 0.1 0.515 0 0 0.52 0 0.02 0.52 0 0.04 0.52 0 0.06 0.52 0 0.08 0.52 0 0.1 0.52 0 0 0.525 0 0.02 0.525 0 0.04 0.525 0 0.06 0.525 0 0.08 0.525 0 0.1 0.525 0 0 0.53 0 0.02 0.53 0 0.04 0.53 0 0.06 0.53 0 0.08 0.53 0 0.1 0.53 0 0 0.535 0 0.02 0.535 0 0.04 0.535 0 0.06 0.535 0 0.08 0.535 0 0.1 0.535 0 0 0.54 0 0.02 0.54 0 0.04 0.54 0 0.06 0.54 0 0.08 0.54 0 0.1 0.54 0 0 0.545 0 0.02 0.545 0 0.04 0.545 0 0.06 0.545 0 0.08 0.545 0 0.1 0.545 0 0 0.55 0 0.02 0.55 0 0.04 0.55 0 0.06 0.55 0 0.08 0.55 0 0.1 0.55 0 0 0.555 0 0.02 0.555 0 0.04 0.555 0 0.06 0.555 0 0.08 0.555 0 0.1 0.555 0 0 0.56 0 0.02 0.56 0 0.04 0.56 0 0.06 0.56 0 0.08 0.56 0 0.1 0.56 0 0 0.565 0 0.02 0.565 0 0.04 0.565 0 0.06 0.565 0 0.08 0.565 0 0.1 0.565 0 0 0.57 0 0.02 0.57 0 0.04 0.57 0 0.06 0.57 0 0.08 0.57 0 0.1 0.57 0 0 0.575 0 0.02 0.575 0 0.04 0.575 0 0.06 0.575 0 0.08 0.575 0 0.1 0.575 0 0 0.58 0 0.02 0.58 0 0.04 0.58 0 0.06 0.58 0 0.08 0.58 0 0.1 0.58 0 0 0.585 0 0.02 0.585 0 0.04 0.585 0 0.06 0.585 0 0.08 0.585 0 0.1 0.585 0 0 0.59 0 0.02 0.59 0 0.04 0.59 0 0.06 0.59 0 0.08 0.59 0 0.1 0.59 0 0 0.595 0 0.02 0.595 0 0.04 0.595 0 0.06 0.595 0 0.08 0.595 0 0.1 0.595 0 0 0.6 0 0.02 0.6 0 0.04 0.6 0 0.06 0.6 0 0.08 0.6 0 0.1 0.6 0 0 0.605 0 0.02 0.605 0 0.04 0.605 0 0.06 0.605 0 0.08 0.605 0 0.1 0.605 0 0 0.61 0 0.02 0.61 0 0.04 0.61 0 0.06 0.61 0 0.08 0.61 0 0.1 0.61 0 0 0.615 0 0.02 0.615 0 0.04 0.615 0 0.06 0.615 0 0.08 0.615 0 0.1 0.615 0 0 0.62 0 0.02 0.62 0 0.04 0.62 0 0.06 0.62 0 0.08 0.62 0 0.1 0.62 0 0 0.625 0 0.02 0.625 0 0.04 0.625 0 0.06 0.625 0 0.08 0.625 0 0.1 0.625 0 0 0.63 0 0.02 0.63 0 0.04 0.63 0 0.06 0.63 0 0.08 0.63 0 0.1 0.63 0 0 0.635 0 0.02 0.635 0 0.04 0.635 0 0.06 0.635 0 0.08 0.635 0 0.1 0.635 0 0 0.64 0 0.02 0.64 0 0.04 0.64 0 0.06 0.64 0 0.08 0.64 0 0.1 0.64 0 0 0.645 0 0.02 0.645 0 0.04 0.645 0 0.06 0.645 0 0.08 0.645 0 0.1 0.645 0 0 0.65 0 0.02 0.65 0 0.04 0.65 0 0.06 0.65 0 0.08 0.65 0 0.1 0.65 0 0 0.655 0 0.02 0.655 0 0.04 0.655 0 0.06 0.655 0 0.08 0.655 0 0.1 0.655 0 0 0.66 0 0.02 0.66 0 0.04 0.66 0 0.06 0.66 0 0.08 0.66 0 0.1 0.66 0 0 0.665 0 0.02 0.665 0 0.04 0.665 0 0.06 0.665 0 0.08 0.665 0 0.1 0.665 0 0 0.67 0 0.02 0.67 0 0.04 0.67 0 0.06 0.67 0 0.08 0.67 0 0.1 0.67 0 0 0.675 0 0.02 0.675 0 0.04 0.675 0 0.06 0.675 0 0.08 0.675 0 0.1 0.675 0 0 0.68 0 0.02 0.68 0 0.04 0.68 0 0.06 0.68 0 0.08 0.68 0 0.1 0.68 0 0 0.685 0 0.02 0.685 0 0.04 0.685 0 0.06 0.685 0 0.08 0.685 0 0.1 0.685 0 0 0.69 0 0.02 0.69 0 0.04 0.69 0 0.06 0.69 0 0.08 0.69 0 0.1 
[...]
			<PointData Scalars="VitesseX">
				<DataArray Name="VitesseX" type="Float32" format="ascii">
 0 -1.65498e-14 -1.31429e-14 -1.43809e-14 -2.30648e-14 0 0 -1.56537e-14 -1.49547e-14 -1.26778e-14 -2.43699e-14 0 0 -1.45245e-14 -1.92577e-14 -9.26291e-15 -2.2488e-14 0 0 -1.33968e-14 -1.9686e-14 -1.50912e-14 -1.46723e-14 0 0 -1.2049e-14 -2.10519e-14 -1.92098e-14 -8.28705e-15 0 0 -1.6244e-14 -1.87736e-14 -1.83253e-14 -5.68627e-15 0 0 -2.01317e-14 -1.45275e-14 -1.96097e-14 1.64679e-16 0 0 -2.36505e-14 -1.77161e-15 -3.117e-14 6.01257e-15 0 0 -1.6496e-14 -9.77253e-15 -2.25152e-14 -6.34683e-15 0 0 -1.42337e-14 -1.55379e-14 -1.44832e-14 -1.39739e-14 0 0 -1.36581e-14 -6.02835e-16 -3.02334e-14 -6.42678e-15 0 0 -7.82073e-15 4.41385e-15 -3.01008e-14 -7.43074e-15 0 0 -2.44375e-15 -1.70824e-14 9.2779e-15 -2.8759e-14 0 0 -1.08597e-15 -2.75054e-14 2.37729e-14 -2.85601e-14 0 0 -1.35456e-14 -8.04288e-16 -7.89764e-15 -2.53749e-15 0 0 -2.70821e-15 -2.12453e-14 1.52981e-14 -2.0056e-14 0 0 -1.82568e-14 -1.54073e-15 -1.43187e-14 -8.30186e-16 0 0 -1.23005e-14 -2.45099e-14 9.48252e-15 -1.70275e-14 0 0 -8.87941e-15 -3.98654e-14 2.40813e-14 -1.80637e-14 0 0 -1.65017e-14 -1.47193e-14 -3.08455e-14 3.96619e-14 0 0 3.10977e-16 -3.57637e-14 -2.79762e-14 4.31328e-14 0 0 -1.03752e-14 -1.76554e-14 -4.60984e-14 4.38252e-14 0 0 2.27612e-14 -7.61671e-14 3.35665e-14 -3.46455e-14 0 0 1.50017e-15 -4.18514e-14 3.15651e-15 -2.81309e-14 0 0 -3.34186e-14 1.45394e-14 -4.23579e-14 -1.93189e-14 0 0 -2.26432e-14 -2.43032e-14 3.44528e-14 -9.78616e-14 0 0 -3.43397e-14 -1.00496e-14 1.20611e-14 -5.56602e-14 0 0 5.82936e-15 -4.66482e-14 1.16933e-14 -2.20209e-14 0 0 9.42365e-15 1.28601e-14 -8.79585e-14 3.54485e-14 0 0 3.69346e-15 2.88002e-14 -7.59272e-14 5.6939e-15 0 0 2.78751e-14 -3.84583e-14 1.24718e-14 -4.04423e-14 0 0 -1.68437e-15 2.49528e-14 -8.42777e-14 3.71801e-14 0 0 1.20044e-14 1.07379e-14 -6.35693e-14 1.10199e-14 0 0 2.18049e-14 -2.44302e-14 -2.41217e-14 -1.02703e-14 0 0 1.05011e-14 -3.94826e-14 2.10125e-15 -4.81952e-15 0 0 -1.99215e-14 -2.83721e-14 4.10321e-15 2.77602e-14 0 0 -3.21679e-14 -2.22389e-14 -2.82976e-14 8.71621e-14 0 0 8.72733e-15 -6.76136e-14 -1.39489e-14 8.52179e-14 0 0 -2.19441e-14 -4.30937e-14 -3.81072e-14 7.63057e-14 0 0 -7.55665e-14 4.29127e-15 -4.04642e-14 2.76924e-14 0 0 -3.72169e-14 -4.70777e-14 2.58366e-14 -2.64761e-14 0 0 3.1755e-14 -1.42158e-13 1.00687e-13 -3.78578e-14 0 0 -2.39626e-14 -8.39553e-14 1.59845e-14 4.55402e-14 0 0 -1.08613e-13 1.04611e-14 -9.30071e-14 1.44712e-13 0 0 -4.25181e-14 -5.4501e-14 -6.95683e-14 1.57379e-13 0 0 1.11204e-13 -2.56746e-13 9.33415e-14 -2.05895e-15 0 0 5.86944e-14 -1.44648e-13 -9.24537e-14 5.70382e-14 0 0 -7.03562e-14 2.49661e-15 -2.88006e-13 1.85835e-13 0 0 -1.17715e-14 -1.67609e-13 -1.08159e-13 5.64849e-14 0 0 -2.6667e-14 -1.22712e-13 -1.68937e-13 1.9506e-14 0 0 -7.87586e-14 -1.29515e-14 -2.81257e-13 5.68963e-14 0 0 -3.11236e-16 -1.21349e-13 -1.98545e-13 6.16735e-14 0 0 1.17062e-13 -3.31669e-13 -7.22158e-15 -2.13447e-15 0 0 7.01396e-14 -3.25085e-13 -6.01063e-14 6.07718e-14 0 0 -2.56158e-14 -1.95021e-13 -2.55418e-13 1.3579e-13 0 0 -6.42874e-14 -1.27354e-13 -2.96003e-13 5.04745e-14 0 0 -1.36804e-13 2.07371e-14 -3.77949e-13 4.60199e-14 0 0 -8.59094e-15 -1.55403e-13 -1.97858e-13 -7.8399e-15 0 0 1.00112e-13 -3.23449e-13 -1.84504e-14 -6.02747e-14 0 0 -2.70756e-14 -1.4727e-13 -1.29143e-13 -2.07322e-14 0 0 -1.38192e-13 -1.10033e-13 -4.93821e-14 -1.17896e-13 0 0 -2.0341e-13 -1.64349e-13 4.84888e-14 -1.45733e-13 0 0 -2.98806e-13 -1.39956e-13 -3.50889e-14 -3.23941e-14 0 0 -2.5061e-13 -1.98464e-13 -4.54437e-14 -9.53191e-15 0 0 -2.15198e-13 -2.44579e-13 -7.49447e-14 -3.15935e-14 0 0 -2.20664e-13 -2.11588e-13 -1.53403e-13 -4.77853e-14 0 0 -1.61005e-13 -2.96994e-13 -1.65434e-13 -6.1949e-14 0 0 -9.43276e-14 -3.96976e-13 -1.97067e-13 -2.16813e-15 0 0 -1.24826e-13 -3.89911e-13 -2.73299e-13 1.37003e-13 0 0 -2.11258e-13 -3.50261e-13 -3.0943e-13 2.33686e-13 0 0 -2.84811e-13 -3.2701e-13 -2.65399e-13 2.06751e-13 0 0 -3.1517e-13 -3.3147e-13 -1.51795e-13 1.07985e-13 0 0 -3.06161e-13 -3.78959e-13 -1.58415e-13 8.05372e-14 0 0 -2.76235e-13 -3.58964e-13 -2.02146e-13 8.2846e-14 0 0 -2.70238e-13 -3.03023e-13 -2.87159e-13 1.05483e-13 0 0 -2.75354e-13 -2.30432e-13 -3.79559e-13 7.64089e-14 0 0 -2.89209e-13 -1.58547e-13 -3.99631e-13 4.97879e-15 0 0 -2.84737e-13 -1.60978e-13 -3.97939e-13 -1.02021e-13 0 0 -2.69326e-13 -1.93742e-13 -3.96166e-13 -1.07552e-13 0 0 -2.72814e-13 -3.13653e-13 -4.48813e-13 -1.08216e-13 0 0 -3.77008e-13 -6.39175e-13 -6.86833e-13 -1.75778e-13 0 0 -7.91652e-13 -1.4716e-12 -1.46895e-12 -5.22388e-13 0 0 -2.05886e-12 -3.64041e-12 -3.65429e-12 -1.72223e-12 0 0 -5.53846e-12 -9.30725e-12 -9.40252e-12 -5.15547e-12 0 0 -1.45168e-11 -2.38063e-11 -2.40244e-11 -1.41313e-11 0 0 -3.67507e-11 -5.97492e-11 -6.01021e-11 -3.64408e-11 0 0 -8.99911e-11 -1.45954e-10 -1.46446e-10 -8.99365e-11 0 0 -2.13536e-10 -3.46149e-10 -3.46911e-10 -2.14183e-10 0 0 -4.915e-10 -7.96742e-10 -7.98395e-10 -4.93956e-10 0 0 -1.09796e-09 -1.78027e-09 -1.78468e-09 -1.10514e-09 0 0 -2.38134e-09 -3.8629e-09 -3.87495e-09 -2.40096e-09 0 0 -5.0172e-09 -8.14169e-09 -8.17442e-09 -5.06787e-09 0 0 -1.02615e-08 -1.67929e-08 -1.67547e-08 -1.03959e-08 0 0 -2.08453e-08 -3.3123e-08 -3.39022e-08 -2.11197e-08 0 0 -3.93669e-08 -6.6434e-08 -6.54226e-08 -4.01509e-08 0 0 -7.76183e-08 -1.2073e-07 -1.22404e-07 -7.79617e-08 0 0 -1.35716e-07 -2.33651e-07 -2.36594e-07 -1.45271e-07 0 0 -2.48898e-07 -3.93703e-07 -3.98043e-07 -2.47177e-07 0 0 -4.43524e-07 -7.305e-07 -7.37157e-07 -4.65424e-07 0 0 -6.90038e-07 -1.15143e-06 -1.19399e-06 -7.4066e-07 0 0 -1.22592e-06 -1.93944e-06 -1.92469e-06 -1.21933e-06 0 0 -1.83048e-06 -3.10587e-06 -3.25561e-06 -2.05553e-06 0 0 -2.80086e-06 -4.61399e-06 -4.6916e-06 -2.92924e-06 0 0 -4.16157e-06 -6.85972e-06 -7.02414e-06 -4.4505e-06 0 0 -5.856e-06 -9.6755e-06 -9.9475e-06 -6.29085e-06 0 0 -7.89452e-06 -1.30886e-05 -1.34364e-05 -8.46078e-06 0 0 -1.00416e-05 -1.64927e-05 -1.68042e-05 -1.05269e-05 0 0 -1.21116e-05 -1.96966e-05 -1.983e-05 -1.23226e-05 0 0 -1.40175e-05 -2.25215e-05 -2.23306e-05 -1.37099e-05 0 0 -1.56469e-05 -2.47721e-05 -2.40887e-05 -1.46049e-05 0 0 -1.6893e-05 -2.62663e-05 -2.53277e-05 -1.48194e-05 0 0 -1.76693e-05 -2.70813e-05 -2.48523e-05 -1.4372e-05 0 0 -1.79135e-05 -2.6468e-05 -2.3359e-05 -1.31989e-05 0 0 -1.74005e-05 -2.4913e-05 -2.12126e-05 -1.11344e-05 0 0 -1.60901e-05 -2.23219e-05 -1.75562e-05 -8.39792e-06 0 0 -1.39761e-05 -1.83563e-05 -1.30892e-05 -5.48955e-06 0 0 -1.0504e-05 -1.34093e-05 -8.31506e-06 -2.77441e-06 0 0 -6.52033e-06 -7.1838e-06 -3.64051e-06 -5.61335e-07 0 0 -6.96598e-07 -5.28235e-07 7.46892e-07 8.72433e-07 0 0 5.48595e-06 7.59354e-06 4.65549e-06 1.61088e-06 0 0 1.40475e-05 1.60627e-05 7.83374e-06 1.06408e-06 0 0 2.29598e-05 2.44749e-05 1.08549e-05 -5.20913e-07 0 0 3.2212e-05 3.38735e-05 1.13365e-05 -3.15281e-06 0 0 4.38971e-05 4.32953e-05 1.08536e-05 -8.59061e-06 0 0 5.55431e-05 5.21778e-05 9.21073e-06 -1.50835e-05 0 0 6.58962e-05 5.96689e-05 6.56452e-06 -2.0852e-05 0 0 7.29605e-05 6.46962e-05 3.96011e-06 -2.47862e-05 0 0 7.772e-05 7.0569e-05 4.82617e-06 -2.64552e-05 0 0 7.50241e-05 7.04607e-05 8.42363e-06 -2.52599e-05 0 0 6.73181e-05 6.84492e-05 1.45796e-05 -2.19433e-05 0 0 5.17648e-05 6.20542e-05 2.19452e-05 -1.5823e-05 0 0 2.73286e-05 4.73925e-05 3.28001e-05 -5.29502e-06 0 0 -2.0308e-05 4.26788e-05 5.19359e-05 4.21679e-06 0 0 -0.000118731 4.88335e-05 9.92882e-05 4.40163e-06 0 0 -0.000227801 5.48756e-05 0.000150524 -8.2199e-09 0 0 -0.000286435 4.92616e-05 0.000153305 -5.35938e-06 0 0 -0.000283737 4.98669e-05 0.00015874 -4.40805e-06 0 0 -0.000263674 4.84025e-05 0.000157022 1.59804e-06 0 0 -0.000228157 3.94595e-05 0.000145237 8.98686e-06 0 0 -0.000197988 1.04172e-05 0.000113654 1.61608e-05 0 0 -6.96743e-05 -0.000142128 -4.20153e-05 4.15689e-05 0 0 0.000124848 -0.000254085 -0.000256458 3.37743e-05 0 0 0.000108929 -0.000162177 -0.000211579 6.56661e-07 0 0 5.57704e-05 2.21906e-05 -1.9302e-05 1.03658e-05 0 0 2.13126e-05 7.76082e-05 0.000106456 6.19045e-05 0 0 5.19617e-06 7.67768e-05 0.000113369 9.49923e-05 0 0 -7.08073e-06 6.00287e-05 0.000110803 9.63468e-05 0 0 -1.96592e-05 2.18343e-05 8.89963e-05 9.15073e-05 0 0 -2.65213e-05 -4.6491e-06 5.30811e-05 6.88555e-05 0 0 -2.6689e-05 -5.80471e-06 3.5418e-05 4.35309e-05 0 0 -2.33971e-05 -4.15695e-06 3.21353e-05 3.20482e-05 0 0 -1.81042e-05 4.07149e-07 3.11548e-05 2.95298e-05 0 0 -1.37697e-05 4.55113e-06 3.15704e-05 2.94932e-05 0 0 -1.04802e-05 7.39683e-06 3.29884e-05 3.07663e-05 0 0 -7.40679e-06 9.15069e-06 3.34104e-05 3.15333e-05 0 0 -4.00796e-06 1.06924e-05 3.24191e-05 3.05188e-05 0 0 -4.16598e-07 1.2397e-05 2.91498e-05 2.65019e-05 0 0 2.93946e-06 1.39188e-05 2.5605e-05 2.18921e-05 0 0 5.53475e-06 1.5153e-05 2.28223e-05 1.81556e-05 0 0 7.48079e-06 1.62181e-05 2.09473e-05 1.54211e-05 0 0 9.32306e-06 1.71079e-05 1.91525e-05 1.2858e-05 0 0 1.11529e-05 1.79047e-05 1.74108e-05 1.03943e-05 0 0 1.2719e-05 1.88863e-05 1.68483e-05 9.25232e-06 0 0 1.38711e-05 2.01706e-05 1.73001e-05 9.36169e-06 0 0 1.47053e-05 2.16226e-05 1.89595e-05 1.03641e-05 0 0 1.53068e-05 2.29415e-05 2.06535e-05 1.16075e-05 0 0 1.55075e-05 2.36269e-05 2.1797e-05 1.25419e-05 0 0 1.52402e-05 2.34892e-05 2.199e-05 1.28533e-05 0 0 1.41617e-05 2.2163e-05 2.11911e-05 1.25719e-05 0 0 1.23689e-05 1.94849e-05 1.88424e-05 1.13319e-05 0 0 1.00059e-05 1.58819e-05 1.5494e-05 9.37881e-06 0 0 7.33305e-06 1.17121e-05 1.15196e-05 7.02185e-06 0 0 4.74246e-06 7.61338e-06 7.53853e-06 4.6211e-06 0 0 2.6411e-06 4.25379e-06 4.22954e-06 2.60185e-06 0 0 1.25676e-06 2.02849e-06 2.02231e-06 1.24676e-06 0 0 5.20095e-07 8.40524e-07 8.39281e-07 5.18083e-07 0 0 1.95137e-07 3.15573e-07 3.15369e-07 1.94806e-07 0 0 6.90994e-08 1.11785e-07 1.11759e-07 6.90581e-08 0 0 2.36814e-08 3.83159e-08 3.83145e-08 2.36787e-08 0 0 7.95071e-09 1.28646e-08 1.28653e-08 7.95105e-09 0 0 2.6288e-09 4.2537e-09 4.25373e-09 2.62907e-09 0 0 8.57846e-10 1.38826e-09 1.38781e-09 8.58072e-10 0 0 2.76588e-10 4.47405e-10 4.47281e-10 2.76421e-10 0 0 8.80443e-11 1.42403e-10 1.42271e-10 8.78738e-11 0 0 2.7592e-11 4.46277e-11 4.46372e-11 2.73191e-11 0 0 8.45253e-12 1.36019e-11 1.37347e-11 8.16404e-12 0 0 2.38898e-12 4.03692e-12 3.79406e-12 2.43662e-12 0 0 5.47019e-13 9.60999e-13 8.98964e-13 5.36875e-13 0 0 -2.68363e-14 -3.36404e-14 1.97118e-13 -2.17397e-13 0 0 -2.817e-13 -1.53066e-13 -2.73361e-13 -2.52006e-13 0 0 -2.01887e-13 -3.15982e-13 -4.04763e-13 -1.81793e-13 0 0 -9.04905e-14 -4.66582e-13 -3.02607e-13 -2.23671e-13 0 0 -2.00664e-13 -3.13719e-13 -4.74637e-13 -2.98817e-14 0 0 -1.64823e-13 -3.18689e-13 -4.61012e-13 -4.6962e-14 0 0 -2.12011e-14 -5.10138e-13 -1.69894e-13 -3.24389e-13 0 0 -1.28006e-13 -3.82379e-13 -2.21645e-13 -3.17151e-13 0 0 -2.69937e-13 -2.07245e-13 -2.19514e-13 -3.9223e-13 0 0 -1.88804e-13 -3.59992e-13 -2.86444e-14 -4.94982e-13 0 0 -3.523e-13 -9.17942e-14 -4.41338e-13 -2.084e-13 0 0 -3.86244e-13 -1.80757e-14 -6.7632e-13 -8.68033e-14 0 0 -1.95473e-13 -3.05698e-13 -5.2333e-13 -1.54081e-13 0
				</DataArray>
				<DataArray Name="VitesseY" type="Float32" format="ascii">