<?xml version="1.0"?>
<VTKFile type="PolyData">
	<PolyData>
		<Piece NumberOfPoints="1206" NumberOfPolys="1000">
			<Points>
				<DataArray type="Float32" NumberOfComponents="3" format="ascii">
 0 0 0 0.02 0 0 0.04 0 0 0.06 0 0 0.08 0 0 0.1 0 0 0 0.005 0 0.02 0.005 0 0.04 0.005 0 0.06 0.005 0 0.08 0.005 0 0.1 0.005 0 0 0.01 0 0.02 0.01 0 0.04 0.01 0 0.06 0.01 0 0.08 0.01 0 0.1 0.01 0 0 0.015 0 0.02 0.015 0 0.04 0.015 0 0.06 0.015 0 0.08 0.015 0 0.1 0.015 0 0 0.02 0 0.02 0.02 0 0.04 0.02 0 0.06 0.02 0 0.08 0.02 0 0.1 0.02 0 0 0.025 0 0.02 0.025 0 0.04 0.025 0 0.06 0.025 0 0.08 0.025 0 0.1 0.025 0 0 0.03 0 0.02 0.03 0 0.04 0.03 0 0.06 0.03 0 0.08 0.03 0 0.1 0.03 0 0 0.035 0 0.02 0.035 0 0.04 0.035 0 0.06 0.035 0 0.08 0.035 0 0.1 0.035 0 0 0.04 0 0.02 0.04 0 0.04 0.04 0 0.06 0.04 0 0.08 0.04 0 0.1 0.04 0 0 0.045 0 0.02 0.045 0 0.04 0.045 0 0.06 0.045 0 0.08 0.045 0 0.1 0.045 0 0 0.05 0 0.02 0.05 0 0.04 0.05 0 0.06 0.05 0 0.08 0.05 0 0.1 0.05 0 0 0.055 0 0.02 0.055 0 0.04 0.055 0 0.06 0.055 0 0.08 0.055 0 0.1 0.055 0 0 0.06 0 0.02 0.06 0 0.04 0.06 0 0.06 0.06 0 0.08 0.06 0 0.1 0.06 0 0 0.065 0 0.02 0.065 0 0.04 0.065 0 0.06 0.065 0 0.08 0.065 0 0.1 0.065 0 0 0.07 0 0.02 0.07 0 0.04 0.07 0 0.06 0.07 0 0.08 0.07 0 0.1 0.07 0 0 0.075 0 0.02 0.075 0 0.04 0.075 0 0.06 0.075 0 0.08 0.075 0 0.1 0.075 0 0 0.08 0 0.02 0.08 0 0.04 0.08 0 0.06 0.08 0 0.08 0.08 0 0.1 0.08 0 0 0.085 0 0.02 0.085 0 0.04 0.085 0 0.06 0.085 0 0.08 0.085 0 0.1 0.085 0 0 0.09 0 0.02 0.09 0 0.04 0.09 0 0.06 0.09 0 0.08 0.09 0 0.1 0.09 0 0 0.095 0 0.02 0.095 0 0.04 0.095 0 0.06 0.095 0 0.08 0.095 0 0.1 0.095 0 0 0.1 0 0.02 0.1 0 0.04 0.1 0 0.06 0.1 0 0.08 0.1 0 0.1 0.1 0 0 0.105 0 0.02 0.105 0 0.04 0.105 0 0.06 0.105 0 0.08 0.105 0 0.1 0.105 0 0 0.11 0 0.02 0.11 0 0.04 0.11 0 0.06 0.11 0 0.08 0.11 0 0.1 0.11 0 0 0.115 0 0.02 0.115 0 0.04 0.115 0 0.06 0.115 0 0.08 0.115 0 0.1 0.115 0 0 0.12 0 0.02 0.12 0 0.04 0.12 0 0.06 0.12 0 0.08 0.12 0 0.1 0.12 0 0 0.125 0 0.02 0.125 0 0.04 0.125 0 0.06 0.125 0 0.08 0.125 0 0.1 0.125 0 0 0.13 0 0.02 0.13 0 0.04 0.13 0 0.06 0.13 0 0.08 0.13 0 0.1 0.13 0 0 0.135 0 0.02 0.135 0 0.04 0.135 0 0.06 0.135 0 0.08 0.135 0 0.1 0.135 0 0 0.14 0 0.02 0.14 0 0.04 0.14 0 0.06 0.14 0 0.08 0.14 0 0.1 0.14 0 0 0.145 0 0.02 0.145 0 0.04 0.145 0 0.06 0.145 0 0.08 0.145 0 0.1 0.145 0 0 0.15 0 0.02 0.15 0 0.04 0.15 0 0.06 0.15 0 0.08 0.15 0 0.1 0.15 0 0 0.155 0 0.02 0.155 0 0.04 0.155 0 0.06 0.155 0 0.08 0.155 0 0.1 0.155 0 0 0.16 0 0.02 0.16 0 0.04 0.16 0 0.06 0.16 0 0.08 0.16 0 0.1 0.16 0 0 0.165 0 0.02 0.165 0 0.04 0.165 0 0.06 0.165 0 0.08 0.165 0 0.1 0.165 0 0 0.17 0 0.02 0.17 0 0.04 0.17 0 0.06 0.17 0 0.08 0.17 0 0.1 0.17 0 0 0.175 0 0.02 0.175 0 0.04 0.175 0 0.06 0.175 0 0.08 0.175 0 0.1 0.175 0 0 0.18 0 0.02 0.18 0 0.04 0.18 0 0.06 0.18 0 0.08 0.18 0 0.1 0.18 0 0 0.185 0 0.02 0.185 0 0.04 0.185 0 0.06 0.185 0 0.08 0.185 0 0.1 0.185 0 0 0.19 0 0.02 0.19 0 0.04 0.19 0 0.06 0.19 0 0.08 0.19 0 0.1 0.19 0 0 0.195 0 0.02 0.195 0 0.04 0.195 0 0.06 0.195 0 0.08 0.195 0 0.1 0.195 0 0 0.2 0 0.02 0.2 0 0.04 0.2 0 0.06 0.2 0 0.08 0.2 0 0.1 0.2 0 0 0.205 0 0.02 0.205 0 0.04 0.205 0 0.06 0.205 0 0.08 0.205 0 0.1 0.205 0 0 0.21 0 0.02 0.21 0 0.04 0.21 0 0.06 0.21 0 0.08 0.21 0 0.1 0.21 0 0 0.215 0 0.02 0.215 0 0.04 0.215 0 0.06 0.215 0 0.08 0.215 0 0.1 0.215 0 0 0.22 0 0.02 0.22 0 0.04 0.22 0 0.06 0.22 0 0.08 0.22 0 0.1 0.22 0 0 0.225 0 0.02 0.225 0 0.04 0.225 0 0.06 0.225 0 0.08 0.225 0 0.1 0.225 0 0 0.23 0 0.02 0.23 0 0.04 0.23 0 0.06 0.23 0 0.08 0.23 0 0.1 0.23 0 0 0.235 0 0.02 0.235 0 0.04 0.235 0 0.06 0.235 0 0.08 0.235 0 0.1 0.235 0 0 0.24 0 0.02 0.24 0 0.04 0.24 0 0.06 0.24 0 0.08 0.24 0 0.1 0.24 0 0 0.245 0 0.02 0.245 0 0.04 0.245 0 0.06 0.245 0 0.08 0.245 0 0.1 0.245 0 0 0.25 0 0.02 0.25 0 0.04 0.25 0 0.06 0.25 0 0.08 0.25 0 0.1 0.25 0 0 0.255 0 0.02 0.255 0 0.04 0.255 0 0.06 0.255 0 0.08 0.255 0 0.1 0.255 0 0 0.26 0 0.02 0.26 0 0.04 0.26 0 0.06 0.26 0 0.08 0.26 0 0.1 0.26 0 0 0.265 0 0.02 0.265 0 0.04 0.265 0 0.06 0.265 0 0.08 0.265 0 0.1 0.265 0 0 0.27 0 0.02 0.27 0 0.04 0.27 0 0.06 0.27 0 0.08 0.27 0 0.1 0.27 0 0 0.275 0 0.02 0.275 0 0.04 0.275 0 0.06 0.275 0 0.08 0.275 0 0.1 0.275 0 0 0.28 0 0.02 0.28 0 0.04 0.28 0 0.06 0.28 0 0.08 0.28 0 0.1 0.28 0 0 0.285 0 0.02 0.285 0 0.04 0.285 0 0.06 0.285 0 0.08 0.285 0 0.1 0.285 0 0 0.29 0 0.02 0.29 0 0.04 0.29 0 0.06 0.29 0 0.08 0.29 0 0.1 0.29 0 0 0.295 0 0.02 0.295 0 0.04 0.295 0 0.06 0.295 0 0.08 0.295 0 0.1 0.295 0 0 0.3 0 0.02 0.3 0 0.04 0.3 0 0.06 0.3 0 0.08 0.3 0 0.1 0.3 0 0 0.305 0 0.02 0.305 0 0.04 0.305 0 0.06 0.305 0 0.08 0.305 0 0.1 0.305 0 0 0.31 0 0.02 0.31 0 0.04 0.31 0 0.06 0.31 0 0.08 0.31 0 0.1 0.31 0 0 0.315 0 0.02 0.315 0 0.04 0.315 0 0.06 0.315 0 0.08 0.315 0 0.1 0.315 0 0 0.32 0 0.02 0.32 0 0.04 0.32 0 0.06 0.32 0 0.08 0.32 0 0.1 0.32 0 0 0.325 0 0.02 0.325 0 0.04 0.325 0 0.06 0.325 0 0.08 0.325 0 0.1 0.325 0 0 0.33 0 0.02 0.33 0 0.04 0.33 0 0.06 0.33 0 0.08 0.33 0 0.1 0.33 0 0 0.335 0 0.02 0.335 0 0.04 0.335 0 0.06 0.335 0 0.08 0.335 0 0.1 0.335 0 0 0.34 0 0.02 0.34 0 0.04 0.34 0 0.06 0.34 0 0.08 0.34 0 0.1 0.34 0 0 0.345 0 0.02 0.345 0 0.04 0.345 0 0.06 0.345 0 0.08 0.345 0 0.1 0.345 0 0 0.35 0 0.02 0.35 0 0.04 0.35 0 0.06 0.35 0 0.08 0.35 0 0.1 0.35 0 0 0.355 0 0.02 0.355 0 0.04 0.355 0 0.06 0.355 0 0.08 0.355 0 0.1 0.355 0 0 0.36 0 0.02 0.36 0 0.04 0.36 0 0.06 0.36 0 0.08 0.36 0 0.1 0.36 0 0 0.365 0 0.02 0.365 0 0.04 0.365 0 0.06 0.365 0 0.08 0.365 0 0.1 0.365 0 0 0.37 0 0.02 0.37 0 0.04 0.37 0 0.06 0.37 0 0.08 0.37 0 0.1 0.37 0 0 0.375 0 0.02 0.375 0 0.04 0.375 0 0.06 0.375 0 0.08 0.375 0 0.1 0.375 0 0 0.38 0 0.02 0.38 0 0.04 0.38 0 0.06 0.38 0 0.08 0.38 0 0.1 0.38 0 0 0.385 0 0.02 0.385 0 0.04 0.385 0 0.06 0.385 0 0.08 0.385 0 0.1 0.385 0 0 0.39 0 0.02 0.39 0 0.04 0.39 0 0.06 0.39 0 0.08 0.39 0 0.1 0.39 0 0 0.395 0 0.02 0.395 0 0.04 0.395 0 0.06 0.395 0 0.08 0.395 0 0.1 0.395 0 0 0.4 0 0.02 0.4 0 0.04 0.4 0 0.06 0.4 0 0.08 0.4 0 0.1 0.4 0 0 0.405 0 0.02 0.405 0 0.04 0.405 0 0.06 0.405 0 0.08 0.405 0 0.1 0.405 0 0 0.41 0 0.02 0.41 0 0.04 0.41 0 0.06 0.41 0 0.08 0.41 0 0.1 0.41 0 0 0.415 0 0.02 0.415 0 0.04 0.415 0 0.06 0.415 0 0.08 0.415 0 0.1 0.415 0 0 0.42 0 0.02 0.42 0 0.04 0.42 0 0.06 0.42 0 0.08 0.42 0 0.1 0.42 0 0 0.425 0 0.02 0.425 0 0.04 0.425 0 0.06 0.425 0 0.08 0.425 0 0.1 0.425 0 0 0.43 0 0.02 0.43 0 0.04 0.43 0 0.06 0.43 0 0.08 0.43 0 0.1 0.43 0 0 0.435 0 0.02 0.435 0 0.04 0.435 0 0.06 0.435 0 0.08 0.435 0 0.1 0.435 0 0 0.44 0 0.02 0.44 0 0.04 0.44 0 0.06 0.44 0 0.08 0.44 0 0.1 0.44 0 0 0.445 0 0.02 0.445 0 0.04 0.445 0 0.06 0.445 0 0.08 0.445 0 0.1 0.445 0 0 0.45 0 0.02 0.45 0 0.04 0.45 0 0.06 0.45 0 0.08 0.45 0 0.1 0.45 0 0 0.455 0 0.02 0.455 0 0.04 0.455 0 0.06 0.455 0 0.08 0.455 0 0.1 0.455 0 0 0.46 0 0.02 0.46 0 0.04 0.46 0 0.06 0.46 0 0.08 0.46 0 0.1 0.46 0 0 0.465 0 0.02 0.465 0 0.04 0.465 0 0.06 0.465 0 0.08 0.465 0 0.1 0.465 0 0 0.47 0 0.02 0.47 0 0.04 0.47 0 0.06 0.47 0 0.08 0.47 0 0.1 0.47 0 0 0.475 0 0.02 0.475 0 0.04 0.475 0 0.06 0.475 0 0.08 0.475 0 0.1 0.475 0 0 0.48 0 0.02 0.48 0 0.04 0.48 0 0.06 0.48 0 0.08 0.48 0 0.1 0.48 0 0 0.485 0 0.02 0.485 0 0.04 0.485 0 0.06 0.485 0 0.08 0.485 0 0.1 0.485 0 0 0.49 0 0.02 0.49 0 0.04 0.49 0 0.06 0.49 0 0.08 0.49 0 0.1 0.49 0 0 0.495 0 0.02 0.495 0 0.04 0.495 0 0.06 0.495 0 0.08 0.495 0 0.1 0.495 0 0 0.5 0 0.02 0.5 0 0.04 0.5 0 0.06 0.5 0 0.08 0.5 0 0.1 0.5 0 0 0.505 0 0.02 0.505 0 0.04 0.505 0 0.06 0.505 0 0.08 0.505 0 0.1 0.505 0 0 0.51 0 0.02 0.51 0 0.04 0.51 0 0.06 0.51 0 0.08 0.51 0 0.1 0.51 0 0 0.515 0 0.02 0.515 0 0.04 0.515 0 0.06 0.515 0 0.08 0.515 0 0.1 0.515 0 0 0.52 0 0.02 0.52 0 0.04 0.52 0 0.06 0.52 0 0.08 0.52 0 0.1 0.52 0 0 0.525 0 0.02 0.525 0 0.04 0.525 0 0.06 0.525 0 0.08 0.525 0 0.1 0.525 0 0 0.53 0 0.02 0.53 0 0.04 0.53 0 0.06 0.53 0 0.08 0.53 0 0.1 0.53 0 0 0.535 0 0.02 0.535 0 0.04 0.535 0 0.06 0.535 0 0.08 0.535 0 0.1 0.535 0 0 0.54 0 0.02 0.54 0 0.04 0.54 0 0.06 0.54 0 0.08 0.54 0 0.1 0.54 0 0 0.545 0 0.02 0.545 0 0.04 0.545 0 0.06 0.545 0 0.08 0.545 0 0.1 0.545 0 0 0.55 0 0.02 0.55 0 0.04 0.55 0 0.06 0.55 0 0.08 0.55 0 0.1 0.55 0 0 0.555 0 0.02 0.555 0 0.04 0.555 0 0.06 0.555 0 0.08 0.555 0 0.1 0.555 0 0 0.56 0 0.02 0.56 0 0.04 0.56 0 0.06 0.56 0 0.08 0.56 0 0.1 0.56 0 0 0.565 0 0.02 0.565 0 0.04 0.565 0 0.06 0.565 0 0.08 0.565 0 0.1 0.565 0 0 0.57 0 0.02 0.57 0 0.04 0.57 0 0.06 0.57 0 0.08 0.57 0 0.1 0.57 0 0 0.575 0 0.02 0.575 0 0.04 0.575 0 0.06 0.575 0 0.08 0.575 0 0.1 0.575 0 0 0.58 0 0.02 0.58 0 0.04 0.58 0 0.06 0.58 0 0.08 0.58 0 0.1 0.58 0 0 0.585 0 0.02 0.585 0 0.04 0.585 0 0.06 0.585 0 0.08 0.585 0 0.1 0.585 0 0 0.59 0 0.02 0.59 0 0.04 0.59 0 0.06 0.59 0 0.08 0.59 0 0.1 0.59 0 0 0.595 0 0.02 0.595 0 0.04 0.595 0 0.06 0.595 0 0.08 0.595 0 0.1 0.595 0 0 0.6 0 0.02 0.6 0 0.04 0.6 0 0.06 0.6 0 0.08 0.6 0 0.1 0.6 0 0 0.605 0 0.02 0.605 0 0.04 0.605 0 0.06 0.605 0 0.08 0.605 0 0.1 0.605 0 0 0.61 0 0.02 0.61 0 0.04 0.61 0 0.06 0.61 0 0.08 0.61 0 0.1 0.61 0 0 0.615 0 0.02 0.615 0 0.04 0.615 0 0.06 0.615 0 0.08 0.615 0 0.1 0.615 0 0 0.62 0 0.02 0.62 0 0.04 0.62 0 0.06 0.62 0 0.08 0.62 0 0.1 0.62 0 0 0.625 0 0.02 0.625 0 0.04 0.625 0 0.06 0.625 0 0.08 0.625 0 0.1 0.625 0 0 0.63 0 0.02 0.63 0 0.04 0.63 0 0.06 0.63 0 0.08 0.63 0 0.1 0.63 0 0 0.635 0 0.02 0.635 0 0.04 0.635 0 0.06 0.635 0 0.08 0.635 0 0.1 0.635 0 0 0.64 0 0.02 0.64 0 0.04 0.64 0 0.06 0.64 0 0.08 0.64 0 0.1 0.64 0 0 0.645 0 0.02 0.645 0 0.04 0.645 0 0.06 0.645 0 0.08 0.645 0 0.1 0.645 0 0 0.65 0 0.02 0.65 0 0.04 0.65 0 0.06 0.65 0 0.08 0.65 0 0.1 0.65 0 0 0.655 0 0.02 0.655 0 0.04 0.655 0 0.06 0.655 0 0.08 0.655 0 0.1 0.655 0 0 0.66 0 0.02 0.66 0 0.04 0.66 0 0.06 0.66 0 0.08 0.66 0 0.1 0.66 0 0 0.665 0 0.02 0.665 0 0.04 0.665 0 0.06 0.665 0 0.08 0.665 0 0.1 0.665 0 0 0.67 0 0.02 0.67 0 0.04 0.67 0 0.06 0.67 0 0.08 0.67 0 0.1 0.67 0 0 0.675 0 0.02 0.675 0 0.04 0.675 0 0.06 0.675 0 0.08 0.675 0 0.1 0.675 0 0 0.68 0 0.02 0.68 0 0.04 0.68 0 0.06 0.68 0 0.08 0.68 0 0.1 0.68 0 0 0.685 0 0.02 0.685 0 0.04 0.685 0 0.06 0.685 0 0.08 0.685 0 0.1 0.685 0 0 0.69 0 0.02 0.69 0 0.04 0.69 0 0.06 0.69 0 0.08 0.69 0 0.1 
[...]
			<PointData Scalars="VitesseX">
				<DataArray Name="VitesseX" type="Float32" format="ascii">
 0 -2.14049e-14 -1.68869e-14 -1.49259e-14 -1.12199e-14 0 0 -1.92644e-14 -1.98006e-14 -1.49448e-14 -9.7776e-15 0 0 -1.65484e-14 -2.42737e-14 -1.61722e-14 -6.01222e-15 0 0 -1.4145e-14 -3.01565e-14 -1.48576e-14 -4.73164e-15 0 0 -1.3388e-14 -3.37229e-14 -1.16741e-14 -6.99789e-15 0 0 -2.24101e-14 -2.14658e-14 -2.09946e-14 -2.80648e-15 0 0 -2.81898e-14 -1.46388e-14 -1.7614e-14 -8.6708e-15 0 0 -2.7086e-14 -2.54886e-14 1.08386e-14 -2.99041e-14 0 0 -3.11152e-14 -2.42568e-14 1.6761e-14 -3.02392e-14 0 0 -4.41273e-14 1.62147e-15 -1.58027e-14 3.88881e-15 0 0 -4.05679e-14 1.08951e-14 -3.33229e-14 2.66356e-14 0 0 -1.76951e-14 -7.20107e-15 -1.80028e-14 2.28388e-14 0 0 1.14997e-14 -4.5601e-14 2.74592e-14 -6.20009e-15 0 0 1.66006e-15 -2.32967e-14 1.60522e-14 -8.30827e-15 0 0 -2.72743e-14 2.60859e-14 -2.38969e-14 1.025e-14 0 0 -9.75772e-15 -6.30605e-15 1.63658e-14 -1.86263e-14 0 0 -3.07331e-14 2.60329e-14 -1.56508e-14 -6.10291e-15 0 0 -4.06997e-14 2.7577e-14 -2.37074e-14 -1.2729e-14 0 0 -1.55113e-14 -1.53625e-14 -1.09538e-14 -1.52977e-14 0 0 -1.28598e-14 -1.61633e-14 -3.53768e-14 3.46614e-15 0 0 -1.14589e-14 -4.59657e-14 6.96981e-15 -4.11607e-14 0 0 -4.11304e-14 -7.19158e-15 -1.25099e-14 -4.28603e-14 0 0 -3.25415e-14 -2.62027e-14 2.05709e-14 -7.1328e-14 0 0 -4.52439e-14 -2.14499e-14 2.53718e-14 -8.55034e-14 0 0 -4.47534e-14 -7.56105e-16 -3.20042e-14 -3.95723e-14 0 0 2.73841e-14 -9.52421e-14 2.2258e-14 -5.71635e-14 0 0 -3.41583e-15 -3.0465e-14 -3.76053e-14 -2.59085e-14 0 0 -2.44353e-15 -7.75989e-15 -6.05145e-14 -2.14701e-14 0 0 2.57821e-14 -4.4402e-14 -2.92214e-14 -4.10345e-14 0 0 1.79974e-14 -2.18687e-14 -7.68317e-14 1.0471e-14 0 0 9.03752e-15 -1.90617e-14 -9.64488e-14 4.77575e-14 0 0 5.00596e-15 -3.32834e-14 -6.60767e-14 2.77126e-14 0 0 -2.036e-15 -2.01375e-14 -5.06761e-14 -2.29378e-15 0 0 -2.00504e-14 2.39394e-14 -7.93381e-14 1.43615e-14 0 0 1.30332e-14 -5.21423e-14 3.49747e-14 -5.39246e-14 0 0 2.52682e-14 -7.71902e-14 6.9773e-14 -6.02058e-14 0 0 -1.98454e-14 1.50688e-14 -6.9145e-14 5.74978e-14 0 0 -1.51768e-14 -1.67982e-15 -6.23918e-14 6.6013e-14 0 0 -9.80363e-15 -3.1778e-14 2.85686e-15 3.35e-14 0 0 -1.37679e-14 -4.18375e-14 4.05021e-14 7.88893e-15 0 0 3.08901e-14 -1.15848e-13 1.15816e-13 -5.25276e-14 0 0 8.73642e-15 -6.61258e-14 3.8331e-14 -1.43687e-14 0 0 -1.58881e-14 -7.40754e-15 -6.21041e-14 6.39982e-14 0 0 1.20115e-14 -3.16412e-14 -3.02869e-14 5.33485e-14 0 0 -1.60454e-15 -2.67376e-14 -5.77179e-15 2.00418e-14 0 0 2.10365e-14 -9.23807e-14 1.36109e-14 2.95496e-14 0 0 2.06459e-14 -1.689e-13 6.31848e-14 1.39595e-15 0 0 -5.82383e-14 -9.96687e-14 -4.01874e-14 4.18546e-14 0 0 -5.59064e-14 -8.50292e-14 -1.20711e-13 3.14488e-14 0 0 -4.68666e-14 -8.35777e-14 -1.56377e-13 2.48958e-14 0 0 -7.73157e-14 -3.73722e-14 -2.43856e-13 1.19079e-13 0 0 -9.77575e-14 -4.04056e-14 -1.86187e-13 8.35254e-14 0 0 9.48007e-15 -2.16718e-13 -2.98043e-14 3.30149e-14 0 0 2.95134e-14 -3.21168e-13 -1.8514e-14 3.6198e-14 0 0 3.12495e-14 -2.54391e-13 -2.00762e-13 8.11777e-14 0 0 -2.20935e-14 -9.74599e-14 -3.41678e-13 7.61622e-14 0 0 -1.11346e-13 9.04349e-15 -3.16019e-13 -1.39238e-14 0 0 4.02936e-15 -1.64742e-13 -7.85985e-14 -1.56002e-13 0 0 4.86461e-14 -2.0425e-13 -9.29901e-14 -4.35556e-14 0 0 -4.04504e-14 -9.8237e-14 -2.17312e-13 7.68405e-14 0 0 -1.33499e-13 -1.20699e-13 -7.07901e-14 -5.27401e-14 0 0 -1.72557e-13 -2.56303e-13 9.6278e-14 -1.10661e-13 0 0 -1.88879e-13 -2.98874e-13 9.78423e-14 -6.95844e-14 0 0 -2.60889e-13 -2.14823e-13 -5.04918e-14 5.75928e-14 0 0 -2.59073e-13 -1.50179e-13 -1.8523e-13 9.38121e-14 0 0 -2.47584e-13 -1.70279e-13 -2.12819e-13 5.14643e-14 0 0 -2.08744e-13 -2.56351e-13 -1.73082e-13 -1.05378e-14 0 0 -1.09018e-13 -3.84105e-13 -1.66925e-13 1.47304e-14 0 0 -1.33203e-13 -3.65181e-13 -2.66485e-13 1.39063e-13 0 0 -1.99814e-13 -2.81539e-13 -3.64421e-13 2.95058e-13 0 0 -2.53807e-13 -2.55656e-13 -3.5693e-13 3.00385e-13 0 0 -2.70462e-13 -2.81309e-13 -2.86161e-13 2.4139e-13 0 0 -2.66187e-13 -3.54828e-13 -2.40316e-13 2.19616e-13 0 0 -2.69326e-13 -3.43992e-13 -2.59914e-13 2.22859e-13 0 0 -2.8884e-13 -2.84674e-13 -3.15566e-13 2.38792e-13 0 0 -3.27157e-13 -1.96746e-13 -4.15694e-13 2.19348e-13 0 0 -3.26527e-13 -1.26116e-13 -4.84104e-13 1.63378e-13 0 0 -3.12103e-13 -1.28861e-13 -4.92311e-13 7.48998e-14 0 0 -2.75104e-13 -1.69014e-13 -4.98771e-13 -9.34176e-15 0 0 -2.52643e-13 -2.9804e-13 -5.19397e-13 -2.11551e-14 0 0 -3.41425e-13 -6.08664e-13 -7.20163e-13 -9.46271e-14 0 0 -7.1321e-13 -1.3792e-12 -1.4233e-12 -4.31478e-13 0 0 -1.87173e-12 -3.37265e-12 -3.42046e-12 -1.5444e-12 0 0 -5.07605e-12 -8.57377e-12 -8.71535e-12 -4.69683e-12 0 0 -1.33711e-11 -2.19137e-11 -2.2216e-11 -1.29484e-11 0 0 -3.39626e-11 -5.51383e-11 -5.56013e-11 -3.35843e-11 0 0 -8.34666e-11 -1.3527e-10 -1.35854e-10 -8.33421e-11 0 0 -1.9904e-10 -3.22561e-10 -3.23344e-10 -1.99577e-10 0 0 -4.61146e-10 -7.47414e-10 -7.4894e-10 -4.63277e-10 0 0 -1.03868e-09 -1.68383e-09 -1.68777e-09 -1.0449e-09 0 0 -2.27575e-09 -3.6907e-09 -3.70138e-09 -2.29282e-09 0 0 -4.85311e-09 -7.87493e-09 -7.90326e-09 -4.89855e-09 0 0 -1.00841e-08 -1.63661e-08 -1.64393e-08 -1.01964e-08 0 0 -2.04617e-08 -3.34659e-08 -3.36254e-08 -2.08636e-08 0 0 -4.08582e-08 -6.5342e-08 -6.57918e-08 -4.08824e-08 0 0 -7.73626e-08 -1.30417e-07 -1.31358e-07 -8.16654e-08 0 0 -1.52081e-07 -2.37451e-07 -2.39382e-07 -1.49112e-07 0 0 -2.66348e-07 -4.47003e-07 -4.61775e-07 -2.87911e-07 0 0 -5.05326e-07 -8.20892e-07 -8.0555e-07 -5.02282e-07 0 0 -8.3875e-07 -1.3535e-06 -1.38572e-06 -8.7044e-07 0 0 -1.45169e-06 -2.45292e-06 -2.56789e-06 -1.60693e-06 0 0 -2.48946e-06 -4.00657e-06 -3.91441e-06 -2.45589e-06 0 0 -3.79936e-06 -6.25308e-06 -6.603e-06 -4.15172e-06 0 0 -5.98857e-06 -1.0061e-05 -1.04385e-05 -6.61436e-06 0 0 -9.22778e-06 -1.50842e-05 -1.50616e-05 -9.42597e-06 0 0 -1.2961e-05 -2.1327e-05 -2.18898e-05 -1.38198e-05 0 0 -1.77462e-05 -2.937e-05 -3.01806e-05 -1.90114e-05 0 0 -2.28196e-05 -3.75751e-05 -3.83822e-05 -2.4089e-05 0 0 -2.79305e-05 -4.56536e-05 -4.62365e-05 -2.88653e-05 0 0 -3.28013e-05 -5.32202e-05 -5.34165e-05 -3.31367e-05 0 0 -3.71653e-05 -5.98784e-05 -5.9585e-05 -3.66989e-05 0 0 -4.08874e-05 -6.53641e-05 -6.43952e-05 -3.92995e-05 0 0 -4.39377e-05 -6.95195e-05 -6.75404e-05 -4.10817e-05 0 0 -4.63641e-05 -7.23385e-05 -6.93973e-05 -4.08185e-05 0 0 -4.82294e-05 -7.39488e-05 -6.88566e-05 -4.00571e-05 0 0 -4.96883e-05 -7.46976e-05 -6.78246e-05 -3.84434e-05 0 0 -5.08755e-05 -7.51622e-05 -6.5832e-05 -3.65071e-05 0 0 -5.21889e-05 -7.62573e-05 -6.55304e-05 -3.49822e-05 0 0 -5.55652e-05 -7.90328e-05 -6.64269e-05 -3.39815e-05 0 0 -6.04176e-05 -8.53969e-05 -6.93082e-05 -3.46436e-05 0 0 -6.51299e-05 -9.26552e-05 -7.50294e-05 -3.66249e-05 0 0 -7.46098e-05 -0.000108038 -8.6028e-05 -4.10511e-05 0 0 -8.87803e-05 -0.000125042 -0.000100946 -4.73043e-05 0 0 -0.000105451 -0.000148029 -0.000119097 -5.49067e-05 0 0 -0.000123192 -0.000180938 -0.000142526 -6.56645e-05 0 0 -0.000143972 -0.000213206 -0.000171967 -7.97705e-05 0 0 -0.000170541 -0.000252858 -0.000207753 -9.58441e-05 0 0 -0.000207212 -0.000307498 -0.000248322 -0.000112861 0 0 -0.000255325 -0.000365499 -0.000289472 -0.000129705 0 0 -0.000309331 -0.000420454 -0.00032662 -0.000150397 0 0 -0.00037426 -0.000487793 -0.000366888 -0.000192285 0 0 -0.000440861 -0.000596969 -0.000448978 -0.000261424 0 0 -0.000514944 -0.000781413 -0.000659506 -0.000328346 0 0 -0.000597485 -0.000999651 -0.000990834 -0.000399117 0 0 -0.000683609 -0.00107555 -0.00106209 -0.000473959 0 0 -0.000712337 -0.00107601 -0.00105723 -0.000545144 0 0 -0.000696596 -0.00105131 -0.00101912 -0.000607592 0 0 -0.000631043 -0.000946351 -0.000861766 -0.00068604 0 0 -0.000507623 -0.000816042 -0.000869143 -0.000737989 0 0 -0.000423702 -0.000738932 -0.000936481 -0.000739455 0 0 -0.000279729 -0.000560411 -0.000838053 -0.000798215 0 0 0.00031306 0.000572191 6.00869e-06 -0.00080603 0 0 0.000843465 0.0016204 0.00110061 -0.000445866 0 0 0.00087632 0.00164076 0.001358 0.000399839 0 0 0.000846996 0.00150365 0.00135328 0.000722788 0 0 0.000749154 0.00126793 0.00127101 0.000710646 0 0 0.000649964 0.00105328 0.00103926 0.000635022 0 0 0.000569474 0.000871397 0.00080502 0.000479262 0 0 0.000500644 0.000723058 0.000612648 0.000328582 0 0 0.000433676 0.000605937 0.000480853 0.000220139 0 0 0.000369471 0.000516779 0.00040702 0.000205908 0 0 0.00031244 0.000448605 0.000377871 0.000202393 0 0 0.000263617 0.000392346 0.000356741 0.000198137 0 0 0.000221252 0.000340526 0.000320946 0.000184858 0 0 0.000183182 0.000289281 0.000277591 0.000161978 0 0 0.000148012 0.000237552 0.000230754 0.000136647 0 0 0.000115696 0.000186812 0.000182923 0.000109664 0 0 8.95983e-05 0.000143816 0.000140251 8.44748e-05 0 0 7.34133e-05 0.000116516 0.000112092 6.70664e-05 0 0 6.3896e-05 0.000101278 9.69799e-05 5.78366e-05 0 0 5.56417e-05 8.86604e-05 8.54613e-05 5.11983e-05 0 0 4.84464e-05 7.70148e-05 7.47569e-05 4.49601e-05 0 0 4.55685e-05 7.17504e-05 6.94961e-05 4.17356e-05 0 0 4.58369e-05 7.21702e-05 6.98856e-05 4.19959e-05 0 0 4.79739e-05 7.58811e-05 7.37629e-05 4.45109e-05 0 0 4.98822e-05 7.9376e-05 7.76595e-05 4.71124e-05 0 0 5.00556e-05 7.99247e-05 7.85628e-05 4.78529e-05 0 0 4.84216e-05 7.76543e-05 7.67218e-05 4.69144e-05 0 0 4.39359e-05 7.06831e-05 7.01509e-05 4.30744e-05 0 0 3.75823e-05 6.05532e-05 6.02123e-05 3.7031e-05 0 0 2.96728e-05 4.78886e-05 4.77234e-05 2.94059e-05 0 0 2.1175e-05 3.42176e-05 3.41576e-05 2.1078e-05 0 0 1.33006e-05 2.15121e-05 2.14999e-05 1.3281e-05 0 0 7.19011e-06 1.16342e-05 1.16345e-05 7.19053e-06 0 0 3.31324e-06 5.36221e-06 5.36376e-06 3.31574e-06 0 0 1.32507e-06 2.14464e-06 2.14541e-06 1.32632e-06 0 0 4.79552e-07 7.76145e-07 7.76408e-07 4.79979e-07 0 0 1.63652e-07 2.64857e-07 2.64932e-07 1.63775e-07 0 0 5.40521e-08 8.7474e-08 8.74936e-08 5.40839e-08 0 0 1.74956e-08 2.83123e-08 2.83169e-08 1.75034e-08 0 0 5.58023e-09 9.02972e-09 9.03074e-09 5.58202e-09 0 0 1.75791e-09 2.84433e-09 2.84461e-09 1.75821e-09 0 0 5.47433e-10 8.85807e-10 8.85698e-10 5.47465e-10 0 0 1.68573e-10 2.7273e-10 2.72572e-10 1.68535e-10 0 0 5.13303e-11 8.28582e-11 8.28476e-11 5.11279e-11 0 0 1.53087e-11 2.48243e-11 2.47346e-11 1.50115e-11 0 0 4.39163e-12 7.23417e-12 7.05698e-12 4.17219e-12 0 0 1.13417e-12 1.93211e-12 1.6885e-12 1.1209e-12 0 0 2.32621e-13 2.09957e-13 2.86393e-13 1.12335e-13 0 0 5.78812e-15 -4.01253e-13 -1.1827e-14 -1.61568e-13 0 0 -1.61173e-13 -3.73352e-13 -3.34072e-13 -1.48051e-14 0 0 -2.98416e-13 -1.46072e-13 -5.94247e-13 7.57176e-14 0 0 -2.73578e-13 -1.82452e-13 -5.44853e-13 7.38274e-14 0 0 -1.9542e-13 -3.26219e-13 -4.26661e-13 7.04572e-14 0 0 -2.30396e-13 -2.88777e-13 -3.85785e-13 -8.16346e-15 0 0 -1.57213e-13 -3.99953e-13 -1.34263e-13 -2.47871e-13 0 0 -2.54457e-13 -2.50062e-13 -1.22921e-13 -3.59453e-13 0 0 -2.72707e-13 -1.97479e-13 -7.86769e-14 -4.77582e-13 0 0 -3.64129e-13 -7.7328e-14 -2.82502e-13 -3.04321e-13 0 0 -3.4408e-13 -7.47108e-14 -6.47498e-13 1.13173e-13 0 0 -9.20871e-14 -3.96239e-13 -5.75765e-13 1.72033e-13 0
				</DataArray>
				<DataArray Name="VitesseY" type="Float32" format="ascii">