<?xml version="1.0"?>
<VTKFile type="PolyData">
	<PolyData>
		<Piece NumberOfPoints="1206" NumberOfPolys="1000">
			<Points>
				<DataArray type="Float32" NumberOfComponents="3" format="ascii">
 0 0 0 0.02 0 0 0.04 0 0 0.06 0 0 0.08 0 0 0.1 0 0 0 0.005 0 0.02 0.005 0 0.04 0.005 0 0.06 0.005 0 0.08 0.005 0 0.1 0.005 0 0 0.01 0 0.02 0.01 0 0.04 0.01 0 0.06 0.01 0 0.08 0.01 0 0.1 0.01 0 0 0.015 0 0.02 0.015 0 0.04 0.015 0 0.06 0.015 0 0.08 0.015 0 0.1 0.015 0 0 0.02 0 0.02 0.02 0 0.04 0.02 0 0.06 0.02 0 0.08 0.02 0 0.1 0.02 0 0 0.025 0 0.02 0.025 0 0.04 0.025 0 0.06 0.025 0 0.08 0.025 0 0.1 0.025 0 0 0.03 0 0.02 0.03 0 0.04 0.03 0 0.06 0.03 0 0.08 0.03 0 0.1 0.03 0 0 0.035 0 0.02 0.035 0 0.04 0.035 0 0.06 0.035 0 0.08 0.035 0 0.1 0.035 0 0 0.04 0 0.02 0.04 0 0.04 0.04 0 0.06 0.04 0 0.08 0.04 0 0.1 0.04 0 0 0.045 0 0.02 0.045 0 0.04 0.045 0 0.06 0.045 0 0.08 0.045 0 0.1 0.045 0 0 0.05 0 0.02 0.05 0 0.04 0.05 0 0.06 0.05 0 0.08 0.05 0 0.1 0.05 0 0 0.055 0 0.02 0.055 0 0.04 0.055 0 0.06 0.055 0 0.08 0.055 0 0.1 0.055 0 0 0.06 0 0.02 0.06 0 0.04 0.06 0 0.06 0.06 0 0.08 0.06 0 0.1 0.06 0 0 0.065 0 0.02 0.065 0 0.04 0.065 0 0.06 0.065 0 0.08 0.065 0 0.1 0.065 0 0 0.07 0 0.02 0.07 0 0.04 0.07 0 0.06 0.07 0 0.08 0.07 0 0.1 0.07 0 0 0.075 0 0.02 0.075 0 0.04 0.075 0 0.06 0.075 0 0.08 0.075 0 0.1 0.075 0 0 0.08 0 0.02 0.08 0 0.04 0.08 0 0.06 0.08 0 0.08 0.08 0 0.1 0.08 0 0 0.085 0 0.02 0.085 0 0.04 0.085 0 0.06 0.085 0 0.08 0.085 0 0.1 0.085 0 0 0.09 0 0.02 0.09 0 0.04 0.09 0 0.06 0.09 0 0.08 0.09 0 0.1 0.09 0 0 0.095 0 0.02 0.095 0 0.04 0.095 0 0.06 0.095 0 0.08 0.095 0 0.1 0.095 0 0 0.1 0 0.02 0.1 0 0.04 0.1 0 0.06 0.1 0 0.08 0.1 0 0.1 0.1 0 0 0.105 0 0.02 0.105 0 0.04 0.105 0 0.06 0.105 0 0.08 0.105 0 0.1 0.105 0 0 0.11 0 0.02 0.11 0 0.04 0.11 0 0.06 0.11 0 0.08 0.11 0 0.1 0.11 0 0 0.115 0 0.02 0.115 0 0.04 0.115 0 0.06 0.115 0 0.08 0.115 0 0.1 0.115 0 0 0.12 0 0.02 0.12 0 0.04 0.12 0 0.06 0.12 0 0.08 0.12 0 0.1 0.12 0 0 0.125 0 0.02 0.125 0 0.04 0.125 0 0.06 0.125 0 0.08 0.125 0 0.1 0.125 0 0 0.13 0 0.02 0.13 0 0.04 0.13 0 0.06 0.13 0 0.08 0.13 0 0.1 0.13 0 0 0.135 0 0.02 0.135 0 0.04 0.135 0 0.06 0.135 0 0.08 0.135 0 0.1 0.135 0 0 0.14 0 0.02 0.14 0 0.04 0.14 0 0.06 0.14 0 0.08 0.14 0 0.1 0.14 0 0 0.145 0 0.02 0.145 0 0.04 0.145 0 0.06 0.145 0 0.08 0.145 0 0.1 0.145 0 0 0.15 0 0.02 0.15 0 0.04 0.15 0 0.06 0.15 0 0.08 0.15 0 0.1 0.15 0 0 0.155 0 0.02 0.155 0 0.04 0.155 0 0.06 0.155 0 0.08 0.155 0 0.1 0.155 0 0 0.16 0 0.02 0.16 0 0.04 0.16 0 0.06 0.16 0 0.08 0.16 0 0.1 0.16 0 0 0.165 0 0.02 0.165 0 0.04 0.165 0 0.06 0.165 0 0.08 0.165 0 0.1 0.165 0 0 0.17 0 0.02 0.17 0 0.04 0.17 0 0.06 0.17 0 0.08 0.17 0 0.1 0.17 0 0 0.175 0 0.02 0.175 0 0.04 0.175 0 0.06 0.175 0 0.08 0.175 0 0.1 0.175 0 0 0.18 0 0.02 0.18 0 0.04 0.18 0 0.06 0.18 0 0.08 0.18 0 0.1 0.18 0 0 0.185 0 0.02 0.185 0 0.04 0.185 0 0.06 0.185 0 0.08 0.185 0 0.1 0.185 0 0 0.19 0 0.02 0.19 0 0.04 0.19 0 0.06 0.19 0 0.08 0.19 0 0.1 0.19 0 0 0.195 0 0.02 0.195 0 0.04 0.195 0 0.06 0.195 0 0.08 0.195 0 0.1 0.195 0 0 0.2 0 0.02 0.2 0 0.04 0.2 0 0.06 0.2 0 0.08 0.2 0 0.1 0.2 0 0 0.205 0 0.02 0.205 0 0.04 0.205 0 0.06 0.205 0 0.08 0.205 0 0.1 0.205 0 0 0.21 0 0.02 0.21 0 0.04 0.21 0 0.06 0.21 0 0.08 0.21 0 0.1 0.21 0 0 0.215 0 0.02 0.215 0 0.04 0.215 0 0.06 0.215 0 0.08 0.215 0 0.1 0.215 0 0 0.22 0 0.02 0.22 0 0.04 0.22 0 0.06 0.22 0 0.08 0.22 0 0.1 0.22 0 0 0.225 0 0.02 0.225 0 0.04 0.225 0 0.06 0.225 0 0.08 0.225 0 0.1 0.225 0 0 0.23 0 0.02 0.23 0 0.04 0.23 0 0.06 0.23 0 0.08 0.23 0 0.1 0.23 0 0 0.235 0 0.02 0.235 0 0.04 0.235 0 0.06 0.235 0 0.08 0.235 0 0.1 0.235 0 0 0.24 0 0.02 0.24 0 0.04 0.24 0 0.06 0.24 0 0.08 0.24 0 0.1 0.24 0 0 0.245 0 0.02 0.245 0 0.04 0.245 0 0.06 0.245 0 0.08 0.245 0 0.1 0.245 0 0 0.25 0 0.02 0.25 0 0.04 0.25 0 0.06 0.25 0 0.08 0.25 0 0.1 0.25 0 0 0.255 0 0.02 0.255 0 0.04 0.255 0 0.06 0.255 0 0.08 0.255 0 0.1 0.255 0 0 0.26 0 0.02 0.26 0 0.04 0.26 0 0.06 0.26 0 0.08 0.26 0 0.1 0.26 0 0 0.265 0 0.02 0.265 0 0.04 0.265 0 0.06 0.265 0 0.08 0.265 0 0.1 0.265 0 0 0.27 0 0.02 0.27 0 0.04 0.27 0 0.06 0.27 0 0.08 0.27 0 0.1 0.27 0 0 0.275 0 0.02 0.275 0 0.04 0.275 0 0.06 0.275 0 0.08 0.275 0 0.1 0.275 0 0 0.28 0 0.02 0.28 0 0.04 0.28 0 0.06 0.28 0 0.08 0.28 0 0.1 0.28 0 0 0.285 0 0.02 0.285 0 0.04 0.285 0 0.06 0.285 0 0.08 0.285 0 0.1 0.285 0 0 0.29 0 0.02 0.29 0 0.04 0.29 0 0.06 0.29 0 0.08 0.29 0 0.1 0.29 0 0 0.295 0 0.02 0.295 0 0.04 0.295 0 0.06 0.295 0 0.08 0.295 0 0.1 0.295 0 0 0.3 0 0.02 0.3 0 0.04 0.3 0 0.06 0.3 0 0.08 0.3 0 0.1 0.3 0 0 0.305 0 0.02 0.305 0 0.04 0.305 0 0.06 0.305 0 0.08 0.305 0 0.1 0.305 0 0 0.31 0 0.02 0.31 0 0.04 0.31 0 0.06 0.31 0 0.08 0.31 0 0.1 0.31 0 0 0.315 0 0.02 0.315 0 0.04 0.315 0 0.06 0.315 0 0.08 0.315 0 0.1 0.315 0 0 0.32 0 0.02 0.32 0 0.04 0.32 0 0.06 0.32 0 0.08 0.32 0 0.1 0.32 0 0 0.325 0 0.02 0.325 0 0.04 0.325 0 0.06 0.325 0 0.08 0.325 0 0.1 0.325 0 0 0.33 0 0.02 0.33 0 0.04 0.33 0 0.06 0.33 0 0.08 0.33 0 0.1 0.33 0 0 0.335 0 0.02 0.335 0 0.04 0.335 0 0.06 0.335 0 0.08 0.335 0 0.1 0.335 0 0 0.34 0 0.02 0.34 0 0.04 0.34 0 0.06 0.34 0 0.08 0.34 0 0.1 0.34 0 0 0.345 0 0.02 0.345 0 0.04 0.345 0 0.06 0.345 0 0.08 0.345 0 0.1 0.345 0 0 0.35 0 0.02 0.35 0 0.04 0.35 0 0.06 0.35 0 0.08 0.35 0 0.1 0.35 0 0 0.355 0 0.02 0.355 0 0.04 0.355 0 0.06 0.355 0 0.08 0.355 0 0.1 0.355 0 0 0.36 0 0.02 0.36 0 0.04 0.36 0 0.06 0.36 0 0.08 0.36 0 0.1 0.36 0 0 0.365 0 0.02 0.365 0 0.04 0.365 0 0.06 0.365 0 0.08 0.365 0 0.1 0.365 0 0 0.37 0 0.02 0.37 0 0.04 0.37 0 0.06 0.37 0 0.08 0.37 0 0.1 0.37 0 0 0.375 0 0.02 0.375 0 0.04 0.375 0 0.06 0.375 0 0.08 0.375 0 0.1 0.375 0 0 0.38 0 0.02 0.38 0 0.04 0.38 0 0.06 0.38 0 0.08 0.38 0 0.1 0.38 0 0 0.385 0 0.02 0.385 0 0.04 0.385 0 0.06 0.385 0 0.08 0.385 0 0.1 0.385 0 0 0.39 0 0.02 0.39 0 0.04 0.39 0 0.06 0.39 0 0.08 0.39 0 0.1 0.39 0 0 0.395 0 0.02 0.395 0 0.04 0.395 0 0.06 0.395 0 0.08 0.395 0 0.1 0.395 0 0 0.4 0 0.02 0.4 0 0.04 0.4 0 0.06 0.4 0 0.08 0.4 0 0.1 0.4 0 0 0.405 0 0.02 0.405 0 0.04 0.405 0 0.06 0.405 0 0.08 0.405 0 0.1 0.405 0 0 0.41 0 0.02 0.41 0 0.04 0.41 0 0.06 0.41 0 0.08 0.41 0 0.1 0.41 0 0 0.415 0 0.02 0.415 0 0.04 0.415 0 0.06 0.415 0 0.08 0.415 0 0.1 0.415 0 0 0.42 0 0.02 0.42 0 0.04 0.42 0 0.06 0.42 0 0.08 0.42 0 0.1 0.42 0 0 0.425 0 0.02 0.425 0 0.04 0.425 0 0.06 0.425 0 0.08 0.425 0 0.1 0.425 0 0 0.43 0 0.02 0.43 0 0.04 0.43 0 0.06 0.43 0 0.08 0.43 0 0.1 0.43 0 0 0.435 0 0.02 0.435 0 0.04 0.435 0 0.06 0.435 0 0.08 0.435 0 0.1 0.435 0 0 0.44 0 0.02 0.44 0 0.04 0.44 0 0.06 0.44 0 0.08 0.44 0 0.1 0.44 0 0 0.445 0 0.02 0.445 0 0.04 0.445 0 0.06 0.445 0 0.08 0.445 0 0.1 0.445 0 0 0.45 0 0.02 0.45 0 0.04 0.45 0 0.06 0.45 0 0.08 0.45 0 0.1 0.45 0 0 0.455 0 0.02 0.455 0 0.04 0.455 0 0.06 0.455 0 0.08 0.455 0 0.1 0.455 0 0 0.46 0 0.02 0.46 0 0.04 0.46 0 0.06 0.46 0 0.08 0.46 0 0.1 0.46 0 0 0.465 0 0.02 0.465 0 0.04 0.465 0 0.06 0.465 0 0.08 0.465 0 0.1 0.465 0 0 0.47 0 0.02 0.47 0 0.04 0.47 0 0.06 0.47 0 0.08 0.47 0 0.1 0.47 0 0 0.475 0 0.02 0.475 0 0.04 0.475 0 0.06 0.475 0 0.08 0.475 0 0.1 0.475 0 0 0.48 0 0.02 0.48 0 0.04 0.48 0 0.06 0.48 0 0.08 0.48 0 0.1 0.48 0 0 0.485 0 0.02 0.485 0 0.04 0.485 0 0.06 0.485 0 0.08 0.485 0 0.1 0.485 0 0 0.49 0 0.02 0.49 0 0.04 0.49 0 0.06 0.49 0 0.08 0.49 0 0.1 0.49 0 0 0.495 0 0.02 0.495 0 0.04 0.495 0 0.06 0.495 0 0.08 0.495 0 0.1 0.495 0 0 0.5 0 0.02 0.5 0 0.04 0.5 0 0.06 0.5 0 0.08 0.5 0 0.1 0.5 0 0 0.505 0 0.02 0.505 0 0.04 0.505 0 0.06 0.505 0 0.08 0.505 0 0.1 0.505 0 0 0.51 0 0.02 0.51 0 0.04 0.51 0 0.06 0.51 0 0.08 0.51 0 0.1 0.51 0 0 0.515 0 0.02 0.515 0 0.04 0.515 0 0.06 0.515 0 0.08 0.515 0 0.1 0.515 0 0 0.52 0 0.02 0.52 0 0.04 0.52 0 0.06 0.52 0 0.08 0.52 0 0.1 0.52 0 0 0.525 0 0.02 0.525 0 0.04 0.525 0 0.06 0.525 0 0.08 0.525 0 0.1 0.525 0 0 0.53 0 0.02 0.53 0 0.04 0.53 0 0.06 0.53 0 0.08 0.53 0 0.1 0.53 0 0 0.535 0 0.02 0.535 0 0.04 0.535 0 0.06 0.535 0 0.08 0.535 0 0.1 0.535 0 0 0.54 0 0.02 0.54 0 0.04 0.54 0 0.06 0.54 0 0.08 0.54 0 0.1 0.54 0 0 0.545 0 0.02 0.545 0 0.04 0.545 0 0.06 0.545 0 0.08 0.545 0 0.1 0.545 0 0 0.55 0 0.02 0.55 0 0.04 0.55 0 0.06 0.55 0 0.08 0.55 0 0.1 0.55 0 0 0.555 0 0.02 0.555 0 0.04 0.555 0 0.06 0.555 0 0.08 0.555 0 0.1 0.555 0 0 0.56 0 0.02 0.56 0 0.04 0.56 0 0.06 0.56 0 0.08 0.56 0 0.1 0.56 0 0 0.565 0 0.02 0.565 0 0.04 0.565 0 0.06 0.565 0 0.08 0.565 0 0.1 0.565 0 0 0.57 0 0.02 0.57 0 0.04 0.57 0 0.06 0.57 0 0.08 0.57 0 0.1 0.57 0 0 0.575 0 0.02 0.575 0 0.04 0.575 0 0.06 0.575 0 0.08 0.575 0 0.1 0.575 0 0 0.58 0 0.02 0.58 0 0.04 0.58 0 0.06 0.58 0 0.08 0.58 0 0.1 0.58 0 0 0.585 0 0.02 0.585 0 0.04 0.585 0 0.06 0.585 0 0.08 0.585 0 0.1 0.585 0 0 0.59 0 0.02 0.59 0 0.04 0.59 0 0.06 0.59 0 0.08 0.59 0 0.1 0.59 0 0 0.595 0 0.02 0.595 0 0.04 0.595 0 0.06 0.595 0 0.08 0.595 0 0.1 0.595 0 0 0.6 0 0.02 0.6 0 0.04 0.6 0 0.06 0.6 0 0.08 0.6 0 0.1 0.6 0 0 0.605 0 0.02 0.605 0 0.04 0.605 0 0.06 0.605 0 0.08 0.605 0 0.1 0.605 0 0 0.61 0 0.02 0.61 0 0.04 0.61 0 0.06 0.61 0 0.08 0.61 0 0.1 0.61 0 0 0.615 0 0.02 0.615 0 0.04 0.615 0 0.06 0.615 0 0.08 0.615 0 0.1 0.615 0 0 0.62 0 0.02 0.62 0 0.04 0.62 0 0.06 0.62 0 0.08 0.62 0 0.1 0.62 0 0 0.625 0 0.02 0.625 0 0.04 0.625 0 0.06 0.625 0 0.08 0.625 0 0.1 0.625 0 0 0.63 0 0.02 0.63 0 0.04 0.63 0 0.06 0.63 0 0.08 0.63 0 0.1 0.63 0 0 0.635 0 0.02 0.635 0 0.04 0.635 0 0.06 0.635 0 0.08 0.635 0 0.1 0.635 0 0 0.64 0 0.02 0.64 0 0.04 0.64 0 0.06 0.64 0 0.08 0.64 0 0.1 0.64 0 0 0.645 0 0.02 0.645 0 0.04 0.645 0 0.06 0.645 0 0.08 0.645 0 0.1 0.645 0 0 0.65 0 0.02 0.65 0 0.04 0.65 0 0.06 0.65 0 0.08 0.65 0 0.1 0.65 0 0 0.655 0 0.02 0.655 0 0.04 0.655 0 0.06 0.655 0 0.08 0.655 0 0.1 0.655 0 0 0.66 0 0.02 0.66 0 0.04 0.66 0 0.06 0.66 0 0.08 0.66 0 0.1 0.66 0 0 0.665 0 0.02 0.665 0 0.04 0.665 0 0.06 0.665 0 0.08 0.665 0 0.1 0.665 0 0 0.67 0 0.02 0.67 0 0.04 0.67 0 0.06 0.67 0 0.08 0.67 0 0.1 0.67 0 0 0.675 0 0.02 0.675 0 0.04 0.675 0 0.06 0.675 0 0.08 0.675 0 0.1 0.675 0 0 0.68 0 0.02 0.68 0 0.04 0.68 0 0.06 0.68 0 0.08 0.68 0 0.1 0.68 0 0 0.685 0 0.02 0.685 0 0.04 0.685 0 0.06 0.685 0 0.08 0.685 0 0.1 0.685 0 0 0.69 0 0.02 0.69 0 0.04 0.69 0 0.06 0.69 0 0.08 0.69 0 0.1 
[...]
			<PointData Scalars="VitesseX">
				<DataArray Name="VitesseX" type="Float32" format="ascii">
 0 -1.87131e-15 5.91756e-14 3.86297e-14 5.99065e-15 0 0 1.18559e-14 4.30458e-14 4.39403e-14 6.64036e-15 0 0 2.21252e-14 3.63465e-14 2.93839e-14 2.20973e-14 0 0 3.64934e-14 1.48314e-14 3.37447e-14 2.41979e-14 0 0 3.46232e-14 9.60527e-15 3.1257e-14 2.35105e-14 0 0 1.45489e-14 2.80194e-14 9.19866e-15 3.58754e-14 0 0 2.99392e-16 4.15308e-14 -6.19592e-15 4.9142e-14 0 0 4.16305e-16 3.64698e-14 4.29189e-15 4.0464e-14 0 0 1.24249e-14 1.82185e-14 2.68726e-14 2.34355e-14 0 0 5.60332e-15 3.11638e-14 2.61275e-14 1.51086e-14 0 0 1.70007e-14 9.20591e-15 6.54244e-14 -2.53797e-14 0 0 1.67319e-14 7.70934e-15 6.44859e-14 -3.11352e-14 0 0 -9.74466e-15 3.22747e-14 4.51114e-14 -1.33766e-14 0 0 -9.92212e-15 3.30495e-14 5.42297e-14 -1.48233e-14 0 0 -9.8102e-15 5.56983e-14 1.27564e-14 2.77158e-14 0 0 -1.15897e-15 4.57715e-14 1.54952e-14 4.9234e-14 0 0 2.18642e-14 1.643e-14 6.65956e-14 2.89844e-14 0 0 3.32551e-14 1.61534e-14 7.75494e-14 3.63893e-14 0 0 2.22251e-14 5.18804e-14 4.98772e-14 6.03304e-14 0 0 2.39842e-14 7.45262e-14 2.10815e-14 7.58243e-14 0 0 4.33199e-14 6.76714e-14 3.37241e-14 3.46936e-14 0 0 1.76135e-14 1.01534e-13 3.08667e-14 2.66842e-15 0 0 -6.65509e-15 1.04754e-13 5.71962e-14 -2.47569e-14 0 0 3.65782e-14 2.21877e-14 1.38378e-13 -7.2606e-14 0 0 2.11106e-14 5.47229e-14 8.33524e-14 -3.35913e-14 0 0 -1.72508e-14 1.26757e-13 1.05329e-14 -2.86506e-15 0 0 3.06493e-14 5.60328e-14 7.02603e-14 -3.59676e-14 0 0 3.81904e-14 3.78737e-14 7.84321e-14 -3.12817e-14 0 0 3.25969e-14 3.64877e-14 7.31579e-14 -1.66757e-14 0 0 6.4262e-14 -1.63422e-14 9.26985e-14 6.71533e-15 0 0 3.28761e-14 3.04659e-14 7.23267e-14 1.0495e-14 0 0 5.70367e-15 7.49122e-14 7.5978e-14 -7.05597e-15 0 0 4.98534e-14 1.43024e-14 1.38783e-13 -8.4698e-15 0 0 7.82449e-15 6.22636e-14 1.25433e-13 2.58884e-14 0 0 1.17089e-14 7.57018e-14 7.02699e-14 1.07835e-13 0 0 2.7716e-14 1.00396e-13 -2.34847e-14 2.09799e-13 0 0 3.10107e-14 8.32496e-14 4.30361e-14 1.27985e-13 0 0 5.85849e-14 4.30787e-14 1.30842e-13 2.70134e-14 0 0 8.97179e-14 3.16908e-14 1.30551e-13 3.9805e-14 0 0 1.2271e-13 7.30457e-15 9.051e-14 1.07272e-13 0 0 6.13976e-14 1.01328e-13 -1.38219e-14 1.53583e-13 0 0 4.48838e-14 1.05174e-13 3.81442e-14 3.88013e-14 0 0 -6.91512e-15 1.52575e-13 2.94715e-14 -3.36667e-15 0 0 -1.04415e-13 2.71243e-13 -7.31358e-14 6.38632e-14 0 0 -8.10676e-14 2.20538e-13 -3.37673e-14 6.82366e-14 0 0 5.70037e-14 -2.92754e-14 2.20141e-13 -6.60926e-14 0 0 5.45909e-14 -5.4233e-14 3.04965e-13 -1.51038e-13 0 0 -8.01416e-14 1.28432e-13 2.11027e-13 -1.18153e-13 0 0 -1.3539e-13 2.13675e-13 1.56832e-13 -8.00512e-14 0 0 -2.26823e-13 3.99549e-13 -4.84193e-14 3.41853e-14 0 0 -2.70962e-13 4.8713e-13 -1.66404e-13 1.04215e-13 0 0 -1.79145e-13 3.57264e-13 -3.44954e-14 3.2253e-14 0 0 -8.46735e-14 2.03918e-13 1.10175e-13 6.95521e-15 0 0 7.28663e-15 7.86695e-15 3.11986e-13 -3.64397e-14 0 0 -6.95043e-14 8.87081e-14 2.78044e-13 7.27268e-15 0 0 -2.97992e-13 4.11704e-13 2.66371e-14 1.16341e-13 0 0 -1.76762e-13 2.54184e-13 1.16061e-13 7.91044e-14 0 0 -2.22152e-14 6.3269e-14 2.01041e-13 9.13035e-14 0 0 -5.40773e-14 1.05684e-13 2.03356e-13 5.52416e-14 0 0 2.33443e-15 9.29097e-14 1.61596e-13 9.21913e-14 0 0 -3.11728e-14 1.8008e-13 7.62095e-14 1.3477e-13 0 0 -1.82677e-14 1.29628e-13 1.92878e-13 2.80868e-14 0 0 6.8349e-14 8.85247e-14 1.4014e-13 1.28078e-13 0 0 5.60569e-14 1.60623e-13 4.3716e-14 2.17115e-13 0 0 5.65536e-14 1.73578e-13 1.09016e-13 1.81542e-13 0 0 3.89698e-14 1.41313e-13 1.99011e-13 1.58529e-13 0 0 1.41245e-13 -4.57718e-14 3.58996e-13 1.16739e-13 0 0 1.13235e-13 1.27079e-13 1.49064e-13 3.00747e-13 0 0 -3.02042e-15 3.57644e-13 7.31173e-15 3.32289e-13 0 0 2.92963e-14 2.44596e-13 2.33018e-13 1.08468e-13 0 0 -1.19019e-13 2.60861e-13 2.83413e-13 7.87698e-14 0 0 -1.59925e-13 1.55274e-13 4.26269e-13 -5.87358e-15 0 0 -3.05468e-13 3.85637e-13 2.67638e-13 9.46856e-14 0 0 -3.29913e-13 3.98485e-13 2.88093e-13 1.2921e-13 0 0 -2.14963e-13 2.76388e-13 2.91748e-13 1.99919e-13 0 0 -9.2448e-14 1.86107e-13 2.7521e-13 1.74725e-13 0 0 -1.70121e-14 6.51624e-14 4.87631e-13 -1.17585e-13 0 0 -3.64746e-13 6.4136e-13 -7.11192e-14 2.63746e-13 0 0 -1.43935e-13 3.29993e-13 1.08593e-13 3.81223e-13 0 0 -2.54892e-13 3.61962e-13 2.8304e-13 2.98167e-13 0 0 -3.74963e-13 5.6632e-13 3.63324e-13 1.31105e-13 0 0 2.66548e-13 -8.84422e-14 9.47055e-13 -3.19653e-13 0 0 2.85718e-13 2.1615e-13 4.35913e-13 -1.97761e-14 0 0 2.44778e-13 4.44896e-13 -5.47063e-14 4.62384e-13 0 0 5.04406e-13 2.93307e-13 1.88401e-13 2.29264e-13 0 0 3.77578e-13 6.49292e-13 3.80329e-13 -1.98487e-14 0 0 6.08041e-13 1.48307e-12 9.04787e-13 2.7842e-13 0 0 2.51863e-12 4.41731e-12 3.97328e-12 2.06123e-12 0 0 1.03397e-11 1.6667e-11 1.70472e-11 1.00218e-11 0 0 3.74851e-11 6.17267e-11 6.41415e-11 3.99725e-11 0 0 1.16063e-10 1.96401e-10 2.07302e-10 1.33307e-10 0 0 2.90207e-10 5.03989e-10 5.44991e-10 3.5957e-10 0 0 3.98438e-10 8.28719e-10 1.04489e-09 7.48263e-10 0 0 -1.14207e-09 -1.33732e-09 -6.90726e-10 -9.13612e-11 0 0 -1.01758e-08 -1.51287e-08 -1.34479e-08 -7.45871e-09 0 0 -4.58625e-08 -7.20556e-08 -6.9312e-08 -4.14251e-08 0 0 -1.58197e-07 -2.57375e-07 -2.58701e-07 -1.6034e-07 0 0 -4.56838e-07 -7.67475e-07 -8.00743e-07 -5.1067e-07 0 0 -1.14598e-06 -1.99345e-06 -2.15868e-06 -1.41382e-06 0 0 -2.63293e-06 -4.61568e-06 -5.1935e-06 -3.49257e-06 0 0 -5.06865e-06 -9.76515e-06 -1.16322e-05 -7.91809e-06 0 0 -9.85286e-06 -1.95786e-05 -2.2354e-05 -1.58672e-05 0 0 -1.65633e-05 -3.2628e-05 -4.43664e-05 -3.28537e-05 0 0 -2.48337e-05 -5.58672e-05 -7.41054e-05 -5.38567e-05 0 0 -3.62189e-05 -8.4686e-05 -0.000112947 -8.53116e-05 0 0 -5.00122e-05 -0.000117461 -0.000161543 -0.000121258 0 0 -7.25145e-05 -0.000158501 -0.000208884 -0.0001525 0 0 -0.000101346 -0.000204789 -0.000253457 -0.000183582 0 0 -0.000138048 -0.00026879 -0.000296331 -0.000184754 0 0 -0.000186813 -0.000354492 -0.000337893 -0.000178427 0 0 -0.000247086 -0.000444765 -0.000375201 -0.000158406 0 0 -0.000309617 -0.000525999 -0.000411226 -0.000135161 0 0 -0.000370467 -0.000615037 -0.00048169 -0.000105259 0 0 -0.000423519 -0.000806046 -0.000622522 -3.50603e-05 0 0 -0.000454375 -0.00117228 -0.000815948 0.000181761 0 0 -0.000471868 -0.00154368 -0.000996763 0.000478714 0 0 -0.000469034 -0.00157111 -0.00100324 0.000516525 0 0 -0.000450858 -0.00147273 -0.000928694 0.000471286 0 0 -0.00041326 -0.00113958 -0.000705756 0.000320507 0 0 -0.000315644 -0.000794375 -0.000532859 0.000209729 0 0 -0.000211477 -0.000553157 -0.000394382 0.000142785 0 0 -0.00012206 0.000133554 0.000155989 -0.000218438 0 0 7.64322e-05 0.00127984 0.00103192 -0.000635441 0 0 0.000298231 0.00136391 0.00107931 -0.000455459 0 0 0.000389561 0.00118917 0.000947285 3.3319e-07 0 0 0.000387288 0.000900009 0.000738831 0.00022207 0 0 0.000374913 0.000663954 0.000568264 0.000263418 0 0 0.000335713 0.000496526 0.000454767 0.000277202 0 0 0.00027627 0.000398545 0.000405837 0.000273655 0 0 0.000221296 0.000349004 0.00037714 0.000251579 0 0 0.000180544 0.000311014 0.000336962 0.000222426 0 0 0.0001505 0.000263722 0.000287874 0.000190894 0 0 0.000122484 0.000213894 0.000234465 0.000155817 0 0 9.38374e-05 0.000163743 0.000179331 0.000118978 0 0 6.64212e-05 0.000115521 0.000125815 8.30632e-05 0 0 4.25261e-05 7.34042e-05 7.91786e-05 5.18745e-05 0 0 2.39564e-05 4.0931e-05 4.36325e-05 2.83278e-05 0 0 1.14868e-05 1.9402e-05 2.0413e-05 1.31226e-05 0 0 4.59702e-06 7.67885e-06 7.97684e-06 5.07914e-06 0 0 1.55952e-06 2.58068e-06 2.65151e-06 1.67413e-06 0 0 4.66649e-07 7.66703e-07 7.81098e-07 4.89941e-07 0 0 1.29452e-07 2.11627e-07 2.14306e-07 1.33788e-07 0 0 3.42676e-08 5.58296e-08 5.63028e-08 3.5034e-08 0 0 8.77324e-09 1.4261e-08 1.43414e-08 8.9041e-09 0 0 2.1846e-09 3.5453e-09 3.55888e-09 2.20603e-09 0 0 5.30404e-10 8.59455e-10 8.62033e-10 5.33614e-10 0 0 1.25727e-10 2.03633e-10 2.03875e-10 1.26303e-10 0 0 2.91642e-11 4.74845e-11 4.71086e-11 2.94143e-11 0 0 6.71936e-12 1.11437e-11 1.07709e-11 6.86522e-12 0 0 1.75934e-12 2.63831e-12 2.83721e-12 1.57133e-12 0 0 6.22323e-13 7.91204e-13 1.05193e-12 3.7572e-13 0 0 1.97877e-13 6.97141e-13 3.13771e-13 4.02404e-13 0 0 1.75342e-13 6.46209e-13 2.01334e-13 3.86494e-13 0 0 2.8859e-13 5.60796e-13 2.48812e-13 3.08154e-13 0 0 4.37223e-13 3.84272e-13 4.63698e-13 1.4164e-13 0 0 4.13677e-13 4.09624e-13 5.94393e-13 5.94875e-14 0 0 3.36447e-13 6.15516e-13 4.47837e-13 2.04474e-13 0 0 3.31508e-13 7.19793e-13 4.32287e-13 1.35738e-13 0 0 4.41813e-13 6.616e-13 5.71545e-13 8.36658e-14 0 0 7.26165e-13 3.84397e-13 7.32396e-13 7.7805e-14 0 0 7.52094e-13 3.51412e-13 7.49463e-13 9.94902e-14 0 0 3.72706e-13 8.34033e-13 3.56139e-13 3.43082e-13 0 0 9.57865e-14 1.18289e-12 1.22527e-13 3.78351e-13 0 0 4.67309e-13 6.72114e-13 5.25248e-13 1.79549e-13 0 0 7.08649e-13 5.67101e-13 4.63256e-13 3.71917e-13 0 0 6.21935e-13 8.28809e-13 2.75229e-13 4.21608e-13 0 0 6.07587e-13 7.20734e-13 4.71451e-13 1.26632e-13 0 0 4.32661e-13 8.41134e-13 4.07208e-13 1.03014e-13 0 0 3.78615e-13 7.48753e-13 6.19326e-13 -3.53076e-14 0 0 3.24218e-13 8.47395e-13 4.80441e-13 6.76387e-14 0 0 2.95097e-13 8.26732e-13 3.12945e-13 3.73031e-13 0 0 3.25944e-13 5.92274e-13 5.44722e-13 3.49118e-13 0 0 3.57447e-13 5.26843e-13 6.70336e-13 1.9288e-13 0 0 4.47864e-13 3.99587e-13 7.93292e-13 1.39702e-13 0 0 3.05728e-13 5.45114e-13 7.20228e-13 2.82634e-13 0 0 3.71559e-13 6.23963e-13 5.42333e-13 4.16293e-13 0 0 5.51849e-13 5.18392e-13 6.28324e-13 2.39798e-13 0 0 3.61141e-13 7.14741e-13 5.31107e-13 1.32081e-13 0 0 3.23865e-13 5.75384e-13 7.63632e-13 -9.82557e-14 0 0 1.56383e-13 8.13466e-13 6.02799e-13 1.72712e-14 0 0 2.68518e-13 8.34886e-13 5.06007e-13 1.06359e-13 0 0 6.12243e-13 3.95727e-13 7.99146e-13 8.59504e-14 0 0 5.75166e-13 4.91052e-13 5.4664e-13 3.9008e-13 0 0 3.29133e-13 9.1502e-13 2.33863e-13 4.34118e-13 0 0 1.8487e-13 1.16067e-12 1.73016e-13 2.53567e-13 0 0 3.8751e-13 7.28137e-13 5.69502e-13 -5.10359e-15 0 0 4.13254e-13 5.44451e-13 6.97936e-13 -9.4515e-14 0 0 4.16591e-13 5.11319e-13 7.63713e-13 -2.44554e-13 0 0 3.02242e-13 6.89892e-13 5.09116e-13 -1.19034e-13 0 0 1.06076e-13 1.04022e-12 -1.3615e-13 4.46139e-13 0 0 3.46825e-13 6.28312e-13 2.53828e-13 2.56381e-13 0 0 4.75138e-13 3.05958e-13 6.42766e-13 8.30709e-14 0 0 1.65953e-13 9.0114e-13 -1.0989e-13 7.03767e-13 0 0 8.28415e-14 1.19526e-12 -4.17738e-13 9.04373e-13 0 0 4.46947e-13 5.45135e-13 2.9429e-13 5.56218e-13 0 0 7.31526e-13 -1.51541e-14 8.4027e-13 3.22879e-13 0 0 3.90647e-13 5.91417e-13 2.09793e-13 6.99144e-13 0 0 -1.80247e-13 1.38532e-12 -3.90564e-13 9.51661e-13 0 0 1.00624e-13 8.34047e-13 1.96313e-13 6.04633e-13 0 0 8.43725e-13 -3.12255e-13 1.08755e-12 3.08244e-13 0 0 1.10558e-12 -7.41383e-13 1.35787e-12 3.19906e-13 0
				</DataArray>
				<DataArray Name="VitesseY" type="Float32" format="ascii">