<?xml version="1.0"?>
<VTKFile type="PolyData">
	<PolyData>
		<Piece NumberOfPoints="1206" NumberOfPolys="1000">
			<Points>
				<DataArray type="Float32" NumberOfComponents="3" format="ascii">
 0 0 0 0.02 0 0 0.04 0 0 0.06 0 0 0.08 0 0 0.1 0 0 0 0.005 0 0.02 0.005 0 0.04 0.005 0 0.06 0.005 0 0.08 0.005 0 0.1 0.005 0 0 0.01 0 0.02 0.01 0 0.04 0.01 0 0.06 0.01 0 0.08 0.01 0 0.1 0.01 0 0 0.015 0 0.02 0.015 0 0.04 0.015 0 0.06 0.015 0 0.08 0.015 0 0.1 0.015 0 0 0.02 0 0.02 0.02 0 0.04 0.02 0 0.06 0.02 0 0.08 0.02 0 0.1 0.02 0 0 0.025 0 0.02 0.025 0 0.04 0.025 0 0.06 0.025 0 0.08 0.025 0 0.1 0.025 0 0 0.03 0 0.02 0.03 0 0.04 0.03 0 0.06 0.03 0 0.08 0.03 0 0.1 0.03 0 0 0.035 0 0.02 0.035 0 0.04 0.035 0 0.06 0.035 0 0.08 0.035 0 0.1 0.035 0 0 0.04 0 0.02 0.04 0 0.04 0.04 0 0.06 0.04 0 0.08 0.04 0 0.1 0.04 0 0 0.045 0 0.02 0.045 0 0.04 0.045 0 0.06 0.045 0 0.08 0.045 0 0.1 0.045 0 0 0.05 0 0.02 0.05 0 0.04 0.05 0 0.06 0.05 0 0.08 0.05 0 0.1 0.05 0 0 0.055 0 0.02 0.055 0 0.04 0.055 0 0.06 0.055 0 0.08 0.055 0 0.1 0.055 0 0 0.06 0 0.02 0.06 0 0.04 0.06 0 0.06 0.06 0 0.08 0.06 0 0.1 0.06 0 0 0.065 0 0.02 0.065 0 0.04 0.065 0 0.06 0.065 0 0.08 0.065 0 0.1 0.065 0 0 0.07 0 0.02 0.07 0 0.04 0.07 0 0.06 0.07 0 0.08 0.07 0 0.1 0.07 0 0 0.075 0 0.02 0.075 0 0.04 0.075 0 0.06 0.075 0 0.08 0.075 0 0.1 0.075 0 0 0.08 0 0.02 0.08 0 0.04 0.08 0 0.06 0.08 0 0.08 0.08 0 0.1 0.08 0 0 0.085 0 0.02 0.085 0 0.04 0.085 0 0.06 0.085 0 0.08 0.085 0 0.1 0.085 0 0 0.09 0 0.02 0.09 0 0.04 0.09 0 0.06 0.09 0 0.08 0.09 0 0.1 0.09 0 0 0.095 0 0.02 0.095 0 0.04 0.095 0 0.06 0.095 0 0.08 0.095 0 0.1 0.095 0 0 0.1 0 0.02 0.1 0 0.04 0.1 0 0.06 0.1 0 0.08 0.1 0 0.1 0.1 0 0 0.105 0 0.02 0.105 0 0.04 0.105 0 0.06 0.105 0 0.08 0.105 0 0.1 0.105 0 0 0.11 0 0.02 0.11 0 0.04 0.11 0 0.06 0.11 0 0.08 0.11 0 0.1 0.11 0 0 0.115 0 0.02 0.115 0 0.04 0.115 0 0.06 0.115 0 0.08 0.115 0 0.1 0.115 0 0 0.12 0 0.02 0.12 0 0.04 0.12 0 0.06 0.12 0 0.08 0.12 0 0.1 0.12 0 0 0.125 0 0.02 0.125 0 0.04 0.125 0 0.06 0.125 0 0.08 0.125 0 0.1 0.125 0 0 0.13 0 0.02 0.13 0 0.04 0.13 0 0.06 0.13 0 0.08 0.13 0 0.1 0.13 0 0 0.135 0 0.02 0.135 0 0.04 0.135 0 0.06 0.135 0 0.08 0.135 0 0.1 0.135 0 0 0.14 0 0.02 0.14 0 0.04 0.14 0 0.06 0.14 0 0.08 0.14 0 0.1 0.14 0 0 0.145 0 0.02 0.145 0 0.04 0.145 0 0.06 0.145 0 0.08 0.145 0 0.1 0.145 0 0 0.15 0 0.02 0.15 0 0.04 0.15 0 0.06 0.15 0 0.08 0.15 0 0.1 0.15 0 0 0.155 0 0.02 0.155 0 0.04 0.155 0 0.06 0.155 0 0.08 0.155 0 0.1 0.155 0 0 0.16 0 0.02 0.16 0 0.04 0.16 0 0.06 0.16 0 0.08 0.16 0 0.1 0.16 0 0 0.165 0 0.02 0.165 0 0.04 0.165 0 0.06 0.165 0 0.08 0.165 0 0.1 0.165 0 0 0.17 0 0.02 0.17 0 0.04 0.17 0 0.06 0.17 0 0.08 0.17 0 0.1 0.17 0 0 0.175 0 0.02 0.175 0 0.04 0.175 0 0.06 0.175 0 0.08 0.175 0 0.1 0.175 0 0 0.18 0 0.02 0.18 0 0.04 0.18 0 0.06 0.18 0 0.08 0.18 0 0.1 0.18 0 0 0.185 0 0.02 0.185 0 0.04 0.185 0 0.06 0.185 0 0.08 0.185 0 0.1 0.185 0 0 0.19 0 0.02 0.19 0 0.04 0.19 0 0.06 0.19 0 0.08 0.19 0 0.1 0.19 0 0 0.195 0 0.02 0.195 0 0.04 0.195 0 0.06 0.195 0 0.08 0.195 0 0.1 0.195 0 0 0.2 0 0.02 0.2 0 0.04 0.2 0 0.06 0.2 0 0.08 0.2 0 0.1 0.2 0 0 0.205 0 0.02 0.205 0 0.04 0.205 0 0.06 0.205 0 0.08 0.205 0 0.1 0.205 0 0 0.21 0 0.02 0.21 0 0.04 0.21 0 0.06 0.21 0 0.08 0.21 0 0.1 0.21 0 0 0.215 0 0.02 0.215 0 0.04 0.215 0 0.06 0.215 0 0.08 0.215 0 0.1 0.215 0 0 0.22 0 0.02 0.22 0 0.04 0.22 0 0.06 0.22 0 0.08 0.22 0 0.1 0.22 0 0 0.225 0 0.02 0.225 0 0.04 0.225 0 0.06 0.225 0 0.08 0.225 0 0.1 0.225 0 0 0.23 0 0.02 0.23 0 0.04 0.23 0 0.06 0.23 0 0.08 0.23 0 0.1 0.23 0 0 0.235 0 0.02 0.235 0 0.04 0.235 0 0.06 0.235 0 0.08 0.235 0 0.1 0.235 0 0 0.24 0 0.02 0.24 0 0.04 0.24 0 0.06 0.24 0 0.08 0.24 0 0.1 0.24 0 0 0.245 0 0.02 0.245 0 0.04 0.245 0 0.06 0.245 0 0.08 0.245 0 0.1 0.245 0 0 0.25 0 0.02 0.25 0 0.04 0.25 0 0.06 0.25 0 0.08 0.25 0 0.1 0.25 0 0 0.255 0 0.02 0.255 0 0.04 0.255 0 0.06 0.255 0 0.08 0.255 0 0.1 0.255 0 0 0.26 0 0.02 0.26 0 0.04 0.26 0 0.06 0.26 0 0.08 0.26 0 0.1 0.26 0 0 0.265 0 0.02 0.265 0 0.04 0.265 0 0.06 0.265 0 0.08 0.265 0 0.1 0.265 0 0 0.27 0 0.02 0.27 0 0.04 0.27 0 0.06 0.27 0 0.08 0.27 0 0.1 0.27 0 0 0.275 0 0.02 0.275 0 0.04 0.275 0 0.06 0.275 0 0.08 0.275 0 0.1 0.275 0 0 0.28 0 0.02 0.28 0 0.04 0.28 0 0.06 0.28 0 0.08 0.28 0 0.1 0.28 0 0 0.285 0 0.02 0.285 0 0.04 0.285 0 0.06 0.285 0 0.08 0.285 0 0.1 0.285 0 0 0.29 0 0.02 0.29 0 0.04 0.29 0 0.06 0.29 0 0.08 0.29 0 0.1 0.29 0 0 0.295 0 0.02 0.295 0 0.04 0.295 0 0.06 0.295 0 0.08 0.295 0 0.1 0.295 0 0 0.3 0 0.02 0.3 0 0.04 0.3 0 0.06 0.3 0 0.08 0.3 0 0.1 0.3 0 0 0.305 0 0.02 0.305 0 0.04 0.305 0 0.06 0.305 0 0.08 0.305 0 0.1 0.305 0 0 0.31 0 0.02 0.31 0 0.04 0.31 0 0.06 0.31 0 0.08 0.31 0 0.1 0.31 0 0 0.315 0 0.02 0.315 0 0.04 0.315 0 0.06 0.315 0 0.08 0.315 0 0.1 0.315 0 0 0.32 0 0.02 0.32 0 0.04 0.32 0 0.06 0.32 0 0.08 0.32 0 0.1 0.32 0 0 0.325 0 0.02 0.325 0 0.04 0.325 0 0.06 0.325 0 0.08 0.325 0 0.1 0.325 0 0 0.33 0 0.02 0.33 0 0.04 0.33 0 0.06 0.33 0 0.08 0.33 0 0.1 0.33 0 0 0.335 0 0.02 0.335 0 0.04 0.335 0 0.06 0.335 0 0.08 0.335 0 0.1 0.335 0 0 0.34 0 0.02 0.34 0 0.04 0.34 0 0.06 0.34 0 0.08 0.34 0 0.1 0.34 0 0 0.345 0 0.02 0.345 0 0.04 0.345 0 0.06 0.345 0 0.08 0.345 0 0.1 0.345 0 0 0.35 0 0.02 0.35 0 0.04 0.35 0 0.06 0.35 0 0.08 0.35 0 0.1 0.35 0 0 0.355 0 0.02 0.355 0 0.04 0.355 0 0.06 0.355 0 0.08 0.355 0 0.1 0.355 0 0 0.36 0 0.02 0.36 0 0.04 0.36 0 0.06 0.36 0 0.08 0.36 0 0.1 0.36 0 0 0.365 0 0.02 0.365 0 0.04 0.365 0 0.06 0.365 0 0.08 0.365 0 0.1 0.365 0 0 0.37 0 0.02 0.37 0 0.04 0.37 0 0.06 0.37 0 0.08 0.37 0 0.1 0.37 0 0 0.375 0 0.02 0.375 0 0.04 0.375 0 0.06 0.375 0 0.08 0.375 0 0.1 0.375 0 0 0.38 0 0.02 0.38 0 0.04 0.38 0 0.06 0.38 0 0.08 0.38 0 0.1 0.38 0 0 0.385 0 0.02 0.385 0 0.04 0.385 0 0.06 0.385 0 0.08 0.385 0 0.1 0.385 0 0 0.39 0 0.02 0.39 0 0.04 0.39 0 0.06 0.39 0 0.08 0.39 0 0.1 0.39 0 0 0.395 0 0.02 0.395 0 0.04 0.395 0 0.06 0.395 0 0.08 0.395 0 0.1 0.395 0 0 0.4 0 0.02 0.4 0 0.04 0.4 0 0.06 0.4 0 0.08 0.4 0 0.1 0.4 0 0 0.405 0 0.02 0.405 0 0.04 0.405 0 0.06 0.405 0 0.08 0.405 0 0.1 0.405 0 0 0.41 0 0.02 0.41 0 0.04 0.41 0 0.06 0.41 0 0.08 0.41 0 0.1 0.41 0 0 0.415 0 0.02 0.415 0 0.04 0.415 0 0.06 0.415 0 0.08 0.415 0 0.1 0.415 0 0 0.42 0 0.02 0.42 0 0.04 0.42 0 0.06 0.42 0 0.08 0.42 0 0.1 0.42 0 0 0.425 0 0.02 0.425 0 0.04 0.425 0 0.06 0.425 0 0.08 0.425 0 0.1 0.425 0 0 0.43 0 0.02 0.43 0 0.04 0.43 0 0.06 0.43 0 0.08 0.43 0 0.1 0.43 0 0 0.435 0 0.02 0.435 0 0.04 0.435 0 0.06 0.435 0 0.08 0.435 0 0.1 0.435 0 0 0.44 0 0.02 0.44 0 0.04 0.44 0 0.06 0.44 0 0.08 0.44 0 0.1 0.44 0 0 0.445 0 0.02 0.445 0 0.04 0.445 0 0.06 0.445 0 0.08 0.445 0 0.1 0.445 0 0 0.45 0 0.02 0.45 0 0.04 0.45 0 0.06 0.45 0 0.08 0.45 0 0.1 0.45 0 0 0.455 0 0.02 0.455 0 0.04 0.455 0 0.06 0.455 0 0.08 0.455 0 0.1 0.455 0 0 0.46 0 0.02 0.46 0 0.04 0.46 0 0.06 0.46 0 0.08 0.46 0 0.1 0.46 0 0 0.465 0 0.02 0.465 0 0.04 0.465 0 0.06 0.465 0 0.08 0.465 0 0.1 0.465 0 0 0.47 0 0.02 0.47 0 0.04 0.47 0 0.06 0.47 0 0.08 0.47 0 0.1 0.47 0 0 0.475 0 0.02 0.475 0 0.04 0.475 0 0.06 0.475 0 0.08 0.475 0 0.1 0.475 0 0 0.48 0 0.02 0.48 0 0.04 0.48 0 0.06 0.48 0 0.08 0.48 0 0.1 0.48 0 0 0.485 0 0.02 0.485 0 0.04 0.485 0 0.06 0.485 0 0.08 0.485 0 0.1 0.485 0 0 0.49 0 0.02 0.49 0 0.04 0.49 0 0.06 0.49 0 0.08 0.49 0 0.1 0.49 0 0 0.495 0 0.02 0.495 0 0.04 0.495 0 0.06 0.495 0 0.08 0.495 0 0.1 0.495 0 0 0.5 0 0.02 0.5 0 0.04 0.5 0 0.06 0.5 0 0.08 0.5 0 0.1 0.5 0 0 0.505 0 0.02 0.505 0 0.04 0.505 0 0.06 0.505 0 0.08 0.505 0 0.1 0.505 0 0 0.51 0 0.02 0.51 0 0.04 0.51 0 0.06 0.51 0 0.08 0.51 0 0.1 0.51 0 0 0.515 0 0.02 0.515 0 0.04 0.515 0 0.06 0.515 0 0.08 0.515 0 0.1 0.515 0 0 0.52 0 0.02 0.52 0 0.04 0.52 0 0.06 0.52 0 0.08 0.52 0 0.1 0.52 0 0 0.525 0 0.02 0.525 0 0.04 0.525 0 0.06 0.525 0 0.08 0.525 0 0.1 0.525 0 0 0.53 0 0.02 0.53 0 0.04 0.53 0 0.06 0.53 0 0.08 0.53 0 0.1 0.53 0 0 0.535 0 0.02 0.535 0 0.04 0.535 0 0.06 0.535 0 0.08 0.535 0 0.1 0.535 0 0 0.54 0 0.02 0.54 0 0.04 0.54 0 0.06 0.54 0 0.08 0.54 0 0.1 0.54 0 0 0.545 0 0.02 0.545 0 0.04 0.545 0 0.06 0.545 0 0.08 0.545 0 0.1 0.545 0 0 0.55 0 0.02 0.55 0 0.04 0.55 0 0.06 0.55 0 0.08 0.55 0 0.1 0.55 0 0 0.555 0 0.02 0.555 0 0.04 0.555 0 0.06 0.555 0 0.08 0.555 0 0.1 0.555 0 0 0.56 0 0.02 0.56 0 0.04 0.56 0 0.06 0.56 0 0.08 0.56 0 0.1 0.56 0 0 0.565 0 0.02 0.565 0 0.04 0.565 0 0.06 0.565 0 0.08 0.565 0 0.1 0.565 0 0 0.57 0 0.02 0.57 0 0.04 0.57 0 0.06 0.57 0 0.08 0.57 0 0.1 0.57 0 0 0.575 0 0.02 0.575 0 0.04 0.575 0 0.06 0.575 0 0.08 0.575 0 0.1 0.575 0 0 0.58 0 0.02 0.58 0 0.04 0.58 0 0.06 0.58 0 0.08 0.58 0 0.1 0.58 0 0 0.585 0 0.02 0.585 0 0.04 0.585 0 0.06 0.585 0 0.08 0.585 0 0.1 0.585 0 0 0.59 0 0.02 0.59 0 0.04 0.59 0 0.06 0.59 0 0.08 0.59 0 0.1 0.59 0 0 0.595 0 0.02 0.595 0 0.04 0.595 0 0.06 0.595 0 0.08 0.595 0 0.1 0.595 0 0 0.6 0 0.02 0.6 0 0.04 0.6 0 0.06 0.6 0 0.08 0.6 0 0.1 0.6 0 0 0.605 0 0.02 0.605 0 0.04 0.605 0 0.06 0.605 0 0.08 0.605 0 0.1 0.605 0 0 0.61 0 0.02 0.61 0 0.04 0.61 0 0.06 0.61 0 0.08 0.61 0 0.1 0.61 0 0 0.615 0 0.02 0.615 0 0.04 0.615 0 0.06 0.615 0 0.08 0.615 0 0.1 0.615 0 0 0.62 0 0.02 0.62 0 0.04 0.62 0 0.06 0.62 0 0.08 0.62 0 0.1 0.62 0 0 0.625 0 0.02 0.625 0 0.04 0.625 0 0.06 0.625 0 0.08 0.625 0 0.1 0.625 0 0 0.63 0 0.02 0.63 0 0.04 0.63 0 0.06 0.63 0 0.08 0.63 0 0.1 0.63 0 0 0.635 0 0.02 0.635 0 0.04 0.635 0 0.06 0.635 0 0.08 0.635 0 0.1 0.635 0 0 0.64 0 0.02 0.64 0 0.04 0.64 0 0.06 0.64 0 0.08 0.64 0 0.1 0.64 0 0 0.645 0 0.02 0.645 0 0.04 0.645 0 0.06 0.645 0 0.08 0.645 0 0.1 0.645 0 0 0.65 0 0.02 0.65 0 0.04 0.65 0 0.06 0.65 0 0.08 0.65 0 0.1 0.65 0 0 0.655 0 0.02 0.655 0 0.04 0.655 0 0.06 0.655 0 0.08 0.655 0 0.1 0.655 0 0 0.66 0 0.02 0.66 0 0.04 0.66 0 0.06 0.66 0 0.08 0.66 0 0.1 0.66 0 0 0.665 0 0.02 0.665 0 0.04 0.665 0 0.06 0.665 0 0.08 0.665 0 0.1 0.665 0 0 0.67 0 0.02 0.67 0 0.04 0.67 0 0.06 0.67 0 0.08 0.67 0 0.1 0.67 0 0 0.675 0 0.02 0.675 0 0.04 0.675 0 0.06 0.675 0 0.08 0.675 0 0.1 0.675 0 0 0.68 0 0.02 0.68 0 0.04 0.68 0 0.06 0.68 0 0.08 0.68 0 0.1 0.68 0 0 0.685 0 0.02 0.685 0 0.04 0.685 0 0.06 0.685 0 0.08 0.685 0 0.1 0.685 0 0 0.69 0 0.02 0.69 0 0.04 0.69 0 0.06 0.69 0 0.08 0.69 0 0.1 
[...]
			<PointData Scalars="VitesseX">
				<DataArray Name="VitesseX" type="Float32" format="ascii">
 0 -8.53114e-15 -4.32756e-15 1.7758e-14 2.66381e-14 0 0 -1.04477e-14 -1.56304e-15 1.71116e-14 2.65096e-14 0 0 -7.00846e-15 -4.364e-15 2.25e-14 2.2703e-14 0 0 -8.65175e-15 4.08876e-15 1.64108e-14 2.44226e-14 0 0 -1.22844e-14 1.362e-14 1.42142e-14 2.12644e-14 0 0 -5.59498e-15 4.02568e-16 3.82335e-14 4.21926e-15 0 0 3.39166e-15 -1.9662e-14 6.79438e-14 -1.4023e-14 0 0 4.70206e-15 -1.50416e-14 6.25069e-14 -3.91413e-15 0 0 3.04289e-15 -3.61667e-15 4.82623e-14 1.38485e-14 0 0 -2.78432e-15 1.54046e-14 2.64163e-14 3.39212e-14 0 0 -1.98995e-15 2.94369e-14 6.5963e-15 4.79267e-14 0 0 1.78646e-14 -5.2097e-15 3.56722e-14 3.62196e-14 0 0 7.43887e-15 -1.17824e-14 5.53918e-14 2.28657e-14 0 0 -8.47937e-15 6.70781e-15 5.34667e-14 -1.46086e-15 0 0 2.96462e-15 5.3988e-16 3.50391e-14 6.71056e-15 0 0 2.26493e-15 9.75631e-16 2.66255e-14 1.868e-15 0 0 2.05718e-15 8.13095e-15 2.3371e-14 -1.79257e-14 0 0 7.16613e-15 3.65785e-15 8.82957e-15 4.01425e-16 0 0 -1.83505e-14 3.7184e-14 -3.59016e-14 3.83214e-14 0 0 -2.39331e-14 4.19916e-14 -1.62315e-14 7.91943e-15 0 0 -9.53789e-15 1.46937e-14 3.67217e-14 -6.41779e-14 0 0 2.2723e-14 -1.95638e-14 3.07611e-14 -5.86085e-14 0 0 3.08067e-14 -3.6498e-14 3.19123e-14 -3.03244e-14 0 0 -1.55373e-14 3.0977e-14 -3.48777e-14 3.16916e-14 0 0 -1.87238e-14 3.6639e-14 -4.45624e-14 5.65346e-14 0 0 -2.32399e-14 2.515e-14 -2.53391e-15 3.57707e-14 0 0 -1.25457e-14 -3.61924e-15 4.42772e-14 6.05729e-15 0 0 -1.35839e-14 -1.64046e-14 7.4731e-14 -6.85804e-15 0 0 -4.85098e-14 1.32385e-14 5.669e-14 3.13951e-14 0 0 -7.18563e-14 5.71863e-14 -1.34861e-14 1.04433e-13 0 0 -1.95305e-15 -1.09984e-14 4.90347e-14 3.90479e-14 0 0 1.16256e-14 1.19464e-14 5.24274e-14 -1.70013e-14 0 0 -2.00032e-14 1.0136e-13 -2.77843e-14 1.90516e-14 0 0 4.20521e-14 -1.24674e-14 9.1345e-14 -2.2222e-14 0 0 1.27093e-14 2.01444e-14 4.51794e-14 3.07799e-14 0 0 -2.62597e-14 6.05035e-14 -2.69279e-15 7.19307e-14 0 0 -3.56157e-14 4.19855e-14 1.5894e-14 8.61332e-14 0 0 -4.23668e-14 5.78284e-14 -1.85368e-14 9.21977e-14 0 0 -8.71857e-14 1.21759e-13 -6.77587e-14 7.47856e-14 0 0 -7.48868e-14 7.19565e-14 2.6702e-14 -1.01916e-14 0 0 -2.16667e-14 -1.4119e-14 1.21548e-13 -7.13412e-14 0 0 -2.09707e-14 2.91326e-14 3.21006e-14 2.7877e-14 0 0 5.59428e-14 -4.8871e-14 5.06039e-14 8.21668e-14 0 0 1.24004e-13 -1.7195e-13 1.595e-13 3.26027e-14 0 0 9.54677e-14 -1.36319e-13 1.54873e-13 -7.0298e-15 0 0 -2.19866e-14 1.06181e-13 -1.07e-13 1.50602e-13 0 0 -8.3792e-15 1.07456e-13 -1.80636e-13 2.43901e-13 0 0 5.29753e-14 1.23541e-14 -7.68289e-14 1.56823e-13 0 0 8.47557e-14 -2.98532e-14 3.14498e-16 6.40451e-14 0 0 2.18661e-13 -2.34957e-13 1.81553e-13 -5.85656e-14 0 0 3.11337e-13 -3.50147e-13 2.88204e-13 -1.41119e-13 0 0 2.33263e-13 -1.99927e-13 1.81804e-13 -7.90652e-14 0 0 1.36948e-13 -2.91537e-14 1.40707e-14 6.76895e-14 0 0 7.40634e-14 9.79001e-14 -8.73099e-14 1.11018e-13 0 0 1.60245e-13 -1.06948e-14 6.29462e-14 -6.56017e-15 0 0 2.86585e-13 -1.87092e-13 2.79871e-13 -1.5597e-13 0 0 2.51702e-13 -8.02369e-14 1.85136e-13 -9.7107e-14 0 0 1.58104e-13 8.32501e-14 2.65196e-14 5.03437e-14 0 0 6.36775e-14 2.29483e-13 -7.07325e-14 1.4117e-13 0 0 1.15099e-13 1.14915e-13 5.1255e-14 1.22531e-13 0 0 4.86959e-14 4.54476e-14 2.26488e-13 2.22341e-14 0 0 -6.31495e-14 2.06879e-13 1.34503e-13 7.27961e-14 0 0 5.34683e-14 1.55118e-13 1.60306e-13 5.65798e-14 0 0 1.67856e-13 4.84351e-14 1.41449e-13 4.3488e-14 0 0 1.05991e-13 4.32428e-14 1.63806e-13 -1.21989e-14 0 0 -5.64325e-14 8.0031e-14 2.45192e-13 -3.26838e-14 0 0 -1.72365e-13 2.29826e-13 1.05186e-13 1.33324e-13 0 0 -2.82594e-14 5.45507e-14 3.02711e-13 1.81203e-14 0 0 4.99917e-14 -5.14786e-14 2.65471e-13 7.11797e-14 0 0 9.02287e-14 -1.95503e-14 1.06137e-13 1.59299e-13 0 0 3.02666e-13 -1.37429e-13 1.27939e-13 6.05919e-14 0 0 3.43523e-13 -4.69314e-14 -3.84179e-14 1.25167e-13 0 0 1.87248e-13 1.00949e-13 -5.82183e-14 1.25415e-13 0 0 3.38795e-14 1.93975e-13 -5.7512e-14 1.50859e-13 0 0 2.42808e-13 -4.37442e-14 9.44644e-14 1.69577e-13 0 0 4.37904e-13 -2.22664e-13 2.22971e-13 1.6905e-13 0 0 2.16835e-13 9.34805e-14 1.62055e-14 1.82757e-13 0 0 1.63561e-13 1.95749e-13 -5.57787e-14 1.59952e-13 0 0 3.219e-13 3.04105e-14 -8.77648e-15 8.20927e-14 0 0 5.33603e-13 -9.81583e-14 1.88541e-13 7.87728e-14 0 0 7.84112e-13 8.35562e-14 6.35153e-13 2.16503e-13 0 0 1.22868e-12 1.18246e-12 1.43488e-12 9.00993e-13 0 0 2.75144e-12 4.39244e-12 4.03633e-12 2.86716e-12 0 0 7.29615e-12 1.23378e-11 1.17498e-11 7.79861e-12 0 0 1.82581e-11 3.0388e-11 3.03559e-11 1.92297e-11 0 0 4.01586e-11 6.63225e-11 6.78241e-11 4.24775e-11 0 0 6.99779e-11 1.17262e-10 1.21938e-10 7.76202e-11 0 0 3.158e-11 6.37147e-11 7.98469e-11 5.76817e-11 0 0 -3.02277e-10 -4.57142e-10 -4.17036e-10 -2.37572e-10 0 0 -1.70605e-09 -2.68465e-09 -2.59e-09 -1.55317e-09 0 0 -6.25048e-09 -9.96086e-09 -9.771e-09 -5.94357e-09 0 0 -1.89395e-08 -3.04325e-08 -3.0169e-08 -1.8513e-08 0 0 -5.07158e-08 -8.20888e-08 -8.21216e-08 -5.07682e-08 0 0 -1.23488e-07 -2.01393e-07 -2.0334e-07 -1.26637e-07 0 0 -2.77648e-07 -4.56632e-07 -4.65737e-07 -2.92345e-07 0 0 -5.91799e-07 -9.81343e-07 -9.9664e-07 -6.31268e-07 0 0 -1.1544e-06 -1.91492e-06 -2.0794e-06 -1.32035e-06 0 0 -2.18779e-06 -3.86382e-06 -3.81368e-06 -2.46125e-06 0 0 -4.00331e-06 -6.48622e-06 -7.30041e-06 -4.87408e-06 0 0 -6.30154e-06 -1.14442e-05 -1.26084e-05 -7.92115e-06 0 0 -1.06774e-05 -1.89824e-05 -1.99658e-05 -1.37981e-05 0 0 -1.59263e-05 -2.81996e-05 -3.24899e-05 -2.17475e-05 0 0 -2.31481e-05 -4.22923e-05 -4.89065e-05 -3.30954e-05 0 0 -3.33159e-05 -6.09598e-05 -6.82596e-05 -4.62786e-05 0 0 -4.50142e-05 -8.12962e-05 -9.25562e-05 -6.24866e-05 0 0 -6.08035e-05 -0.000108606 -0.000118702 -7.80162e-05 0 0 -8.26643e-05 -0.000138417 -0.000143886 -9.11498e-05 0 0 -0.000106028 -0.000168856 -0.000167993 -0.000101435 0 0 -0.000133707 -0.000208165 -0.000193091 -0.000109757 0 0 -0.000166381 -0.000252359 -0.000218805 -0.00011674 0 0 -0.000203395 -0.000295081 -0.000246977 -0.000127234 0 0 -0.000240714 -0.000337341 -0.000282516 -0.000140977 0 0 -0.00027508 -0.000397686 -0.000328607 -0.000162018 0 0 -0.000323707 -0.000469182 -0.000383697 -0.000192341 0 0 -0.000375692 -0.000541538 -0.000440819 -0.000224548 0 0 -0.000436071 -0.000610379 -0.000495961 -0.000268227 0 0 -0.000518781 -0.000667024 -0.000540956 -0.000335399 0 0 -0.00060083 -0.000707339 -0.000582006 -0.00042628 0 0 -0.000686732 -0.000786614 -0.00068979 -0.000486334 0 0 -0.000867545 -0.00100222 -0.000829311 -0.000502889 0 0 -0.00118313 -0.00130311 -0.000834912 -0.000530807 0 0 -0.00146467 -0.00143458 -0.0007946 -0.000571079 0 0 -0.00146347 -0.00140871 -0.000736112 -0.000636858 0 0 -0.00138012 -0.00128573 -0.000668935 -0.000677578 0 0 -0.00110453 -0.00106488 -0.000680511 -0.000657117 0 0 -0.000789146 -0.000913332 -0.00076209 -0.000552503 0 0 -0.000515637 -0.000826903 -0.000839214 -0.000268881 0 0 0.000179085 -0.000322137 -0.000639665 -0.000195077 0 0 0.000984274 0.00140219 0.000540141 -0.000225783 0 0 0.00104852 0.00194685 0.00132374 -0.000164377 0 0 0.00100671 0.00188217 0.0013295 0.000137252 0 0 0.000895558 0.00160256 0.00124422 0.000427847 0 0 0.00077994 0.00127419 0.00103894 0.000448196 0 0 0.000670905 0.00101083 0.000852282 0.000430318 0 0 0.000576662 0.00083253 0.000713727 0.00039063 0 0 0.000503011 0.000721132 0.000627095 0.000355363 0 0 0.000442646 0.000640467 0.000569933 0.00032313 0 0 0.000385039 0.000565348 0.00051475 0.000289709 0 0 0.000330566 0.000494579 0.000455305 0.000257263 0 0 0.00028559 0.000434473 0.000401144 0.000229572 0 0 0.000250558 0.000384284 0.000356779 0.000207391 0 0 0.000218456 0.000336519 0.000316438 0.000186208 0 0 0.000184055 0.000286154 0.000272738 0.000162198 0 0 0.000148788 0.000233728 0.000225497 0.000135434 0 0 0.000113674 0.000180329 0.000175887 0.000106539 0 0 8.03375e-05 0.000128407 0.000126482 7.72167e-05 0 0 5.13825e-05 8.256e-05 8.1869e-05 5.02618e-05 0 0 2.90136e-05 4.68132e-05 4.66523e-05 2.87536e-05 0 0 1.40737e-05 2.27709e-05 2.27695e-05 1.40715e-05 0 0 5.80807e-06 9.41043e-06 9.42619e-06 5.83357e-06 0 0 2.08761e-06 3.384e-06 3.39164e-06 2.09997e-06 0 0 6.8133e-07 1.10442e-06 1.10689e-06 6.85336e-07 0 0 2.10884e-07 3.41753e-07 3.42416e-07 2.11956e-07 0 0 6.33842e-08 1.02687e-07 1.02847e-07 6.36425e-08 0 0 1.86931e-08 3.02753e-08 3.03113e-08 1.87516e-08 0 0 5.42993e-09 8.79227e-09 8.79998e-09 5.44273e-09 0 0 1.55541e-09 2.51779e-09 2.51962e-09 1.55808e-09 0 0 4.39504e-10 7.11079e-10 7.1166e-10 4.40096e-10 0 0 1.22428e-10 1.98337e-10 1.98273e-10 1.22673e-10 0 0 3.356e-11 5.49403e-11 5.44846e-11 3.38753e-11 0 0 9.23592e-12 1.51644e-11 1.49548e-11 9.30002e-12 0 0 2.74778e-12 4.192e-12 4.38302e-12 2.52295e-12 0 0 1.01964e-12 1.20083e-12 1.64954e-12 7.23812e-13 0 0 5.04355e-13 5.73015e-13 7.86773e-13 2.70246e-13 0 0 3.10843e-13 5.02107e-13 5.5123e-13 1.31216e-13 0 0 3.45663e-13 3.97254e-13 5.34436e-13 1.37399e-13 0 0 3.6978e-13 4.51285e-13 3.53125e-13 3.10786e-13 0 0 4.21911e-13 4.92599e-13 2.79518e-13 4.00711e-13 0 0 4.53088e-13 6.08032e-13 1.76054e-13 4.62639e-13 0 0 4.88603e-13 5.92609e-13 3.40282e-13 3.28039e-13 0 0 5.11708e-13 5.58079e-13 4.82014e-13 3.07161e-13 0 0 5.74592e-13 5.07825e-13 5.23469e-13 2.96781e-13 0 0 5.28998e-13 6.3139e-13 4.21551e-13 1.38031e-13 0 0 4.18172e-13 7.85474e-13 2.60507e-13 1.69094e-13 0 0 3.28331e-13 8.72157e-13 1.70225e-13 2.90166e-13 0 0 2.37219e-13 9.26018e-13 1.98117e-13 3.53667e-13 0 0 3.72487e-13 5.64881e-13 5.86848e-13 2.50404e-13 0 0 4.93302e-13 3.22664e-13 8.16396e-13 1.51807e-13 0 0 2.73937e-13 7.49269e-13 3.33487e-13 4.85169e-13 0 0 3.49619e-13 7.15324e-13 2.27473e-13 5.77601e-13 0 0 4.46894e-13 5.76081e-13 3.41418e-13 4.18651e-13 0 0 3.23393e-13 7.34325e-13 2.53994e-13 3.30952e-13 0 0 3.99538e-13 5.55991e-13 4.55636e-13 1.84496e-13 0 0 4.55503e-13 4.75885e-13 4.6262e-13 2.30732e-13 0 0 5.08569e-13 2.96677e-13 7.13295e-13 7.26909e-14 0 0 4.54295e-13 3.32613e-13 7.92928e-13 1.6187e-14 0 0 3.47274e-13 6.26854e-13 4.87304e-13 1.75739e-13 0 0 3.19073e-13 5.84543e-13 6.73252e-13 -7.14629e-14 0 0 2.27536e-13 7.0017e-13 5.22621e-13 4.21745e-14 0 0 5.43544e-13 3.49768e-13 5.5211e-13 1.85162e-13 0 0 5.60944e-13 1.45265e-13 7.47701e-13 8.75291e-14 0 0 4.19308e-14 7.66359e-13 2.28273e-13 4.63423e-13 0 0 1.52591e-13 5.30697e-13 4.46522e-13 4.1296e-13 0 0 3.13651e-13 1.4048e-13 8.68149e-13 1.67689e-13 0 0 4.65496e-14 5.2859e-13 7.20157e-13 -3.32811e-15 0 0 -4.91321e-14 7.64609e-13 6.31139e-13 -1.42262e-13 0 0 1.28146e-13 5.535e-13 7.06045e-13 -1.27659e-13 0 0 3.20571e-13 2.64596e-13 9.29765e-13 -2.78559e-13 0 0 1.48985e-13 5.2415e-13 6.56839e-13 -7.25766e-14 0 0 -3.11147e-13 1.15684e-12 1.45641e-13 2.52447e-13 0 0 -4.54074e-13 1.31599e-12 9.44725e-14 2.58493e-13 0
				</DataArray>
				<DataArray Name="VitesseY" type="Float32" format="ascii">