<?xml version="1.0"?>
<VTKFile type="PolyData">
	<PolyData>
		<Piece NumberOfPoints="1206" NumberOfPolys="1000">
			<Points>
				<DataArray type="Float32" NumberOfComponents="3" format="ascii">
 0 0 0 0.02 0 0 0.04 0 0 0.06 0 0 0.08 0 0 0.1 0 0 0 0.005 0 0.02 0.005 0 0.04 0.005 0 0.06 0.005 0 0.08 0.005 0 0.1 0.005 0 0 0.01 0 0.02 0.01 0 0.04 0.01 0 0.06 0.01 0 0.08 0.01 0 0.1 0.01 0 0 0.015 0 0.02 0.015 0 0.04 0.015 0 0.06 0.015 0 0.08 0.015 0 0.1 0.015 0 0 0.02 0 0.02 0.02 0 0.04 0.02 0 0.06 0.02 0 0.08 0.02 0 0.1 0.02 0 0 0.025 0 0.02 0.025 0 0.04 0.025 0 0.06 0.025 0 0.08 0.025 0 0.1 0.025 0 0 0.03 0 0.02 0.03 0 0.04 0.03 0 0.06 0.03 0 0.08 0.03 0 0.1 0.03 0 0 0.035 0 0.02 0.035 0 0.04 0.035 0 0.06 0.035 0 0.08 0.035 0 0.1 0.035 0 0 0.04 0 0.02 0.04 0 0.04 0.04 0 0.06 0.04 0 0.08 0.04 0 0.1 0.04 0 0 0.045 0 0.02 0.045 0 0.04 0.045 0 0.06 0.045 0 0.08 0.045 0 0.1 0.045 0 0 0.05 0 0.02 0.05 0 0.04 0.05 0 0.06 0.05 0 0.08 0.05 0 0.1 0.05 0 0 0.055 0 0.02 0.055 0 0.04 0.055 0 0.06 0.055 0 0.08 0.055 0 0.1 0.055 0 0 0.06 0 0.02 0.06 0 0.04 0.06 0 0.06 0.06 0 0.08 0.06 0 0.1 0.06 0 0 0.065 0 0.02 0.065 0 0.04 0.065 0 0.06 0.065 0 0.08 0.065 0 0.1 0.065 0 0 0.07 0 0.02 0.07 0 0.04 0.07 0 0.06 0.07 0 0.08 0.07 0 0.1 0.07 0 0 0.075 0 0.02 0.075 0 0.04 0.075 0 0.06 0.075 0 0.08 0.075 0 0.1 0.075 0 0 0.08 0 0.02 0.08 0 0.04 0.08 0 0.06 0.08 0 0.08 0.08 0 0.1 0.08 0 0 0.085 0 0.02 0.085 0 0.04 0.085 0 0.06 0.085 0 0.08 0.085 0 0.1 0.085 0 0 0.09 0 0.02 0.09 0 0.04 0.09 0 0.06 0.09 0 0.08 0.09 0 0.1 0.09 0 0 0.095 0 0.02 0.095 0 0.04 0.095 0 0.06 0.095 0 0.08 0.095 0 0.1 0.095 0 0 0.1 0 0.02 0.1 0 0.04 0.1 0 0.06 0.1 0 0.08 0.1 0 0.1 0.1 0 0 0.105 0 0.02 0.105 0 0.04 0.105 0 0.06 0.105 0 0.08 0.105 0 0.1 0.105 0 0 0.11 0 0.02 0.11 0 0.04 0.11 0 0.06 0.11 0 0.08 0.11 0 0.1 0.11 0 0 0.115 0 0.02 0.115 0 0.04 0.115 0 0.06 0.115 0 0.08 0.115 0 0.1 0.115 0 0 0.12 0 0.02 0.12 0 0.04 0.12 0 0.06 0.12 0 0.08 0.12 0 0.1 0.12 0 0 0.125 0 0.02 0.125 0 0.04 0.125 0 0.06 0.125 0 0.08 0.125 0 0.1 0.125 0 0 0.13 0 0.02 0.13 0 0.04 0.13 0 0.06 0.13 0 0.08 0.13 0 0.1 0.13 0 0 0.135 0 0.02 0.135 0 0.04 0.135 0 0.06 0.135 0 0.08 0.135 0 0.1 0.135 0 0 0.14 0 0.02 0.14 0 0.04 0.14 0 0.06 0.14 0 0.08 0.14 0 0.1 0.14 0 0 0.145 0 0.02 0.145 0 0.04 0.145 0 0.06 0.145 0 0.08 0.145 0 0.1 0.145 0 0 0.15 0 0.02 0.15 0 0.04 0.15 0 0.06 0.15 0 0.08 0.15 0 0.1 0.15 0 0 0.155 0 0.02 0.155 0 0.04 0.155 0 0.06 0.155 0 0.08 0.155 0 0.1 0.155 0 0 0.16 0 0.02 0.16 0 0.04 0.16 0 0.06 0.16 0 0.08 0.16 0 0.1 0.16 0 0 0.165 0 0.02 0.165 0 0.04 0.165 0 0.06 0.165 0 0.08 0.165 0 0.1 0.165 0 0 0.17 0 0.02 0.17 0 0.04 0.17 0 0.06 0.17 0 0.08 0.17 0 0.1 0.17 0 0 0.175 0 0.02 0.175 0 0.04 0.175 0 0.06 0.175 0 0.08 0.175 0 0.1 0.175 0 0 0.18 0 0.02 0.18 0 0.04 0.18 0 0.06 0.18 0 0.08 0.18 0 0.1 0.18 0 0 0.185 0 0.02 0.185 0 0.04 0.185 0 0.06 0.185 0 0.08 0.185 0 0.1 0.185 0 0 0.19 0 0.02 0.19 0 0.04 0.19 0 0.06 0.19 0 0.08 0.19 0 0.1 0.19 0 0 0.195 0 0.02 0.195 0 0.04 0.195 0 0.06 0.195 0 0.08 0.195 0 0.1 0.195 0 0 0.2 0 0.02 0.2 0 0.04 0.2 0 0.06 0.2 0 0.08 0.2 0 0.1 0.2 0 0 0.205 0 0.02 0.205 0 0.04 0.205 0 0.06 0.205 0 0.08 0.205 0 0.1 0.205 0 0 0.21 0 0.02 0.21 0 0.04 0.21 0 0.06 0.21 0 0.08 0.21 0 0.1 0.21 0 0 0.215 0 0.02 0.215 0 0.04 0.215 0 0.06 0.215 0 0.08 0.215 0 0.1 0.215 0 0 0.22 0 0.02 0.22 0 0.04 0.22 0 0.06 0.22 0 0.08 0.22 0 0.1 0.22 0 0 0.225 0 0.02 0.225 0 0.04 0.225 0 0.06 0.225 0 0.08 0.225 0 0.1 0.225 0 0 0.23 0 0.02 0.23 0 0.04 0.23 0 0.06 0.23 0 0.08 0.23 0 0.1 0.23 0 0 0.235 0 0.02 0.235 0 0.04 0.235 0 0.06 0.235 0 0.08 0.235 0 0.1 0.235 0 0 0.24 0 0.02 0.24 0 0.04 0.24 0 0.06 0.24 0 0.08 0.24 0 0.1 0.24 0 0 0.245 0 0.02 0.245 0 0.04 0.245 0 0.06 0.245 0 0.08 0.245 0 0.1 0.245 0 0 0.25 0 0.02 0.25 0 0.04 0.25 0 0.06 0.25 0 0.08 0.25 0 0.1 0.25 0 0 0.255 0 0.02 0.255 0 0.04 0.255 0 0.06 0.255 0 0.08 0.255 0 0.1 0.255 0 0 0.26 0 0.02 0.26 0 0.04 0.26 0 0.06 0.26 0 0.08 0.26 0 0.1 0.26 0 0 0.265 0 0.02 0.265 0 0.04 0.265 0 0.06 0.265 0 0.08 0.265 0 0.1 0.265 0 0 0.27 0 0.02 0.27 0 0.04 0.27 0 0.06 0.27 0 0.08 0.27 0 0.1 0.27 0 0 0.275 0 0.02 0.275 0 0.04 0.275 0 0.06 0.275 0 0.08 0.275 0 0.1 0.275 0 0 0.28 0 0.02 0.28 0 0.04 0.28 0 0.06 0.28 0 0.08 0.28 0 0.1 0.28 0 0 0.285 0 0.02 0.285 0 0.04 0.285 0 0.06 0.285 0 0.08 0.285 0 0.1 0.285 0 0 0.29 0 0.02 0.29 0 0.04 0.29 0 0.06 0.29 0 0.08 0.29 0 0.1 0.29 0 0 0.295 0 0.02 0.295 0 0.04 0.295 0 0.06 0.295 0 0.08 0.295 0 0.1 0.295 0 0 0.3 0 0.02 0.3 0 0.04 0.3 0 0.06 0.3 0 0.08 0.3 0 0.1 0.3 0 0 0.305 0 0.02 0.305 0 0.04 0.305 0 0.06 0.305 0 0.08 0.305 0 0.1 0.305 0 0 0.31 0 0.02 0.31 0 0.04 0.31 0 0.06 0.31 0 0.08 0.31 0 0.1 0.31 0 0 0.315 0 0.02 0.315 0 0.04 0.315 0 0.06 0.315 0 0.08 0.315 0 0.1 0.315 0 0 0.32 0 0.02 0.32 0 0.04 0.32 0 0.06 0.32 0 0.08 0.32 0 0.1 0.32 0 0 0.325 0 0.02 0.325 0 0.04 0.325 0 0.06 0.325 0 0.08 0.325 0 0.1 0.325 0 0 0.33 0 0.02 0.33 0 0.04 0.33 0 0.06 0.33 0 0.08 0.33 0 0.1 0.33 0 0 0.335 0 0.02 0.335 0 0.04 0.335 0 0.06 0.335 0 0.08 0.335 0 0.1 0.335 0 0 0.34 0 0.02 0.34 0 0.04 0.34 0 0.06 0.34 0 0.08 0.34 0 0.1 0.34 0 0 0.345 0 0.02 0.345 0 0.04 0.345 0 0.06 0.345 0 0.08 0.345 0 0.1 0.345 0 0 0.35 0 0.02 0.35 0 0.04 0.35 0 0.06 0.35 0 0.08 0.35 0 0.1 0.35 0 0 0.355 0 0.02 0.355 0 0.04 0.355 0 0.06 0.355 0 0.08 0.355 0 0.1 0.355 0 0 0.36 0 0.02 0.36 0 0.04 0.36 0 0.06 0.36 0 0.08 0.36 0 0.1 0.36 0 0 0.365 0 0.02 0.365 0 0.04 0.365 0 0.06 0.365 0 0.08 0.365 0 0.1 0.365 0 0 0.37 0 0.02 0.37 0 0.04 0.37 0 0.06 0.37 0 0.08 0.37 0 0.1 0.37 0 0 0.375 0 0.02 0.375 0 0.04 0.375 0 0.06 0.375 0 0.08 0.375 0 0.1 0.375 0 0 0.38 0 0.02 0.38 0 0.04 0.38 0 0.06 0.38 0 0.08 0.38 0 0.1 0.38 0 0 0.385 0 0.02 0.385 0 0.04 0.385 0 0.06 0.385 0 0.08 0.385 0 0.1 0.385 0 0 0.39 0 0.02 0.39 0 0.04 0.39 0 0.06 0.39 0 0.08 0.39 0 0.1 0.39 0 0 0.395 0 0.02 0.395 0 0.04 0.395 0 0.06 0.395 0 0.08 0.395 0 0.1 0.395 0 0 0.4 0 0.02 0.4 0 0.04 0.4 0 0.06 0.4 0 0.08 0.4 0 0.1 0.4 0 0 0.405 0 0.02 0.405 0 0.04 0.405 0 0.06 0.405 0 0.08 0.405 0 0.1 0.405 0 0 0.41 0 0.02 0.41 0 0.04 0.41 0 0.06 0.41 0 0.08 0.41 0 0.1 0.41 0 0 0.415 0 0.02 0.415 0 0.04 0.415 0 0.06 0.415 0 0.08 0.415 0 0.1 0.415 0 0 0.42 0 0.02 0.42 0 0.04 0.42 0 0.06 0.42 0 0.08 0.42 0 0.1 0.42 0 0 0.425 0 0.02 0.425 0 0.04 0.425 0 0.06 0.425 0 0.08 0.425 0 0.1 0.425 0 0 0.43 0 0.02 0.43 0 0.04 0.43 0 0.06 0.43 0 0.08 0.43 0 0.1 0.43 0 0 0.435 0 0.02 0.435 0 0.04 0.435 0 0.06 0.435 0 0.08 0.435 0 0.1 0.435 0 0 0.44 0 0.02 0.44 0 0.04 0.44 0 0.06 0.44 0 0.08 0.44 0 0.1 0.44 0 0 0.445 0 0.02 0.445 0 0.04 0.445 0 0.06 0.445 0 0.08 0.445 0 0.1 0.445 0 0 0.45 0 0.02 0.45 0 0.04 0.45 0 0.06 0.45 0 0.08 0.45 0 0.1 0.45 0 0 0.455 0 0.02 0.455 0 0.04 0.455 0 0.06 0.455 0 0.08 0.455 0 0.1 0.455 0 0 0.46 0 0.02 0.46 0 0.04 0.46 0 0.06 0.46 0 0.08 0.46 0 0.1 0.46 0 0 0.465 0 0.02 0.465 0 0.04 0.465 0 0.06 0.465 0 0.08 0.465 0 0.1 0.465 0 0 0.47 0 0.02 0.47 0 0.04 0.47 0 0.06 0.47 0 0.08 0.47 0 0.1 0.47 0 0 0.475 0 0.02 0.475 0 0.04 0.475 0 0.06 0.475 0 0.08 0.475 0 0.1 0.475 0 0 0.48 0 0.02 0.48 0 0.04 0.48 0 0.06 0.48 0 0.08 0.48 0 0.1 0.48 0 0 0.485 0 0.02 0.485 0 0.04 0.485 0 0.06 0.485 0 0.08 0.485 0 0.1 0.485 0 0 0.49 0 0.02 0.49 0 0.04 0.49 0 0.06 0.49 0 0.08 0.49 0 0.1 0.49 0 0 0.495 0 0.02 0.495 0 0.04 0.495 0 0.06 0.495 0 0.08 0.495 0 0.1 0.495 0 0 0.5 0 0.02 0.5 0 0.04 0.5 0 0.06 0.5 0 0.08 0.5 0 0.1 0.5 0 0 0.505 0 0.02 0.505 0 0.04 0.505 0 0.06 0.505 0 0.08 0.505 0 0.1 0.505 0 0 0.51 0 0.02 0.51 0 0.04 0.51 0 0.06 0.51 0 0.08 0.51 0 0.1 0.51 0 0 0.515 0 0.02 0.515 0 0.04 0.515 0 0.06 0.515 0 0.08 0.515 0 0.1 0.515 0 0 0.52 0 0.02 0.52 0 0.04 0.52 0 0.06 0.52 0 0.08 0.52 0 0.1 0.52 0 0 0.525 0 0.02 0.525 0 0.04 0.525 0 0.06 0.525 0 0.08 0.525 0 0.1 0.525 0 0 0.53 0 0.02 0.53 0 0.04 0.53 0 0.06 0.53 0 0.08 0.53 0 0.1 0.53 0 0 0.535 0 0.02 0.535 0 0.04 0.535 0 0.06 0.535 0 0.08 0.535 0 0.1 0.535 0 0 0.54 0 0.02 0.54 0 0.04 0.54 0 0.06 0.54 0 0.08 0.54 0 0.1 0.54 0 0 0.545 0 0.02 0.545 0 0.04 0.545 0 0.06 0.545 0 0.08 0.545 0 0.1 0.545 0 0 0.55 0 0.02 0.55 0 0.04 0.55 0 0.06 0.55 0 0.08 0.55 0 0.1 0.55 0 0 0.555 0 0.02 0.555 0 0.04 0.555 0 0.06 0.555 0 0.08 0.555 0 0.1 0.555 0 0 0.56 0 0.02 0.56 0 0.04 0.56 0 0.06 0.56 0 0.08 0.56 0 0.1 0.56 0 0 0.565 0 0.02 0.565 0 0.04 0.565 0 0.06 0.565 0 0.08 0.565 0 0.1 0.565 0 0 0.57 0 0.02 0.57 0 0.04 0.57 0 0.06 0.57 0 0.08 0.57 0 0.1 0.57 0 0 0.575 0 0.02 0.575 0 0.04 0.575 0 0.06 0.575 0 0.08 0.575 0 0.1 0.575 0 0 0.58 0 0.02 0.58 0 0.04 0.58 0 0.06 0.58 0 0.08 0.58 0 0.1 0.58 0 0 0.585 0 0.02 0.585 0 0.04 0.585 0 0.06 0.585 0 0.08 0.585 0 0.1 0.585 0 0 0.59 0 0.02 0.59 0 0.04 0.59 0 0.06 0.59 0 0.08 0.59 0 0.1 0.59 0 0 0.595 0 0.02 0.595 0 0.04 0.595 0 0.06 0.595 0 0.08 0.595 0 0.1 0.595 0 0 0.6 0 0.02 0.6 0 0.04 0.6 0 0.06 0.6 0 0.08 0.6 0 0.1 0.6 0 0 0.605 0 0.02 0.605 0 0.04 0.605 0 0.06 0.605 0 0.08 0.605 0 0.1 0.605 0 0 0.61 0 0.02 0.61 0 0.04 0.61 0 0.06 0.61 0 0.08 0.61 0 0.1 0.61 0 0 0.615 0 0.02 0.615 0 0.04 0.615 0 0.06 0.615 0 0.08 0.615 0 0.1 0.615 0 0 0.62 0 0.02 0.62 0 0.04 0.62 0 0.06 0.62 0 0.08 0.62 0 0.1 0.62 0 0 0.625 0 0.02 0.625 0 0.04 0.625 0 0.06 0.625 0 0.08 0.625 0 0.1 0.625 0 0 0.63 0 0.02 0.63 0 0.04 0.63 0 0.06 0.63 0 0.08 0.63 0 0.1 0.63 0 0 0.635 0 0.02 0.635 0 0.04 0.635 0 0.06 0.635 0 0.08 0.635 0 0.1 0.635 0 0 0.64 0 0.02 0.64 0 0.04 0.64 0 0.06 0.64 0 0.08 0.64 0 0.1 0.64 0 0 0.645 0 0.02 0.645 0 0.04 0.645 0 0.06 0.645 0 0.08 0.645 0 0.1 0.645 0 0 0.65 0 0.02 0.65 0 0.04 0.65 0 0.06 0.65 0 0.08 0.65 0 0.1 0.65 0 0 0.655 0 0.02 0.655 0 0.04 0.655 0 0.06 0.655 0 0.08 0.655 0 0.1 0.655 0 0 0.66 0 0.02 0.66 0 0.04 0.66 0 0.06 0.66 0 0.08 0.66 0 0.1 0.66 0 0 0.665 0 0.02 0.665 0 0.04 0.665 0 0.06 0.665 0 0.08 0.665 0 0.1 0.665 0 0 0.67 0 0.02 0.67 0 0.04 0.67 0 0.06 0.67 0 0.08 0.67 0 0.1 0.67 0 0 0.675 0 0.02 0.675 0 0.04 0.675 0 0.06 0.675 0 0.08 0.675 0 0.1 0.675 0 0 0.68 0 0.02 0.68 0 0.04 0.68 0 0.06 0.68 0 0.08 0.68 0 0.1 0.68 0 0 0.685 0 0.02 0.685 0 0.04 0.685 0 0.06 0.685 0 0.08 0.685 0 0.1 0.685 0 0 0.69 0 0.02 0.69 0 0.04 0.69 0 0.06 0.69 0 0.08 0.69 0 0.1 
[...]
			<PointData Scalars="VitesseX">
				<DataArray Name="VitesseX" type="Float32" format="ascii">
 0 1.68888e-14 5.98629e-14 2.45337e-14 1.73447e-14 0 0 2.10174e-14 4.90437e-14 3.35241e-14 1.0468e-14 0 0 2.69689e-14 3.2818e-14 4.19115e-14 3.15364e-15 0 0 2.894e-14 2.80522e-14 3.08208e-14 6.55782e-15 0 0 3.67617e-14 1.82707e-14 2.01934e-14 1.27416e-14 0 0 3.81726e-14 1.69431e-14 9.71641e-15 1.22647e-14 0 0 2.26937e-14 3.54224e-14 -6.5515e-15 1.04906e-14 0 0 1.76499e-14 3.66833e-14 -4.09793e-15 1.44682e-14 0 0 2.10676e-14 3.54623e-14 -6.81877e-15 2.8979e-14 0 0 3.02916e-14 3.47218e-14 -1.4319e-15 2.25622e-14 0 0 3.19665e-14 3.77206e-14 1.26732e-14 3.35319e-15 0 0 2.99064e-14 2.89549e-14 4.71493e-14 -2.12159e-14 0 0 -1.71832e-15 7.44644e-14 2.53632e-14 -2.04249e-14 0 0 -1.38129e-14 7.6e-14 3.62933e-14 -3.25856e-14 0 0 -4.12513e-15 4.94752e-14 5.87682e-14 -2.42845e-14 0 0 -2.41609e-14 9.00858e-14 7.78866e-15 3.07793e-14 0 0 1.67024e-14 1.69494e-14 7.65632e-14 -4.27393e-16 0 0 3.58721e-14 2.99773e-15 7.11696e-14 1.79135e-14 0 0 2.84436e-14 6.43256e-14 -1.48725e-14 9.28057e-14 0 0 3.45091e-14 7.36683e-14 -7.97192e-15 1.06519e-13 0 0 1.65049e-14 7.83794e-14 2.74356e-14 9.08131e-14 0 0 1.34522e-14 9.03039e-14 3.69098e-15 1.06459e-13 0 0 6.95505e-14 2.1547e-14 6.97668e-14 5.29456e-14 0 0 1.08674e-13 -5.48437e-14 2.0806e-13 -6.17302e-14 0 0 1.94688e-14 8.8433e-14 9.03435e-14 -2.25182e-15 0 0 -5.50392e-14 2.25531e-13 -5.75761e-14 8.30781e-14 0 0 5.07306e-14 7.1824e-14 7.92078e-14 -1.92476e-14 0 0 9.1233e-14 3.37527e-14 9.5283e-14 -5.01809e-14 0 0 5.3518e-14 1.07982e-13 3.98719e-14 -5.52539e-14 0 0 6.75001e-14 6.48178e-14 1.06866e-13 -1.06918e-13 0 0 7.19275e-14 3.2692e-14 1.28017e-13 -9.44737e-14 0 0 4.48274e-14 8.53921e-14 4.74922e-14 -3.22067e-14 0 0 6.57934e-14 5.31052e-14 3.79371e-14 2.65865e-14 0 0 1.14313e-13 -3.44026e-14 1.06163e-13 6.14441e-14 0 0 3.79133e-14 3.6106e-14 6.63635e-14 1.31174e-13 0 0 2.7801e-14 2.3813e-14 6.66416e-14 1.76141e-13 0 0 4.11076e-14 4.11002e-14 1.50741e-14 2.39846e-13 0 0 3.69862e-14 7.39052e-14 -7.7037e-15 2.26128e-13 0 0 5.53828e-14 1.0243e-13 -2.35639e-14 1.5669e-13 0 0 8.74849e-14 1.0282e-13 2.74638e-14 3.09279e-14 0 0 1.3948e-13 8.16897e-14 7.23102e-14 -5.58962e-14 0 0 1.57753e-13 8.85678e-14 2.03505e-14 -2.63909e-14 0 0 1.72435e-13 5.20482e-14 5.46152e-14 -5.53148e-14 0 0 6.13994e-14 1.98529e-13 -5.73348e-14 3.4878e-14 0 0 -1.71433e-14 2.54386e-13 -6.07624e-14 7.61175e-14 0 0 5.48361e-14 6.32396e-14 2.18555e-13 -1.09185e-13 0 0 1.226e-13 -8.20855e-14 3.35473e-13 -1.23735e-13 0 0 9.95141e-14 -1.11984e-14 1.7553e-13 1.15811e-14 0 0 -1.50803e-14 1.53537e-13 3.73124e-14 4.61605e-14 0 0 -7.16641e-14 2.00924e-13 4.1804e-14 4.20464e-14 0 0 -9.00981e-14 2.25531e-13 6.07288e-14 6.3708e-14 0 0 -5.5621e-14 1.79519e-13 6.81956e-14 1.16631e-13 0 0 1.28794e-13 -1.10093e-13 3.19224e-13 -5.12124e-15 0 0 8.14917e-14 -7.42335e-14 3.115e-13 5.1794e-15 0 0 -1.15527e-13 2.43876e-13 -9.03964e-15 2.10716e-13 0 0 -7.21464e-14 2.35623e-13 -8.26132e-14 3.02599e-13 0 0 -5.49167e-14 1.52412e-13 2.20031e-14 2.43036e-13 0 0 -2.97121e-14 1.02766e-13 1.15335e-13 1.38144e-13 0 0 2.96447e-14 1.00508e-13 1.10441e-13 1.19809e-13 0 0 2.84061e-14 1.20726e-13 1.71943e-13 5.66035e-14 0 0 4.07153e-14 1.46907e-13 1.2629e-13 5.28549e-14 0 0 3.60043e-15 2.3729e-13 1.74151e-14 7.56902e-14 0 0 6.82615e-14 1.09857e-13 1.74339e-13 -2.29843e-14 0 0 1.65945e-13 4.2174e-14 1.1301e-13 4.85746e-14 0 0 2.54999e-13 5.31956e-15 1.05018e-14 1.51343e-13 0 0 2.93834e-13 -4.17584e-14 7.71645e-14 1.2681e-13 0 0 1.67885e-13 7.66988e-14 9.92737e-14 1.23117e-13 0 0 9.1635e-14 8.3898e-14 1.69332e-13 1.4843e-13 0 0 3.19283e-14 1.89618e-13 1.06394e-14 3.3228e-13 0 0 1.30978e-13 1.21666e-13 5.1933e-14 3.45005e-13 0 0 2.83572e-13 -6.4539e-15 2.38624e-13 1.3604e-13 0 0 1.45427e-13 1.95762e-13 1.74235e-13 5.24504e-14 0 0 -1.76093e-13 5.5382e-13 -1.30958e-13 2.04802e-13 0 0 -2.78384e-13 6.51732e-13 -2.16364e-13 2.70985e-13 0 0 -5.10689e-14 2.66269e-13 2.18041e-13 1.10481e-13 0 0 1.56939e-13 -6.16022e-14 4.96792e-13 1.30059e-13 0 0 -1.26676e-14 2.98143e-13 3.63865e-14 5.78726e-13 0 0 -2.39006e-13 6.48603e-13 -2.3635e-13 6.41117e-13 0 0 -1.62543e-13 5.33674e-13 8.40008e-15 3.04581e-13 0 0 1.83341e-13 1.41379e-13 2.49505e-13 2.66013e-13 0 0 6.90151e-14 2.43518e-13 1.60764e-13 4.17715e-13 0 0 -1.69922e-13 4.41641e-13 3.29084e-13 2.07135e-13 0 0 1.51464e-13 1.52214e-13 9.01003e-13 -3.19153e-13 0 0 1.17253e-13 5.66775e-13 5.55549e-13 -2.95243e-13 0 0 -4.47296e-14 1.28437e-12 -4.12414e-13 2.66963e-13 0 0 3.25254e-13 1.03025e-12 -5.09942e-13 5.52504e-13 0 0 1.0709e-12 6.33005e-14 4.07369e-13 -4.31836e-14 0 0 9.54911e-13 1.57192e-13 1.0684e-12 -5.86948e-13 0 0 9.88538e-13 1.26623e-12 1.62792e-12 2.76312e-14 0 0 3.35987e-12 6.08427e-12 5.67828e-12 3.17621e-12 0 0 1.63528e-11 2.82163e-11 2.8169e-11 1.7894e-11 0 0 7.08181e-11 1.21042e-10 1.26837e-10 8.17598e-11 0 0 2.48765e-10 4.35715e-10 4.75452e-10 3.13761e-10 0 0 6.76978e-10 1.21934e-09 1.3881e-09 9.51132e-10 0 0 6.34121e-10 1.86434e-09 2.83885e-09 2.19626e-09 0 0 -5.18586e-09 -6.21797e-09 -3.4272e-09 -6.41765e-10 0 0 -3.81501e-08 -5.67713e-08 -5.02863e-08 -2.76699e-08 0 0 -1.64026e-07 -2.63109e-07 -2.58898e-07 -1.5722e-07 0 0 -5.40708e-07 -9.18298e-07 -9.65752e-07 -6.17457e-07 0 0 -1.46885e-06 -2.64314e-06 -2.94909e-06 -1.9641e-06 0 0 -3.3942e-06 -6.54374e-06 -7.7295e-06 -5.34609e-06 0 0 -7.60259e-06 -1.42106e-05 -1.78131e-05 -1.27845e-05 0 0 -1.27239e-05 -2.87644e-05 -3.97394e-05 -2.90817e-05 0 0 -2.05472e-05 -5.24658e-05 -6.87494e-05 -5.15992e-05 0 0 -2.99394e-05 -7.87193e-05 -0.00011996 -9.60139e-05 0 0 -4.00896e-05 -0.000114808 -0.000182971 -0.000148563 0 0 -5.65561e-05 -0.000162127 -0.000242576 -0.000191348 0 0 -8.22309e-05 -0.000219596 -0.000294915 -0.000225366 0 0 -0.000127099 -0.000291704 -0.000339937 -0.000221121 0 0 -0.000180701 -0.000365959 -0.000380122 -0.000203153 0 0 -0.000229698 -0.000444079 -0.000438975 -0.000162959 0 0 -0.000245748 -0.000591152 -0.000552928 -7.44121e-05 0 0 -0.000239117 -0.000903424 -0.000734079 0.000189884 0 0 -0.000199144 -0.00126104 -0.000932319 0.000563604 0 0 -0.000133453 -0.00131381 -0.000954337 0.000681095 0 0 -8.2297e-05 -0.00123866 -0.000885077 0.000663876 0 0 -6.03486e-05 -0.000959491 -0.000655699 0.000556764 0 0 -1.74518e-05 -0.000642616 -0.000456959 0.000446454 0 0 4.06241e-05 -0.000390288 -0.000320576 0.000236279 0 0 3.72469e-05 0.0003401 0.000157687 -0.000523347 0 0 7.59245e-05 0.00108184 0.000858551 -0.000666604 0 0 0.000200642 0.00102539 0.000864016 -0.00019337 0 0 0.000250633 0.000781519 0.000730651 0.000235188 0 0 0.000246856 0.000554155 0.000569769 0.000296124 0 0 0.000224343 0.000399034 0.000452345 0.000302537 0 0 0.00018551 0.000316823 0.000384596 0.000288492 0 0 0.000151223 0.000276746 0.000344106 0.000254063 0 0 0.000125493 0.000242241 0.000298599 0.0002172 0 0 0.000104178 0.000199928 0.000243677 0.000175535 0 0 8.25054e-05 0.000155956 0.000186715 0.000132354 0 0 6.06005e-05 0.000112557 0.000131712 9.15579e-05 0 0 4.02419e-05 7.32708e-05 8.37619e-05 5.71973e-05 0 0 2.35559e-05 4.19796e-05 4.68593e-05 3.14522e-05 0 0 1.17598e-05 2.04971e-05 2.23267e-05 1.47207e-05 0 0 4.85264e-06 8.28652e-06 8.82582e-06 5.72544e-06 0 0 1.65721e-06 2.78401e-06 2.91077e-06 1.86231e-06 0 0 4.83205e-07 8.01642e-07 8.26106e-07 5.22789e-07 0 0 1.27151e-07 2.09172e-07 2.1342e-07 1.34024e-07 0 0 3.14055e-08 5.13737e-08 5.2064e-08 3.25225e-08 0 0 7.42601e-09 1.21023e-08 1.22099e-08 7.5999e-09 0 0 1.69572e-09 2.75666e-09 2.77276e-09 1.72187e-09 0 0 3.75607e-10 6.09195e-10 6.11637e-10 3.79176e-10 0 0 8.09163e-11 1.31229e-10 1.31064e-10 8.15511e-11 0 0 1.70925e-11 2.79511e-11 2.72881e-11 1.73468e-11 0 0 3.94378e-12 5.83643e-12 5.90851e-12 3.61406e-12 0 0 1.08242e-12 1.61505e-12 1.20662e-12 9.94757e-13 0 0 5.65677e-13 6.29998e-13 4.2763e-13 3.79557e-13 0 0 4.6097e-13 4.08651e-13 2.7903e-13 3.31532e-13 0 0 3.48263e-13 5.33067e-13 1.40786e-14 4.87852e-13 0 0 5.09673e-13 2.43229e-13 2.38069e-13 3.90008e-13 0 0 3.24842e-13 4.89484e-13 -9.71162e-15 5.24311e-13 0 0 3.49708e-13 4.19626e-13 1.56644e-13 2.41045e-13 0 0 3.44729e-13 4.31917e-13 2.90175e-13 2.15114e-14 0 0 4.3039e-13 4.25288e-13 2.69887e-13 -2.56397e-15 0 0 6.43141e-13 2.76093e-13 3.05324e-13 4.94287e-14 0 0 5.45821e-13 4.384e-13 2.82293e-13 5.41919e-14 0 0 4.55192e-13 4.38466e-13 5.94027e-13 -1.85354e-13 0 0 2.7323e-13 6.74097e-13 4.66544e-13 -4.36582e-14 0 0 3.16785e-13 6.29426e-13 4.41866e-13 6.83692e-14 0 0 3.24639e-13 6.68575e-13 3.70316e-13 2.89639e-13 0 0 4.20292e-13 5.48088e-13 5.14212e-13 3.22633e-13 0 0 4.5529e-13 4.84966e-13 6.75417e-13 1.91101e-13 0 0 3.86941e-13 6.39211e-13 5.07744e-13 2.9112e-13 0 0 4.33001e-13 4.92571e-13 7.03888e-13 1.45386e-13 0 0 2.59138e-13 6.76427e-13 4.31087e-13 3.34227e-13 0 0 8.45869e-14 8.75212e-13 1.48683e-13 4.53453e-13 0 0 1.55132e-13 7.21049e-13 4.69188e-13 4.23473e-14 0 0 4.24367e-13 4.87514e-13 5.85521e-13 -1.82639e-14 0 0 7.66272e-13 -4.0788e-15 9.54519e-13 -2.29028e-13 0 0 5.10043e-13 1.74464e-13 7.96607e-13 2.31131e-14 0 0 -3.6628e-14 8.02896e-13 3.37965e-13 4.50348e-13 0 0 -6.84231e-14 7.34802e-13 4.62722e-13 4.49123e-13 0 0 3.05053e-15 6.61541e-13 3.65877e-13 6.27899e-13 0 0 3.69177e-13 1.64879e-13 6.95832e-13 4.70205e-13 0 0 4.35527e-13 1.10609e-13 6.70823e-13 4.51324e-13 0 0 3.15157e-13 2.59097e-13 6.57148e-13 2.90236e-13 0 0 1.77119e-13 4.51716e-13 5.21825e-13 2.86765e-13 0 0 -2.96126e-14 8.59832e-13 2.30717e-13 2.69934e-13 0 0 2.75031e-13 3.28988e-13 9.40074e-13 -3.43191e-13 0 0 2.10462e-13 4.44187e-13 6.84598e-13 -6.26323e-14 0 0 1.3803e-13 6.13504e-13 4.70135e-13 1.57275e-13 0 0 3.59779e-13 3.04543e-13 7.56034e-13 2.86569e-14 0 0 3.59291e-13 4.33437e-13 4.26561e-13 2.69504e-13 0 0 3.56062e-13 3.22389e-13 4.43072e-13 2.68946e-13 0 0 1.74231e-13 5.39123e-13 2.66621e-13 3.19842e-13 0 0 3.18816e-13 5.38855e-13 3.0099e-13 1.5948e-13 0 0 5.87616e-13 2.73266e-13 6.26285e-13 -1.31444e-13 0 0 2.02035e-13 7.23225e-13 3.65765e-13 -4.3682e-14 0 0 3.40603e-13 4.11003e-13 5.35679e-13 -1.77242e-15 0 0 4.87187e-13 2.71654e-13 3.13353e-13 3.07877e-13 0 0 3.90102e-13 5.65139e-13 -2.40785e-13 6.92409e-13 0 0 6.86051e-13 1.76042e-13 7.80402e-14 4.92779e-13 0 0 3.16938e-13 6.5799e-13 -2.32612e-13 6.50927e-13 0 0 8.40116e-14 9.34524e-13 -2.78466e-13 6.71211e-13 0 0 4.77423e-13 4.22466e-13 1.77324e-13 4.80624e-13 0 0 6.4426e-13 3.96586e-13 -1.25675e-13 8.76145e-13 0 0 6.30869e-13 3.63251e-13 -1.98456e-13 1.1047e-12 0 0 3.54331e-13 6.15322e-13 -3.33395e-13 1.26283e-12 0 0 3.7023e-13 5.7983e-13 -2.23973e-13 1.1368e-12 0 0 6.62489e-13 1.6481e-13 5.38268e-14 9.56354e-13 0 0 6.79084e-13 1.55659e-13 -6.2444e-14 1.07652e-12 0
				</DataArray>
				<DataArray Name="VitesseY" type="Float32" format="ascii">