<?xml version="1.0"?>
<VTKFile type="PolyData">
	<PolyData>
		<Piece NumberOfPoints="1206" NumberOfPolys="1000">
			<Points>
				<DataArray type="Float32" NumberOfComponents="3" format="ascii">
 0 0 0 0.02 0 0 0.04 0 0 0.06 0 0 0.08 0 0 0.1 0 0 0 0.005 0 0.02 0.005 0 0.04 0.005 0 0.06 0.005 0 0.08 0.005 0 0.1 0.005 0 0 0.01 0 0.02 0.01 0 0.04 0.01 0 0.06 0.01 0 0.08 0.01 0 0.1 0.01 0 0 0.015 0 0.02 0.015 0 0.04 0.015 0 0.06 0.015 0 0.08 0.015 0 0.1 0.015 0 0 0.02 0 0.02 0.02 0 0.04 0.02 0 0.06 0.02 0 0.08 0.02 0 0.1 0.02 0 0 0.025 0 0.02 0.025 0 0.04 0.025 0 0.06 0.025 0 0.08 0.025 0 0.1 0.025 0 0 0.03 0 0.02 0.03 0 0.04 0.03 0 0.06 0.03 0 0.08 0.03 0 0.1 0.03 0 0 0.035 0 0.02 0.035 0 0.04 0.035 0 0.06 0.035 0 0.08 0.035 0 0.1 0.035 0 0 0.04 0 0.02 0.04 0 0.04 0.04 0 0.06 0.04 0 0.08 0.04 0 0.1 0.04 0 0 0.045 0 0.02 0.045 0 0.04 0.045 0 0.06 0.045 0 0.08 0.045 0 0.1 0.045 0 0 0.05 0 0.02 0.05 0 0.04 0.05 0 0.06 0.05 0 0.08 0.05 0 0.1 0.05 0 0 0.055 0 0.02 0.055 0 0.04 0.055 0 0.06 0.055 0 0.08 0.055 0 0.1 0.055 0 0 0.06 0 0.02 0.06 0 0.04 0.06 0 0.06 0.06 0 0.08 0.06 0 0.1 0.06 0 0 0.065 0 0.02 0.065 0 0.04 0.065 0 0.06 0.065 0 0.08 0.065 0 0.1 0.065 0 0 0.07 0 0.02 0.07 0 0.04 0.07 0 0.06 0.07 0 0.08 0.07 0 0.1 0.07 0 0 0.075 0 0.02 0.075 0 0.04 0.075 0 0.06 0.075 0 0.08 0.075 0 0.1 0.075 0 0 0.08 0 0.02 0.08 0 0.04 0.08 0 0.06 0.08 0 0.08 0.08 0 0.1 0.08 0 0 0.085 0 0.02 0.085 0 0.04 0.085 0 0.06 0.085 0 0.08 0.085 0 0.1 0.085 0 0 0.09 0 0.02 0.09 0 0.04 0.09 0 0.06 0.09 0 0.08 0.09 0 0.1 0.09 0 0 0.095 0 0.02 0.095 0 0.04 0.095 0 0.06 0.095 0 0.08 0.095 0 0.1 0.095 0 0 0.1 0 0.02 0.1 0 0.04 0.1 0 0.06 0.1 0 0.08 0.1 0 0.1 0.1 0 0 0.105 0 0.02 0.105 0 0.04 0.105 0 0.06 0.105 0 0.08 0.105 0 0.1 0.105 0 0 0.11 0 0.02 0.11 0 0.04 0.11 0 0.06 0.11 0 0.08 0.11 0 0.1 0.11 0 0 0.115 0 0.02 0.115 0 0.04 0.115 0 0.06 0.115 0 0.08 0.115 0 0.1 0.115 0 0 0.12 0 0.02 0.12 0 0.04 0.12 0 0.06 0.12 0 0.08 0.12 0 0.1 0.12 0 0 0.125 0 0.02 0.125 0 0.04 0.125 0 0.06 0.125 0 0.08 0.125 0 0.1 0.125 0 0 0.13 0 0.02 0.13 0 0.04 0.13 0 0.06 0.13 0 0.08 0.13 0 0.1 0.13 0 0 0.135 0 0.02 0.135 0 0.04 0.135 0 0.06 0.135 0 0.08 0.135 0 0.1 0.135 0 0 0.14 0 0.02 0.14 0 0.04 0.14 0 0.06 0.14 0 0.08 0.14 0 0.1 0.14 0 0 0.145 0 0.02 0.145 0 0.04 0.145 0 0.06 0.145 0 0.08 0.145 0 0.1 0.145 0 0 0.15 0 0.02 0.15 0 0.04 0.15 0 0.06 0.15 0 0.08 0.15 0 0.1 0.15 0 0 0.155 0 0.02 0.155 0 0.04 0.155 0 0.06 0.155 0 0.08 0.155 0 0.1 0.155 0 0 0.16 0 0.02 0.16 0 0.04 0.16 0 0.06 0.16 0 0.08 0.16 0 0.1 0.16 0 0 0.165 0 0.02 0.165 0 0.04 0.165 0 0.06 0.165 0 0.08 0.165 0 0.1 0.165 0 0 0.17 0 0.02 0.17 0 0.04 0.17 0 0.06 0.17 0 0.08 0.17 0 0.1 0.17 0 0 0.175 0 0.02 0.175 0 0.04 0.175 0 0.06 0.175 0 0.08 0.175 0 0.1 0.175 0 0 0.18 0 0.02 0.18 0 0.04 0.18 0 0.06 0.18 0 0.08 0.18 0 0.1 0.18 0 0 0.185 0 0.02 0.185 0 0.04 0.185 0 0.06 0.185 0 0.08 0.185 0 0.1 0.185 0 0 0.19 0 0.02 0.19 0 0.04 0.19 0 0.06 0.19 0 0.08 0.19 0 0.1 0.19 0 0 0.195 0 0.02 0.195 0 0.04 0.195 0 0.06 0.195 0 0.08 0.195 0 0.1 0.195 0 0 0.2 0 0.02 0.2 0 0.04 0.2 0 0.06 0.2 0 0.08 0.2 0 0.1 0.2 0 0 0.205 0 0.02 0.205 0 0.04 0.205 0 0.06 0.205 0 0.08 0.205 0 0.1 0.205 0 0 0.21 0 0.02 0.21 0 0.04 0.21 0 0.06 0.21 0 0.08 0.21 0 0.1 0.21 0 0 0.215 0 0.02 0.215 0 0.04 0.215 0 0.06 0.215 0 0.08 0.215 0 0.1 0.215 0 0 0.22 0 0.02 0.22 0 0.04 0.22 0 0.06 0.22 0 0.08 0.22 0 0.1 0.22 0 0 0.225 0 0.02 0.225 0 0.04 0.225 0 0.06 0.225 0 0.08 0.225 0 0.1 0.225 0 0 0.23 0 0.02 0.23 0 0.04 0.23 0 0.06 0.23 0 0.08 0.23 0 0.1 0.23 0 0 0.235 0 0.02 0.235 0 0.04 0.235 0 0.06 0.235 0 0.08 0.235 0 0.1 0.235 0 0 0.24 0 0.02 0.24 0 0.04 0.24 0 0.06 0.24 0 0.08 0.24 0 0.1 0.24 0 0 0.245 0 0.02 0.245 0 0.04 0.245 0 0.06 0.245 0 0.08 0.245 0 0.1 0.245 0 0 0.25 0 0.02 0.25 0 0.04 0.25 0 0.06 0.25 0 0.08 0.25 0 0.1 0.25 0 0 0.255 0 0.02 0.255 0 0.04 0.255 0 0.06 0.255 0 0.08 0.255 0 0.1 0.255 0 0 0.26 0 0.02 0.26 0 0.04 0.26 0 0.06 0.26 0 0.08 0.26 0 0.1 0.26 0 0 0.265 0 0.02 0.265 0 0.04 0.265 0 0.06 0.265 0 0.08 0.265 0 0.1 0.265 0 0 0.27 0 0.02 0.27 0 0.04 0.27 0 0.06 0.27 0 0.08 0.27 0 0.1 0.27 0 0 0.275 0 0.02 0.275 0 0.04 0.275 0 0.06 0.275 0 0.08 0.275 0 0.1 0.275 0 0 0.28 0 0.02 0.28 0 0.04 0.28 0 0.06 0.28 0 0.08 0.28 0 0.1 0.28 0 0 0.285 0 0.02 0.285 0 0.04 0.285 0 0.06 0.285 0 0.08 0.285 0 0.1 0.285 0 0 0.29 0 0.02 0.29 0 0.04 0.29 0 0.06 0.29 0 0.08 0.29 0 0.1 0.29 0 0 0.295 0 0.02 0.295 0 0.04 0.295 0 0.06 0.295 0 0.08 0.295 0 0.1 0.295 0 0 0.3 0 0.02 0.3 0 0.04 0.3 0 0.06 0.3 0 0.08 0.3 0 0.1 0.3 0 0 0.305 0 0.02 0.305 0 0.04 0.305 0 0.06 0.305 0 0.08 0.305 0 0.1 0.305 0 0 0.31 0 0.02 0.31 0 0.04 0.31 0 0.06 0.31 0 0.08 0.31 0 0.1 0.31 0 0 0.315 0 0.02 0.315 0 0.04 0.315 0 0.06 0.315 0 0.08 0.315 0 0.1 0.315 0 0 0.32 0 0.02 0.32 0 0.04 0.32 0 0.06 0.32 0 0.08 0.32 0 0.1 0.32 0 0 0.325 0 0.02 0.325 0 0.04 0.325 0 0.06 0.325 0 0.08 0.325 0 0.1 0.325 0 0 0.33 0 0.02 0.33 0 0.04 0.33 0 0.06 0.33 0 0.08 0.33 0 0.1 0.33 0 0 0.335 0 0.02 0.335 0 0.04 0.335 0 0.06 0.335 0 0.08 0.335 0 0.1 0.335 0 0 0.34 0 0.02 0.34 0 0.04 0.34 0 0.06 0.34 0 0.08 0.34 0 0.1 0.34 0 0 0.345 0 0.02 0.345 0 0.04 0.345 0 0.06 0.345 0 0.08 0.345 0 0.1 0.345 0 0 0.35 0 0.02 0.35 0 0.04 0.35 0 0.06 0.35 0 0.08 0.35 0 0.1 0.35 0 0 0.355 0 0.02 0.355 0 0.04 0.355 0 0.06 0.355 0 0.08 0.355 0 0.1 0.355 0 0 0.36 0 0.02 0.36 0 0.04 0.36 0 0.06 0.36 0 0.08 0.36 0 0.1 0.36 0 0 0.365 0 0.02 0.365 0 0.04 0.365 0 0.06 0.365 0 0.08 0.365 0 0.1 0.365 0 0 0.37 0 0.02 0.37 0 0.04 0.37 0 0.06 0.37 0 0.08 0.37 0 0.1 0.37 0 0 0.375 0 0.02 0.375 0 0.04 0.375 0 0.06 0.375 0 0.08 0.375 0 0.1 0.375 0 0 0.38 0 0.02 0.38 0 0.04 0.38 0 0.06 0.38 0 0.08 0.38 0 0.1 0.38 0 0 0.385 0 0.02 0.385 0 0.04 0.385 0 0.06 0.385 0 0.08 0.385 0 0.1 0.385 0 0 0.39 0 0.02 0.39 0 0.04 0.39 0 0.06 0.39 0 0.08 0.39 0 0.1 0.39 0 0 0.395 0 0.02 0.395 0 0.04 0.395 0 0.06 0.395 0 0.08 0.395 0 0.1 0.395 0 0 0.4 0 0.02 0.4 0 0.04 0.4 0 0.06 0.4 0 0.08 0.4 0 0.1 0.4 0 0 0.405 0 0.02 0.405 0 0.04 0.405 0 0.06 0.405 0 0.08 0.405 0 0.1 0.405 0 0 0.41 0 0.02 0.41 0 0.04 0.41 0 0.06 0.41 0 0.08 0.41 0 0.1 0.41 0 0 0.415 0 0.02 0.415 0 0.04 0.415 0 0.06 0.415 0 0.08 0.415 0 0.1 0.415 0 0 0.42 0 0.02 0.42 0 0.04 0.42 0 0.06 0.42 0 0.08 0.42 0 0.1 0.42 0 0 0.425 0 0.02 0.425 0 0.04 0.425 0 0.06 0.425 0 0.08 0.425 0 0.1 0.425 0 0 0.43 0 0.02 0.43 0 0.04 0.43 0 0.06 0.43 0 0.08 0.43 0 0.1 0.43 0 0 0.435 0 0.02 0.435 0 0.04 0.435 0 0.06 0.435 0 0.08 0.435 0 0.1 0.435 0 0 0.44 0 0.02 0.44 0 0.04 0.44 0 0.06 0.44 0 0.08 0.44 0 0.1 0.44 0 0 0.445 0 0.02 0.445 0 0.04 0.445 0 0.06 0.445 0 0.08 0.445 0 0.1 0.445 0 0 0.45 0 0.02 0.45 0 0.04 0.45 0 0.06 0.45 0 0.08 0.45 0 0.1 0.45 0 0 0.455 0 0.02 0.455 0 0.04 0.455 0 0.06 0.455 0 0.08 0.455 0 0.1 0.455 0 0 0.46 0 0.02 0.46 0 0.04 0.46 0 0.06 0.46 0 0.08 0.46 0 0.1 0.46 0 0 0.465 0 0.02 0.465 0 0.04 0.465 0 0.06 0.465 0 0.08 0.465 0 0.1 0.465 0 0 0.47 0 0.02 0.47 0 0.04 0.47 0 0.06 0.47 0 0.08 0.47 0 0.1 0.47 0 0 0.475 0 0.02 0.475 0 0.04 0.475 0 0.06 0.475 0 0.08 0.475 0 0.1 0.475 0 0 0.48 0 0.02 0.48 0 0.04 0.48 0 0.06 0.48 0 0.08 0.48 0 0.1 0.48 0 0 0.485 0 0.02 0.485 0 0.04 0.485 0 0.06 0.485 0 0.08 0.485 0 0.1 0.485 0 0 0.49 0 0.02 0.49 0 0.04 0.49 0 0.06 0.49 0 0.08 0.49 0 0.1 0.49 0 0 0.495 0 0.02 0.495 0 0.04 0.495 0 0.06 0.495 0 0.08 0.495 0 0.1 0.495 0 0 0.5 0 0.02 0.5 0 0.04 0.5 0 0.06 0.5 0 0.08 0.5 0 0.1 0.5 0 0 0.505 0 0.02 0.505 0 0.04 0.505 0 0.06 0.505 0 0.08 0.505 0 0.1 0.505 0 0 0.51 0 0.02 0.51 0 0.04 0.51 0 0.06 0.51 0 0.08 0.51 0 0.1 0.51 0 0 0.515 0 0.02 0.515 0 0.04 0.515 0 0.06 0.515 0 0.08 0.515 0 0.1 0.515 0 0 0.52 0 0.02 0.52 0 0.04 0.52 0 0.06 0.52 0 0.08 0.52 0 0.1 0.52 0 0 0.525 0 0.02 0.525 0 0.04 0.525 0 0.06 0.525 0 0.08 0.525 0 0.1 0.525 0 0 0.53 0 0.02 0.53 0 0.04 0.53 0 0.06 0.53 0 0.08 0.53 0 0.1 0.53 0 0 0.535 0 0.02 0.535 0 0.04 0.535 0 0.06 0.535 0 0.08 0.535 0 0.1 0.535 0 0 0.54 0 0.02 0.54 0 0.04 0.54 0 0.06 0.54 0 0.08 0.54 0 0.1 0.54 0 0 0.545 0 0.02 0.545 0 0.04 0.545 0 0.06 0.545 0 0.08 0.545 0 0.1 0.545 0 0 0.55 0 0.02 0.55 0 0.04 0.55 0 0.06 0.55 0 0.08 0.55 0 0.1 0.55 0 0 0.555 0 0.02 0.555 0 0.04 0.555 0 0.06 0.555 0 0.08 0.555 0 0.1 0.555 0 0 0.56 0 0.02 0.56 0 0.04 0.56 0 0.06 0.56 0 0.08 0.56 0 0.1 0.56 0 0 0.565 0 0.02 0.565 0 0.04 0.565 0 0.06 0.565 0 0.08 0.565 0 0.1 0.565 0 0 0.57 0 0.02 0.57 0 0.04 0.57 0 0.06 0.57 0 0.08 0.57 0 0.1 0.57 0 0 0.575 0 0.02 0.575 0 0.04 0.575 0 0.06 0.575 0 0.08 0.575 0 0.1 0.575 0 0 0.58 0 0.02 0.58 0 0.04 0.58 0 0.06 0.58 0 0.08 0.58 0 0.1 0.58 0 0 0.585 0 0.02 0.585 0 0.04 0.585 0 0.06 0.585 0 0.08 0.585 0 0.1 0.585 0 0 0.59 0 0.02 0.59 0 0.04 0.59 0 0.06 0.59 0 0.08 0.59 0 0.1 0.59 0 0 0.595 0 0.02 0.595 0 0.04 0.595 0 0.06 0.595 0 0.08 0.595 0 0.1 0.595 0 0 0.6 0 0.02 0.6 0 0.04 0.6 0 0.06 0.6 0 0.08 0.6 0 0.1 0.6 0 0 0.605 0 0.02 0.605 0 0.04 0.605 0 0.06 0.605 0 0.08 0.605 0 0.1 0.605 0 0 0.61 0 0.02 0.61 0 0.04 0.61 0 0.06 0.61 0 0.08 0.61 0 0.1 0.61 0 0 0.615 0 0.02 0.615 0 0.04 0.615 0 0.06 0.615 0 0.08 0.615 0 0.1 0.615 0 0 0.62 0 0.02 0.62 0 0.04 0.62 0 0.06 0.62 0 0.08 0.62 0 0.1 0.62 0 0 0.625 0 0.02 0.625 0 0.04 0.625 0 0.06 0.625 0 0.08 0.625 0 0.1 0.625 0 0 0.63 0 0.02 0.63 0 0.04 0.63 0 0.06 0.63 0 0.08 0.63 0 0.1 0.63 0 0 0.635 0 0.02 0.635 0 0.04 0.635 0 0.06 0.635 0 0.08 0.635 0 0.1 0.635 0 0 0.64 0 0.02 0.64 0 0.04 0.64 0 0.06 0.64 0 0.08 0.64 0 0.1 0.64 0 0 0.645 0 0.02 0.645 0 0.04 0.645 0 0.06 0.645 0 0.08 0.645 0 0.1 0.645 0 0 0.65 0 0.02 0.65 0 0.04 0.65 0 0.06 0.65 0 0.08 0.65 0 0.1 0.65 0 0 0.655 0 0.02 0.655 0 0.04 0.655 0 0.06 0.655 0 0.08 0.655 0 0.1 0.655 0 0 0.66 0 0.02 0.66 0 0.04 0.66 0 0.06 0.66 0 0.08 0.66 0 0.1 0.66 0 0 0.665 0 0.02 0.665 0 0.04 0.665 0 0.06 0.665 0 0.08 0.665 0 0.1 0.665 0 0 0.67 0 0.02 0.67 0 0.04 0.67 0 0.06 0.67 0 0.08 0.67 0 0.1 0.67 0 0 0.675 0 0.02 0.675 0 0.04 0.675 0 0.06 0.675 0 0.08 0.675 0 0.1 0.675 0 0 0.68 0 0.02 0.68 0 0.04 0.68 0 0.06 0.68 0 0.08 0.68 0 0.1 0.68 0 0 0.685 0 0.02 0.685 0 0.04 0.685 0 0.06 0.685 0 0.08 0.685 0 0.1 0.685 0 0 0.69 0 0.02 0.69 0 0.04 0.69 0 0.06 0.69 0 0.08 0.69 0 0.1 
[...]
			<PointData Scalars="VitesseX">
				<DataArray Name="VitesseX" type="Float32" format="ascii">
 0 1.16965e-14 -8.35094e-15 2.66105e-14 2.95992e-14 0 0 5.10207e-15 9.65665e-16 2.18356e-14 3.16994e-14 0 0 -1.8212e-15 8.03576e-15 2.52971e-14 2.9981e-14 0 0 -8.13718e-15 1.21642e-14 3.32701e-14 2.7913e-14 0 0 -1.08394e-14 1.53948e-14 3.59545e-14 3.01099e-14 0 0 -8.27773e-15 1.5225e-14 4.29052e-14 2.31926e-14 0 0 7.29822e-15 -5.7544e-15 6.9778e-14 2.07526e-15 0 0 4.18766e-15 -5.69101e-15 7.11716e-14 4.05336e-16 0 0 -1.14706e-14 9.83913e-15 5.27453e-14 1.86091e-14 0 0 -6.07236e-15 7.56376e-15 3.59349e-14 4.95025e-14 0 0 -1.14814e-14 2.19865e-14 1.03277e-14 7.02573e-14 0 0 -1.27715e-14 2.61811e-14 6.12441e-15 6.4908e-14 0 0 3.73683e-14 -4.33196e-14 7.33285e-14 1.67551e-14 0 0 3.47575e-14 -3.11187e-14 6.17024e-14 2.25547e-14 0 0 1.20606e-14 9.36288e-16 4.56977e-14 2.56994e-14 0 0 1.65323e-14 -7.82515e-15 7.12278e-14 -8.10004e-15 0 0 1.88224e-14 -1.44094e-16 5.13659e-14 9.02697e-15 0 0 1.387e-14 1.65071e-14 2.98933e-14 2.94375e-14 0 0 -2.17952e-17 5.59817e-14 -1.23503e-14 3.45372e-14 0 0 -6.63565e-15 5.78207e-14 -1.51361e-14 1.61904e-14 0 0 -3.26984e-15 2.42177e-14 4.66858e-14 -3.49934e-14 0 0 3.28571e-14 -2.68246e-14 9.95406e-14 -7.48251e-14 0 0 3.12155e-14 5.06757e-15 2.15966e-14 -1.25341e-14 0 0 -3.18893e-14 1.16214e-13 -1.11899e-13 8.28655e-14 0 0 1.27424e-14 6.7278e-15 3.33313e-14 -1.84812e-15 0 0 3.77706e-14 -6.78357e-14 1.35353e-13 -5.42611e-14 0 0 -3.99057e-14 4.87105e-14 1.24654e-15 7.18329e-14 0 0 -1.51016e-14 -2.71512e-15 5.41176e-14 7.70195e-14 0 0 -1.2091e-14 -1.59385e-14 9.34594e-14 5.26184e-14 0 0 -3.96793e-14 3.56638e-14 3.85477e-14 8.16081e-14 0 0 -4.18274e-14 3.66383e-14 4.06501e-14 7.31248e-14 0 0 -6.66381e-15 1.25486e-14 7.23989e-14 3.19908e-14 0 0 3.87822e-15 4.07763e-14 7.19945e-14 9.71947e-15 0 0 4.65444e-15 5.68538e-14 1.29847e-13 -8.72311e-14 0 0 -1.93227e-14 1.37129e-13 6.3915e-14 -9.11156e-14 0 0 -2.73958e-14 1.78208e-13 -1.39037e-14 -2.03265e-14 0 0 2.24927e-15 9.32189e-14 5.8167e-14 -2.32932e-14 0 0 3.37377e-14 1.57745e-14 9.95069e-14 2.60511e-14 0 0 1.79028e-14 2.41935e-14 9.57646e-14 5.5184e-14 0 0 -6.72928e-14 1.15866e-13 2.62255e-14 9.00157e-14 0 0 -3.84767e-14 3.83753e-14 7.92739e-14 6.24425e-14 0 0 -3.64165e-14 1.83765e-14 8.21014e-14 5.76681e-14 0 0 -6.60745e-14 3.47159e-14 8.38527e-14 5.63194e-14 0 0 3.13915e-14 -9.75773e-14 2.27083e-13 -4.31649e-14 0 0 4.64571e-14 -7.5979e-14 1.86718e-13 -3.89872e-14 0 0 -8.07081e-14 1.29216e-13 -4.74723e-14 9.40658e-14 0 0 -8.30154e-14 1.93724e-13 -1.29016e-13 1.24468e-13 0 0 5.08784e-14 4.92642e-14 -6.17237e-14 1.12279e-13 0 0 8.82288e-14 -6.15458e-15 -2.51266e-14 1.12538e-13 0 0 9.27599e-14 -5.29129e-14 1.45343e-13 -1.18091e-14 0 0 1.72198e-13 -2.16504e-13 3.62748e-13 -1.25818e-13 0 0 1.29488e-13 -1.07656e-13 2.52446e-13 -9.03394e-14 0 0 -2.35519e-14 2.25616e-13 -7.59278e-14 5.80128e-14 0 0 -1.07079e-13 3.65939e-13 -1.64709e-13 1.24619e-13 0 0 7.37688e-14 6.45407e-14 1.9268e-13 -9.20373e-14 0 0 2.49364e-13 -1.96221e-13 4.00558e-13 -1.88805e-13 0 0 1.14837e-13 -3.36585e-15 1.88533e-13 -2.64652e-14 0 0 4.35706e-14 1.02194e-13 1.0174e-13 1.54573e-14 0 0 4.95849e-15 1.63675e-13 6.50281e-14 6.24718e-14 0 0 1.17206e-14 1.65635e-13 8.7098e-14 1.08175e-13 0 0 1.05041e-13 6.24414e-14 1.90323e-13 1.08483e-13 0 0 -4.50943e-15 1.38823e-13 2.09895e-13 1.30613e-13 0 0 -9.95007e-14 1.62937e-13 2.41787e-13 1.28073e-13 0 0 -8.5609e-14 1.3745e-13 3.31231e-13 5.0624e-14 0 0 -1.67724e-14 1.74545e-13 2.46649e-13 1.01368e-13 0 0 -1.09525e-14 2.11931e-13 1.73047e-13 1.11822e-13 0 0 -2.13457e-13 3.51357e-13 1.53058e-13 7.2718e-14 0 0 -1.90009e-13 1.662e-13 3.72006e-13 -3.20871e-15 0 0 -5.80585e-14 -6.01349e-15 5.74828e-13 -9.50334e-14 0 0 -5.65724e-14 1.28618e-13 3.45003e-13 8.14909e-14 0 0 -4.24958e-14 1.18891e-13 2.08835e-13 1.98399e-13 0 0 -1.91429e-14 1.35172e-13 1.08192e-13 2.38422e-13 0 0 3.34292e-13 -2.76932e-13 3.92372e-13 2.75926e-14 0 0 3.32666e-13 -2.6539e-13 4.44282e-13 -6.10791e-14 0 0 1.82321e-14 4.63311e-14 3.01561e-13 6.46079e-14 0 0 -5.78975e-14 1.0172e-13 2.22644e-13 2.49901e-13 0 0 -2.44393e-14 1.6855e-13 1.33809e-13 3.11237e-13 0 0 2.58831e-13 -2.51659e-13 7.22306e-13 -2.32253e-13 0 0 2.26659e-13 -1.34904e-13 6.3446e-13 -4.21288e-13 0 0 2.08369e-13 1.22413e-13 2.15834e-13 -2.63018e-13 0 0 4.14452e-13 -1.19318e-13 3.26259e-13 -1.67603e-13 0 0 3.90482e-13 1.71031e-13 6.01666e-14 2.04639e-13 0 0 4.73895e-13 7.53597e-13 3.18188e-13 5.60149e-13 0 0 1.23901e-12 2.17339e-12 1.77178e-12 1.511e-12 0 0 4.01534e-12 6.60978e-12 6.51087e-12 4.40014e-12 0 0 1.20947e-11 1.95903e-11 2.00587e-11 1.27076e-11 0 0 3.20282e-11 5.21401e-11 5.39174e-11 3.38089e-11 0 0 7.26088e-11 1.19459e-10 1.24521e-10 7.85022e-11 0 0 1.22518e-10 2.10834e-10 2.26606e-10 1.47051e-10 0 0 -1.24694e-11 1.96371e-11 6.87935e-11 6.8028e-11 0 0 -9.37639e-10 -1.41087e-09 -1.2817e-09 -7.26426e-10 0 0 -4.73053e-09 -7.41529e-09 -7.12146e-09 -4.2531e-09 0 0 -1.69849e-08 -2.70732e-08 -2.65654e-08 -1.61625e-08 0 0 -5.10895e-08 -8.24418e-08 -8.21551e-08 -5.06264e-08 0 0 -1.35747e-07 -2.21636e-07 -2.24056e-07 -1.39664e-07 0 0 -3.26501e-07 -5.39858e-07 -5.53995e-07 -3.49378e-07 0 0 -7.20685e-07 -1.20887e-06 -1.26165e-06 -8.05304e-07 0 0 -1.52554e-06 -2.59045e-06 -2.6682e-06 -1.72763e-06 0 0 -2.85339e-06 -4.85833e-06 -5.56607e-06 -3.62151e-06 0 0 -5.17922e-06 -9.64449e-06 -9.87888e-06 -6.53805e-06 0 0 -9.1434e-06 -1.57568e-05 -1.81567e-05 -1.26796e-05 0 0 -1.3936e-05 -2.59264e-05 -3.10258e-05 -2.05373e-05 0 0 -2.16786e-05 -4.14597e-05 -4.72766e-05 -3.30061e-05 0 0 -3.11437e-05 -5.96263e-05 -7.0657e-05 -4.92647e-05 0 0 -4.33777e-05 -8.32681e-05 -0.000100391 -7.03083e-05 0 0 -6.09579e-05 -0.000113465 -0.000132135 -9.0372e-05 0 0 -8.30659e-05 -0.000146462 -0.000162406 -0.000106626 0 0 -0.000109327 -0.000186752 -0.000190974 -0.000118033 0 0 -0.000144713 -0.000232568 -0.000218962 -0.00012653 0 0 -0.000183829 -0.000276265 -0.00024817 -0.000134804 0 0 -0.000223769 -0.000328208 -0.000284305 -0.000142875 0 0 -0.00026688 -0.000403177 -0.000329234 -0.000150409 0 0 -0.000322044 -0.000487416 -0.00037988 -0.000163771 0 0 -0.000390054 -0.000570156 -0.000430831 -0.000184012 0 0 -0.000460904 -0.000644001 -0.000475672 -0.000221114 0 0 -0.000552236 -0.000698167 -0.000527127 -0.000284734 0 0 -0.000646024 -0.000782963 -0.0006154 -0.000347948 0 0 -0.000751255 -0.00100449 -0.000780219 -0.000347214 0 0 -0.000964915 -0.0013541 -0.000906273 -0.000284826 0 0 -0.00121024 -0.00157357 -0.000894091 -0.000286522 0 0 -0.00123174 -0.00155589 -0.000865284 -0.00030159 0 0 -0.00117289 -0.00144621 -0.000795225 -0.00034064 0 0 -0.00096681 -0.00117563 -0.000714574 -0.000396302 0 0 -0.000661617 -0.000961349 -0.000733052 -0.000355752 0 0 -0.000435599 -0.000804503 -0.000728205 -0.000330189 0 0 -7.13059e-05 -0.000121379 -0.000384112 -0.000422647 0 0 0.000462538 0.00154708 0.000940878 -0.000471072 0 0 0.000745241 0.00185655 0.00135156 -0.000344957 0 0 0.00073413 0.00175483 0.00131414 1.95155e-05 0 0 0.000703656 0.00143423 0.00112737 0.000319635 0 0 0.000635896 0.00111933 0.000896646 0.000332958 0 0 0.000562615 0.000884567 0.000717086 0.000320394 0 0 0.000495671 0.00073116 0.000604393 0.000303647 0 0 0.000435808 0.000622319 0.000534063 0.00029124 0 0 0.000377753 0.000534023 0.000478397 0.000271044 0 0 0.00032118 0.000463827 0.000427211 0.000246891 0 0 0.0002721 0.000409096 0.000381725 0.000223665 0 0 0.000232257 0.000359674 0.000340138 0.0002018 0 0 0.000196608 0.000307882 0.000296167 0.000178001 0 0 0.000160744 0.000254381 0.000248484 0.000151054 0 0 0.00012478 0.000199935 0.000197771 0.000121321 0 0 9.04253e-05 0.000146274 0.000146244 9.03746e-05 0 0 5.99054e-05 9.73822e-05 9.79756e-05 6.08611e-05 0 0 3.53744e-05 5.76688e-05 5.8211e-05 3.62518e-05 0 0 1.80886e-05 2.95263e-05 2.98453e-05 1.8605e-05 0 0 7.84657e-06 1.28027e-05 1.29344e-05 8.0597e-06 0 0 2.91548e-06 4.75065e-06 4.79181e-06 2.98206e-06 0 0 9.61433e-07 1.5642e-06 1.5748e-06 9.78572e-07 0 0 2.95028e-07 4.79325e-07 4.81748e-07 2.98948e-07 0 0 8.69624e-08 1.41127e-07 1.41644e-07 8.77992e-08 0 0 2.49908e-08 4.05214e-08 4.06272e-08 2.51616e-08 0 0 7.04306e-09 1.14128e-08 1.14339e-08 7.07687e-09 0 0 1.9504e-09 3.15926e-09 3.16346e-09 1.95707e-09 0 0 5.3101e-10 8.60027e-10 8.60973e-10 5.32416e-10 0 0 1.42162e-10 2.30443e-10 2.30608e-10 1.4269e-10 0 0 3.75365e-11 6.08632e-11 6.10449e-11 3.7758e-11 0 0 9.8904e-12 1.6004e-11 1.61508e-11 1.00186e-11 0 0 2.73199e-12 4.39025e-12 4.34008e-12 2.96806e-12 0 0 9.64918e-13 1.43157e-12 1.28996e-12 1.18724e-12 0 0 5.22202e-13 7.20136e-13 6.06437e-13 5.82133e-13 0 0 3.76998e-13 6.22381e-13 4.66322e-13 3.08776e-13 0 0 4.50218e-13 5.71277e-13 4.37687e-13 2.49772e-13 0 0 5.93314e-13 4.98662e-13 4.73412e-13 1.64386e-13 0 0 4.8776e-13 7.29327e-13 3.02369e-13 2.1899e-13 0 0 5.24145e-13 6.50443e-13 4.11265e-13 1.71703e-13 0 0 6.17019e-13 4.55081e-13 6.10362e-13 4.63562e-14 0 0 5.39995e-13 5.71025e-13 5.45111e-13 1.26075e-13 0 0 5.23774e-13 6.81595e-13 4.1428e-13 2.58045e-13 0 0 3.44342e-13 1.02137e-12 4.58932e-14 4.37599e-13 0 0 3.58192e-13 1.06402e-12 1.12909e-13 3.09339e-13 0 0 5.54977e-13 7.97258e-13 5.7133e-13 -1.62797e-13 0 0 6.17988e-13 6.99826e-13 6.18421e-13 -1.27715e-13 0 0 6.77624e-13 6.59336e-13 5.70318e-13 6.85363e-14 0 0 4.74445e-13 9.00358e-13 4.03492e-13 2.20603e-13 0 0 2.71391e-13 1.04672e-12 2.32724e-13 4.56869e-13 0 0 3.50843e-13 8.84761e-13 3.65505e-13 4.04075e-13 0 0 4.82902e-13 6.89129e-13 6.04438e-13 2.23357e-13 0 0 6.71369e-13 4.41369e-13 7.61859e-13 1.86398e-13 0 0 5.39612e-13 7.50349e-13 2.79502e-13 5.94101e-13 0 0 5.58088e-13 6.81468e-13 4.56373e-13 4.26433e-13 0 0 6.0652e-13 5.50145e-13 7.15486e-13 1.37182e-13 0 0 4.34499e-13 7.86063e-13 4.53357e-13 2.1782e-13 0 0 3.95383e-13 7.69603e-13 4.14445e-13 2.2483e-13 0 0 4.62369e-13 6.86989e-13 3.79126e-13 2.45932e-13 0 0 5.39091e-13 5.57523e-13 6.41309e-13 -2.45215e-14 0 0 4.4413e-13 6.26947e-13 6.89476e-13 -5.40413e-14 0 0 4.59394e-13 5.69821e-13 6.92226e-13 6.94267e-14 0 0 4.15899e-13 5.74877e-13 9.01077e-13 -1.78019e-13 0 0 2.21006e-13 8.96835e-13 5.65364e-13 7.87905e-15 0 0 3.00856e-13 6.5744e-13 6.60011e-13 5.57126e-14 0 0 3.97988e-13 3.82113e-13 9.34871e-13 -1.37075e-13 0 0 6.64299e-14 8.80269e-13 2.88259e-13 4.22654e-13 0 0 1.27178e-13 5.89946e-13 5.14765e-13 4.01687e-13 0 0 3.05806e-13 2.47648e-13 8.55492e-13 1.20049e-13 0 0 2.47654e-13 4.23478e-13 7.67968e-13 5.27759e-14 0 0 1.82695e-13 5.34419e-13 8.69566e-13 -1.83906e-13 0 0 1.40878e-13 5.67083e-13 9.24637e-13 -2.54388e-13 0 0 3.97736e-13 1.35617e-13 1.35577e-12 -4.68398e-13 0 0 2.59477e-13 3.50497e-13 1.16161e-12 -3.29287e-13 0 0 -3.53549e-14 7.43271e-13 9.48031e-13 -2.50885e-13 0 0 -6.50212e-15 6.27729e-13 1.23333e-12 -4.98662e-13 0
				</DataArray>
				<DataArray Name="VitesseY" type="Float32" format="ascii">