<?xml version="1.0"?>
<VTKFile type="PolyData">
	<PolyData>
		<Piece NumberOfPoints="1206" NumberOfPolys="1000">
			<Points>
				<DataArray type="Float32" NumberOfComponents="3" format="ascii">
 0 0 0 0.02 0 0 0.04 0 0 0.06 0 0 0.08 0 0 0.1 0 0 0 0.005 0 0.02 0.005 0 0.04 0.005 0 0.06 0.005 0 0.08 0.005 0 0.1 0.005 0 0 0.01 0 0.02 0.01 0 0.04 0.01 0 0.06 0.01 0 0.08 0.01 0 0.1 0.01 0 0 0.015 0 0.02 0.015 0 0.04 0.015 0 0.06 0.015 0 0.08 0.015 0 0.1 0.015 0 0 0.02 0 0.02 0.02 0 0.04 0.02 0 0.06 0.02 0 0.08 0.02 0 0.1 0.02 0 0 0.025 0 0.02 0.025 0 0.04 0.025 0 0.06 0.025 0 0.08 0.025 0 0.1 0.025 0 0 0.03 0 0.02 0.03 0 0.04 0.03 0 0.06 0.03 0 0.08 0.03 0 0.1 0.03 0 0 0.035 0 0.02 0.035 0 0.04 0.035 0 0.06 0.035 0 0.08 0.035 0 0.1 0.035 0 0 0.04 0 0.02 0.04 0 0.04 0.04 0 0.06 0.04 0 0.08 0.04 0 0.1 0.04 0 0 0.045 0 0.02 0.045 0 0.04 0.045 0 0.06 0.045 0 0.08 0.045 0 0.1 0.045 0 0 0.05 0 0.02 0.05 0 0.04 0.05 0 0.06 0.05 0 0.08 0.05 0 0.1 0.05 0 0 0.055 0 0.02 0.055 0 0.04 0.055 0 0.06 0.055 0 0.08 0.055 0 0.1 0.055 0 0 0.06 0 0.02 0.06 0 0.04 0.06 0 0.06 0.06 0 0.08 0.06 0 0.1 0.06 0 0 0.065 0 0.02 0.065 0 0.04 0.065 0 0.06 0.065 0 0.08 0.065 0 0.1 0.065 0 0 0.07 0 0.02 0.07 0 0.04 0.07 0 0.06 0.07 0 0.08 0.07 0 0.1 0.07 0 0 0.075 0 0.02 0.075 0 0.04 0.075 0 0.06 0.075 0 0.08 0.075 0 0.1 0.075 0 0 0.08 0 0.02 0.08 0 0.04 0.08 0 0.06 0.08 0 0.08 0.08 0 0.1 0.08 0 0 0.085 0 0.02 0.085 0 0.04 0.085 0 0.06 0.085 0 0.08 0.085 0 0.1 0.085 0 0 0.09 0 0.02 0.09 0 0.04 0.09 0 0.06 0.09 0 0.08 0.09 0 0.1 0.09 0 0 0.095 0 0.02 0.095 0 0.04 0.095 0 0.06 0.095 0 0.08 0.095 0 0.1 0.095 0 0 0.1 0 0.02 0.1 0 0.04 0.1 0 0.06 0.1 0 0.08 0.1 0 0.1 0.1 0 0 0.105 0 0.02 0.105 0 0.04 0.105 0 0.06 0.105 0 0.08 0.105 0 0.1 0.105 0 0 0.11 0 0.02 0.11 0 0.04 0.11 0 0.06 0.11 0 0.08 0.11 0 0.1 0.11 0 0 0.115 0 0.02 0.115 0 0.04 0.115 0 0.06 0.115 0 0.08 0.115 0 0.1 0.115 0 0 0.12 0 0.02 0.12 0 0.04 0.12 0 0.06 0.12 0 0.08 0.12 0 0.1 0.12 0 0 0.125 0 0.02 0.125 0 0.04 0.125 0 0.06 0.125 0 0.08 0.125 0 0.1 0.125 0 0 0.13 0 0.02 0.13 0 0.04 0.13 0 0.06 0.13 0 0.08 0.13 0 0.1 0.13 0 0 0.135 0 0.02 0.135 0 0.04 0.135 0 0.06 0.135 0 0.08 0.135 0 0.1 0.135 0 0 0.14 0 0.02 0.14 0 0.04 0.14 0 0.06 0.14 0 0.08 0.14 0 0.1 0.14 0 0 0.145 0 0.02 0.145 0 0.04 0.145 0 0.06 0.145 0 0.08 0.145 0 0.1 0.145 0 0 0.15 0 0.02 0.15 0 0.04 0.15 0 0.06 0.15 0 0.08 0.15 0 0.1 0.15 0 0 0.155 0 0.02 0.155 0 0.04 0.155 0 0.06 0.155 0 0.08 0.155 0 0.1 0.155 0 0 0.16 0 0.02 0.16 0 0.04 0.16 0 0.06 0.16 0 0.08 0.16 0 0.1 0.16 0 0 0.165 0 0.02 0.165 0 0.04 0.165 0 0.06 0.165 0 0.08 0.165 0 0.1 0.165 0 0 0.17 0 0.02 0.17 0 0.04 0.17 0 0.06 0.17 0 0.08 0.17 0 0.1 0.17 0 0 0.175 0 0.02 0.175 0 0.04 0.175 0 0.06 0.175 0 0.08 0.175 0 0.1 0.175 0 0 0.18 0 0.02 0.18 0 0.04 0.18 0 0.06 0.18 0 0.08 0.18 0 0.1 0.18 0 0 0.185 0 0.02 0.185 0 0.04 0.185 0 0.06 0.185 0 0.08 0.185 0 0.1 0.185 0 0 0.19 0 0.02 0.19 0 0.04 0.19 0 0.06 0.19 0 0.08 0.19 0 0.1 0.19 0 0 0.195 0 0.02 0.195 0 0.04 0.195 0 0.06 0.195 0 0.08 0.195 0 0.1 0.195 0 0 0.2 0 0.02 0.2 0 0.04 0.2 0 0.06 0.2 0 0.08 0.2 0 0.1 0.2 0 0 0.205 0 0.02 0.205 0 0.04 0.205 0 0.06 0.205 0 0.08 0.205 0 0.1 0.205 0 0 0.21 0 0.02 0.21 0 0.04 0.21 0 0.06 0.21 0 0.08 0.21 0 0.1 0.21 0 0 0.215 0 0.02 0.215 0 0.04 0.215 0 0.06 0.215 0 0.08 0.215 0 0.1 0.215 0 0 0.22 0 0.02 0.22 0 0.04 0.22 0 0.06 0.22 0 0.08 0.22 0 0.1 0.22 0 0 0.225 0 0.02 0.225 0 0.04 0.225 0 0.06 0.225 0 0.08 0.225 0 0.1 0.225 0 0 0.23 0 0.02 0.23 0 0.04 0.23 0 0.06 0.23 0 0.08 0.23 0 0.1 0.23 0 0 0.235 0 0.02 0.235 0 0.04 0.235 0 0.06 0.235 0 0.08 0.235 0 0.1 0.235 0 0 0.24 0 0.02 0.24 0 0.04 0.24 0 0.06 0.24 0 0.08 0.24 0 0.1 0.24 0 0 0.245 0 0.02 0.245 0 0.04 0.245 0 0.06 0.245 0 0.08 0.245 0 0.1 0.245 0 0 0.25 0 0.02 0.25 0 0.04 0.25 0 0.06 0.25 0 0.08 0.25 0 0.1 0.25 0 0 0.255 0 0.02 0.255 0 0.04 0.255 0 0.06 0.255 0 0.08 0.255 0 0.1 0.255 0 0 0.26 0 0.02 0.26 0 0.04 0.26 0 0.06 0.26 0 0.08 0.26 0 0.1 0.26 0 0 0.265 0 0.02 0.265 0 0.04 0.265 0 0.06 0.265 0 0.08 0.265 0 0.1 0.265 0 0 0.27 0 0.02 0.27 0 0.04 0.27 0 0.06 0.27 0 0.08 0.27 0 0.1 0.27 0 0 0.275 0 0.02 0.275 0 0.04 0.275 0 0.06 0.275 0 0.08 0.275 0 0.1 0.275 0 0 0.28 0 0.02 0.28 0 0.04 0.28 0 0.06 0.28 0 0.08 0.28 0 0.1 0.28 0 0 0.285 0 0.02 0.285 0 0.04 0.285 0 0.06 0.285 0 0.08 0.285 0 0.1 0.285 0 0 0.29 0 0.02 0.29 0 0.04 0.29 0 0.06 0.29 0 0.08 0.29 0 0.1 0.29 0 0 0.295 0 0.02 0.295 0 0.04 0.295 0 0.06 0.295 0 0.08 0.295 0 0.1 0.295 0 0 0.3 0 0.02 0.3 0 0.04 0.3 0 0.06 0.3 0 0.08 0.3 0 0.1 0.3 0 0 0.305 0 0.02 0.305 0 0.04 0.305 0 0.06 0.305 0 0.08 0.305 0 0.1 0.305 0 0 0.31 0 0.02 0.31 0 0.04 0.31 0 0.06 0.31 0 0.08 0.31 0 0.1 0.31 0 0 0.315 0 0.02 0.315 0 0.04 0.315 0 0.06 0.315 0 0.08 0.315 0 0.1 0.315 0 0 0.32 0 0.02 0.32 0 0.04 0.32 0 0.06 0.32 0 0.08 0.32 0 0.1 0.32 0 0 0.325 0 0.02 0.325 0 0.04 0.325 0 0.06 0.325 0 0.08 0.325 0 0.1 0.325 0 0 0.33 0 0.02 0.33 0 0.04 0.33 0 0.06 0.33 0 0.08 0.33 0 0.1 0.33 0 0 0.335 0 0.02 0.335 0 0.04 0.335 0 0.06 0.335 0 0.08 0.335 0 0.1 0.335 0 0 0.34 0 0.02 0.34 0 0.04 0.34 0 0.06 0.34 0 0.08 0.34 0 0.1 0.34 0 0 0.345 0 0.02 0.345 0 0.04 0.345 0 0.06 0.345 0 0.08 0.345 0 0.1 0.345 0 0 0.35 0 0.02 0.35 0 0.04 0.35 0 0.06 0.35 0 0.08 0.35 0 0.1 0.35 0 0 0.355 0 0.02 0.355 0 0.04 0.355 0 0.06 0.355 0 0.08 0.355 0 0.1 0.355 0 0 0.36 0 0.02 0.36 0 0.04 0.36 0 0.06 0.36 0 0.08 0.36 0 0.1 0.36 0 0 0.365 0 0.02 0.365 0 0.04 0.365 0 0.06 0.365 0 0.08 0.365 0 0.1 0.365 0 0 0.37 0 0.02 0.37 0 0.04 0.37 0 0.06 0.37 0 0.08 0.37 0 0.1 0.37 0 0 0.375 0 0.02 0.375 0 0.04 0.375 0 0.06 0.375 0 0.08 0.375 0 0.1 0.375 0 0 0.38 0 0.02 0.38 0 0.04 0.38 0 0.06 0.38 0 0.08 0.38 0 0.1 0.38 0 0 0.385 0 0.02 0.385 0 0.04 0.385 0 0.06 0.385 0 0.08 0.385 0 0.1 0.385 0 0 0.39 0 0.02 0.39 0 0.04 0.39 0 0.06 0.39 0 0.08 0.39 0 0.1 0.39 0 0 0.395 0 0.02 0.395 0 0.04 0.395 0 0.06 0.395 0 0.08 0.395 0 0.1 0.395 0 0 0.4 0 0.02 0.4 0 0.04 0.4 0 0.06 0.4 0 0.08 0.4 0 0.1 0.4 0 0 0.405 0 0.02 0.405 0 0.04 0.405 0 0.06 0.405 0 0.08 0.405 0 0.1 0.405 0 0 0.41 0 0.02 0.41 0 0.04 0.41 0 0.06 0.41 0 0.08 0.41 0 0.1 0.41 0 0 0.415 0 0.02 0.415 0 0.04 0.415 0 0.06 0.415 0 0.08 0.415 0 0.1 0.415 0 0 0.42 0 0.02 0.42 0 0.04 0.42 0 0.06 0.42 0 0.08 0.42 0 0.1 0.42 0 0 0.425 0 0.02 0.425 0 0.04 0.425 0 0.06 0.425 0 0.08 0.425 0 0.1 0.425 0 0 0.43 0 0.02 0.43 0 0.04 0.43 0 0.06 0.43 0 0.08 0.43 0 0.1 0.43 0 0 0.435 0 0.02 0.435 0 0.04 0.435 0 0.06 0.435 0 0.08 0.435 0 0.1 0.435 0 0 0.44 0 0.02 0.44 0 0.04 0.44 0 0.06 0.44 0 0.08 0.44 0 0.1 0.44 0 0 0.445 0 0.02 0.445 0 0.04 0.445 0 0.06 0.445 0 0.08 0.445 0 0.1 0.445 0 0 0.45 0 0.02 0.45 0 0.04 0.45 0 0.06 0.45 0 0.08 0.45 0 0.1 0.45 0 0 0.455 0 0.02 0.455 0 0.04 0.455 0 0.06 0.455 0 0.08 0.455 0 0.1 0.455 0 0 0.46 0 0.02 0.46 0 0.04 0.46 0 0.06 0.46 0 0.08 0.46 0 0.1 0.46 0 0 0.465 0 0.02 0.465 0 0.04 0.465 0 0.06 0.465 0 0.08 0.465 0 0.1 0.465 0 0 0.47 0 0.02 0.47 0 0.04 0.47 0 0.06 0.47 0 0.08 0.47 0 0.1 0.47 0 0 0.475 0 0.02 0.475 0 0.04 0.475 0 0.06 0.475 0 0.08 0.475 0 0.1 0.475 0 0 0.48 0 0.02 0.48 0 0.04 0.48 0 0.06 0.48 0 0.08 0.48 0 0.1 0.48 0 0 0.485 0 0.02 0.485 0 0.04 0.485 0 0.06 0.485 0 0.08 0.485 0 0.1 0.485 0 0 0.49 0 0.02 0.49 0 0.04 0.49 0 0.06 0.49 0 0.08 0.49 0 0.1 0.49 0 0 0.495 0 0.02 0.495 0 0.04 0.495 0 0.06 0.495 0 0.08 0.495 0 0.1 0.495 0 0 0.5 0 0.02 0.5 0 0.04 0.5 0 0.06 0.5 0 0.08 0.5 0 0.1 0.5 0 0 0.505 0 0.02 0.505 0 0.04 0.505 0 0.06 0.505 0 0.08 0.505 0 0.1 0.505 0 0 0.51 0 0.02 0.51 0 0.04 0.51 0 0.06 0.51 0 0.08 0.51 0 0.1 0.51 0 0 0.515 0 0.02 0.515 0 0.04 0.515 0 0.06 0.515 0 0.08 0.515 0 0.1 0.515 0 0 0.52 0 0.02 0.52 0 0.04 0.52 0 0.06 0.52 0 0.08 0.52 0 0.1 0.52 0 0 0.525 0 0.02 0.525 0 0.04 0.525 0 0.06 0.525 0 0.08 0.525 0 0.1 0.525 0 0 0.53 0 0.02 0.53 0 0.04 0.53 0 0.06 0.53 0 0.08 0.53 0 0.1 0.53 0 0 0.535 0 0.02 0.535 0 0.04 0.535 0 0.06 0.535 0 0.08 0.535 0 0.1 0.535 0 0 0.54 0 0.02 0.54 0 0.04 0.54 0 0.06 0.54 0 0.08 0.54 0 0.1 0.54 0 0 0.545 0 0.02 0.545 0 0.04 0.545 0 0.06 0.545 0 0.08 0.545 0 0.1 0.545 0 0 0.55 0 0.02 0.55 0 0.04 0.55 0 0.06 0.55 0 0.08 0.55 0 0.1 0.55 0 0 0.555 0 0.02 0.555 0 0.04 0.555 0 0.06 0.555 0 0.08 0.555 0 0.1 0.555 0 0 0.56 0 0.02 0.56 0 0.04 0.56 0 0.06 0.56 0 0.08 0.56 0 0.1 0.56 0 0 0.565 0 0.02 0.565 0 0.04 0.565 0 0.06 0.565 0 0.08 0.565 0 0.1 0.565 0 0 0.57 0 0.02 0.57 0 0.04 0.57 0 0.06 0.57 0 0.08 0.57 0 0.1 0.57 0 0 0.575 0 0.02 0.575 0 0.04 0.575 0 0.06 0.575 0 0.08 0.575 0 0.1 0.575 0 0 0.58 0 0.02 0.58 0 0.04 0.58 0 0.06 0.58 0 0.08 0.58 0 0.1 0.58 0 0 0.585 0 0.02 0.585 0 0.04 0.585 0 0.06 0.585 0 0.08 0.585 0 0.1 0.585 0 0 0.59 0 0.02 0.59 0 0.04 0.59 0 0.06 0.59 0 0.08 0.59 0 0.1 0.59 0 0 0.595 0 0.02 0.595 0 0.04 0.595 0 0.06 0.595 0 0.08 0.595 0 0.1 0.595 0 0 0.6 0 0.02 0.6 0 0.04 0.6 0 0.06 0.6 0 0.08 0.6 0 0.1 0.6 0 0 0.605 0 0.02 0.605 0 0.04 0.605 0 0.06 0.605 0 0.08 0.605 0 0.1 0.605 0 0 0.61 0 0.02 0.61 0 0.04 0.61 0 0.06 0.61 0 0.08 0.61 0 0.1 0.61 0 0 0.615 0 0.02 0.615 0 0.04 0.615 0 0.06 0.615 0 0.08 0.615 0 0.1 0.615 0 0 0.62 0 0.02 0.62 0 0.04 0.62 0 0.06 0.62 0 0.08 0.62 0 0.1 0.62 0 0 0.625 0 0.02 0.625 0 0.04 0.625 0 0.06 0.625 0 0.08 0.625 0 0.1 0.625 0 0 0.63 0 0.02 0.63 0 0.04 0.63 0 0.06 0.63 0 0.08 0.63 0 0.1 0.63 0 0 0.635 0 0.02 0.635 0 0.04 0.635 0 0.06 0.635 0 0.08 0.635 0 0.1 0.635 0 0 0.64 0 0.02 0.64 0 0.04 0.64 0 0.06 0.64 0 0.08 0.64 0 0.1 0.64 0 0 0.645 0 0.02 0.645 0 0.04 0.645 0 0.06 0.645 0 0.08 0.645 0 0.1 0.645 0 0 0.65 0 0.02 0.65 0 0.04 0.65 0 0.06 0.65 0 0.08 0.65 0 0.1 0.65 0 0 0.655 0 0.02 0.655 0 0.04 0.655 0 0.06 0.655 0 0.08 0.655 0 0.1 0.655 0 0 0.66 0 0.02 0.66 0 0.04 0.66 0 0.06 0.66 0 0.08 0.66 0 0.1 0.66 0 0 0.665 0 0.02 0.665 0 0.04 0.665 0 0.06 0.665 0 0.08 0.665 0 0.1 0.665 0 0 0.67 0 0.02 0.67 0 0.04 0.67 0 0.06 0.67 0 0.08 0.67 0 0.1 0.67 0 0 0.675 0 0.02 0.675 0 0.04 0.675 0 0.06 0.675 0 0.08 0.675 0 0.1 0.675 0 0 0.68 0 0.02 0.68 0 0.04 0.68 0 0.06 0.68 0 0.08 0.68 0 0.1 0.68 0 0 0.685 0 0.02 0.685 0 0.04 0.685 0 0.06 0.685 0 0.08 0.685 0 0.1 0.685 0 0 0.69 0 0.02 0.69 0 0.04 0.69 0 0.06 0.69 0 0.08 0.69 0 0.1 
[...]
			<PointData Scalars="VitesseX">
				<DataArray Name="VitesseX" type="Float32" format="ascii">
 0 2.14049e-15 -1.21438e-14 1.07526e-14 -2.05018e-14 0 0 4.00927e-15 -1.50778e-14 1.22167e-14 -1.9432e-14 0 0 1.95002e-15 -8.18749e-15 7.24387e-16 -9.59767e-15 0 0 8.09501e-15 -1.0312e-14 -6.74675e-16 -1.02516e-14 0 0 1.20575e-14 -9.61836e-15 -7.69151e-15 -5.89707e-15 0 0 -4.57815e-15 1.94906e-14 -4.32735e-14 1.51726e-14 0 0 -1.6087e-15 1.4093e-14 -3.8548e-14 4.08567e-15 0 0 1.38563e-14 -1.55216e-14 -3.74716e-15 -2.74718e-14 0 0 7.75583e-15 -7.40317e-15 -6.74358e-15 -3.69624e-14 0 0 6.57605e-16 4.71724e-15 -2.80652e-14 -1.92848e-14 0 0 1.37874e-14 -1.34484e-14 -3.095e-14 -7.78023e-15 0 0 1.35483e-14 -1.08879e-14 -5.27026e-14 6.75061e-15 0 0 7.07775e-15 -2.77437e-14 -2.29173e-14 -1.71454e-14 0 0 8.69767e-16 -3.77082e-14 3.17722e-15 -3.71377e-14 0 0 -1.20149e-14 -2.57256e-14 2.20036e-15 -4.452e-14 0 0 -1.95828e-14 -2.67216e-14 1.50906e-14 -5.23255e-14 0 0 -1.90422e-14 -2.86736e-14 1.26598e-14 -3.68057e-14 0 0 -1.30551e-14 -4.49895e-14 1.38794e-14 -1.54597e-14 0 0 2.21855e-15 -6.46531e-14 -1.61364e-15 3.09732e-14 0 0 6.4602e-15 -6.34699e-14 -1.16021e-14 3.64142e-14 0 0 -3.24463e-14 6.99047e-15 -7.23335e-14 5.1141e-14 0 0 -6.24023e-14 4.75567e-14 -9.10321e-14 5.6241e-14 0 0 -3.44996e-14 -2.0356e-14 1.13688e-14 -8.13807e-15 0 0 -2.45076e-14 -2.62371e-14 1.99807e-14 -2.21511e-14 0 0 -4.20618e-15 -5.70589e-14 4.92493e-14 -4.85252e-14 0 0 3.85115e-14 -1.43214e-13 1.40802e-13 -1.13952e-13 0 0 -2.00997e-14 -5.52178e-14 4.18269e-14 -6.29841e-14 0 0 -2.2988e-14 -5.94637e-14 4.5302e-15 -3.56151e-14 0 0 -2.37112e-14 -4.90504e-14 -5.94734e-14 1.85323e-14 0 0 -4.1144e-14 -2.05274e-14 -7.70139e-14 1.80015e-14 0 0 5.09048e-15 -1.20919e-13 8.52736e-14 -1.4e-13 0 0 -2.08817e-14 -8.53408e-14 4.5988e-14 -1.28947e-13 0 0 -5.26814e-14 -2.30878e-14 -6.78355e-14 -2.27385e-14 0 0 -5.40892e-14 -2.09632e-14 -6.52658e-14 -1.83576e-14 0 0 -4.59794e-14 -2.06703e-14 -6.19032e-14 -8.22312e-15 0 0 -2.39164e-14 -3.05228e-14 -7.57729e-14 2.4193e-14 0 0 -1.68345e-14 -3.48936e-14 -7.37387e-14 2.53467e-14 0 0 9.32692e-15 -6.2696e-14 -5.73539e-14 1.02944e-14 0 0 4.48994e-14 -1.10889e-13 -2.16716e-14 -1.76359e-14 0 0 4.03917e-14 -1.05502e-13 -2.65799e-14 -9.89888e-15 0 0 4.06941e-14 -8.82193e-14 -6.37169e-14 2.80132e-14 0 0 3.39979e-15 -2.99925e-14 -1.02972e-13 2.90877e-14 0 0 -1.73064e-14 -1.4007e-14 -8.82069e-14 -3.7786e-15 0 0 2.08494e-14 -7.67135e-14 -2.92144e-14 -4.95748e-14 0 0 -6.03898e-15 -4.36244e-14 -3.23229e-14 -8.64364e-14 0 0 -1.55711e-14 -1.27218e-14 -3.14128e-14 -1.18552e-13 0 0 6.81593e-14 -1.0498e-13 7.04105e-14 -1.97792e-13 0 0 6.05382e-14 -6.45867e-14 3.13135e-14 -1.4186e-13 0 0 -5.68982e-14 7.68424e-14 -8.24443e-14 -3.22169e-14 0 0 -1.45732e-13 1.98468e-13 -1.99103e-13 4.69995e-14 0 0 -1.69589e-13 2.43918e-13 -2.04539e-13 4.81491e-14 0 0 -1.17924e-13 1.69132e-13 -7.70225e-14 -2.24682e-14 0 0 -5.43077e-14 6.57502e-14 2.71544e-14 -7.1808e-14 0 0 -1.18548e-13 1.15693e-13 -3.87621e-14 -9.33865e-15 0 0 -6.49713e-14 1.95654e-14 -1.54438e-14 1.61077e-14 0 0 -1.74727e-14 -8.56781e-14 5.76487e-14 -4.07842e-14 0 0 -1.31227e-13 5.75912e-14 -8.97509e-14 4.57585e-15 0 0 -3.65711e-14 -5.98811e-14 1.46965e-14 -1.72464e-13 0 0 3.51465e-15 -5.01574e-14 -4.88641e-14 -1.98377e-13 0 0 -2.82421e-14 4.35768e-15 -1.46137e-13 -5.38568e-14 0 0 -9.27725e-15 -1.94406e-14 -1.2106e-13 -1.18805e-14 0 0 -6.52189e-14 3.78228e-14 -1.26975e-13 -7.48463e-14 0 0 1.17604e-14 -9.87791e-15 -1.34503e-13 -1.47425e-13 0 0 6.79901e-14 4.16681e-14 -3.69656e-13 -2.42684e-16 0 0 1.05347e-13 -1.70408e-14 -3.47914e-13 1.38209e-14 0 0 2.52017e-13 -1.67598e-13 -1.37868e-13 -1.62502e-13 0 0 1.98793e-13 -1.79388e-14 -2.49026e-13 -1.58347e-13 0 0 1.43767e-13 -5.60324e-14 -1.86849e-13 -1.4889e-13 0 0 9.15429e-14 -1.50522e-13 8.52783e-15 -2.60183e-13 0 0 -7.77026e-14 2.73766e-14 -1.08552e-13 -2.13012e-13 0 0 -8.01035e-14 1.2022e-13 -2.40276e-13 -1.51226e-13 0 0 -3.36436e-14 1.7064e-13 -4.12434e-13 -1.11109e-13 0 0 4.70803e-14 4.29444e-14 -2.52323e-13 -2.61431e-13 0 0 8.96464e-14 -2.09348e-13 6.93125e-14 -5.7477e-13 0 0 -1.978e-14 -1.44699e-13 4.19419e-14 -5.79469e-13 0 0 -1.52016e-13 -2.34841e-15 -9.94349e-14 -4.49349e-13 0 0 -1.85333e-13 4.1793e-14 -2.24592e-13 -1.66694e-13 0 0 -1.60212e-13 -3.29974e-14 -1.93473e-13 1.35429e-14 0 0 -1.47474e-13 -1.50274e-13 -6.47065e-14 9.14599e-14 0 0 -1.776e-13 -1.40465e-13 -3.23754e-14 2.36843e-14 0 0 -2.97425e-13 -4.41695e-14 -7.05752e-14 -4.52374e-14 0 0 -4.4074e-13 3.20783e-14 -1.04934e-13 -8.37557e-14 0 0 -4.35366e-13 3.8656e-14 -1.10855e-13 -1.12772e-13 0 0 -3.77339e-13 -1.12377e-14 -9.32758e-14 -1.30673e-13 0 0 -3.21276e-13 -1.7455e-13 -4.20261e-14 -1.89579e-13 0 0 -3.62136e-13 -4.22673e-13 -1.80451e-13 -2.95921e-13 0 0 -6.56778e-13 -1.07965e-12 -7.91308e-13 -6.40728e-13 0 0 -1.91279e-12 -3.22342e-12 -2.99035e-12 -1.896e-12 0 0 -6.39619e-12 -1.05148e-11 -1.04325e-11 -6.35249e-12 0 0 -2.1185e-11 -3.44914e-11 -3.46024e-11 -2.12108e-11 0 0 -6.74031e-11 -1.09475e-10 -1.09932e-10 -6.78892e-11 0 0 -2.04836e-10 -3.32648e-10 -3.34236e-10 -2.07152e-10 0 0 -5.94089e-10 -9.65628e-10 -9.71388e-10 -6.03156e-10 0 0 -1.64514e-09 -2.67793e-09 -2.69847e-09 -1.67808e-09 0 0 -4.35306e-09 -7.09935e-09 -7.16955e-09 -4.46629e-09 0 0 -1.10154e-08 -1.80072e-08 -1.82356e-08 -1.13846e-08 0 0 -2.66816e-08 -4.37426e-08 -4.44488e-08 -2.78243e-08 0 0 -6.19179e-08 -1.01864e-07 -1.03939e-07 -6.52755e-08 0 0 -1.37771e-07 -2.27606e-07 -2.33398e-07 -1.47143e-07 0 0 -2.94604e-07 -4.88599e-07 -5.03642e-07 -3.18963e-07 0 0 -6.02144e-07 -1.0057e-06 -1.0573e-06 -6.6976e-07 0 0 -1.23653e-06 -2.0749e-06 -2.08346e-06 -1.34084e-06 0 0 -2.26295e-06 -3.79083e-06 -4.0849e-06 -2.59886e-06 0 0 -4.15284e-06 -7.34419e-06 -7.87266e-06 -5.12083e-06 0 0 -7.58206e-06 -1.25686e-05 -1.28733e-05 -8.39814e-06 0 0 -1.19366e-05 -2.07401e-05 -2.30483e-05 -1.50773e-05 0 0 -1.92759e-05 -3.37599e-05 -3.7254e-05 -2.45094e-05 0 0 -2.79667e-05 -4.83795e-05 -5.09212e-05 -3.32994e-05 0 0 -3.74309e-05 -6.47838e-05 -7.03393e-05 -4.60345e-05 0 0 -4.8223e-05 -8.41277e-05 -9.18109e-05 -6.02981e-05 0 0 -5.97004e-05 -0.000103547 -0.000112448 -7.38429e-05 0 0 -7.12236e-05 -0.00012239 -0.000131198 -8.56069e-05 0 0 -8.24711e-05 -0.000139718 -0.00014732 -9.49687e-05 0 0 -9.31216e-05 -0.000154905 -0.000160437 -0.000101991 0 0 -0.000103081 -0.00016786 -0.00017034 -0.000106832 0 0 -0.000112608 -0.000179007 -0.000177043 -0.000110382 0 0 -0.000121875 -0.000189252 -0.000181352 -0.000109794 0 0 -0.000133229 -0.000199923 -0.000184239 -0.000108785 0 0 -0.000144979 -0.000213398 -0.000189973 -0.000109259 0 0 -0.000158857 -0.000232036 -0.000202257 -0.000112685 0 0 -0.00018215 -0.000255164 -0.000223076 -0.000121884 0 0 -0.000220119 -0.000300958 -0.000252003 -0.000125887 0 0 -0.000263523 -0.000374995 -0.000287435 -0.000120638 0 0 -0.000303583 -0.000469726 -0.000338727 -0.000115551 0 0 -0.000339904 -0.000603095 -0.000443409 -0.000135233 0 0 -0.000364971 -0.000751437 -0.000703007 -0.000191862 0 0 -0.000378528 -0.000937105 -0.00101597 -0.00017372 0 0 -0.000377844 -0.00110211 -0.00111749 -7.58105e-05 0 0 -0.000364187 -0.00109353 -0.00108553 -7.06248e-05 0 0 -0.000324391 -0.00101641 -0.000949692 -0.000123519 0 0 -0.000249708 -0.000816738 -0.000776251 -0.000251786 0 0 -0.000190058 -0.000651145 -0.000762524 -0.000410984 0 0 -7.59744e-05 -0.000447476 -0.000699106 -0.000680392 0 0 0.000167755 8.89247e-05 -6.33993e-05 -0.00058346 0 0 0.000211798 0.000694404 0.00113974 0.000314632 0 0 0.000184192 0.000816728 0.00135419 0.001058 0 0 0.000157356 0.000800637 0.00133869 0.00107797 0 0 0.000165488 0.000726745 0.00121116 0.000994539 0 0 0.000211464 0.000603031 0.000928613 0.000760902 0 0 0.000217418 0.000483714 0.000661366 0.000531449 0 0 0.000203758 0.000379724 0.000451794 0.000344263 0 0 0.000172529 0.000302197 0.000348361 0.000242818 0 0 0.000146382 0.000258583 0.000302902 0.00020833 0 0 0.000138568 0.000243009 0.000278425 0.000189746 0 0 0.000138867 0.000237932 0.000264943 0.000178516 0 0 0.000141356 0.00023787 0.000258099 0.000171419 0 0 0.000143858 0.00023934 0.000254703 0.000166567 0 0 0.000144863 0.000241204 0.000252258 0.000162461 0 0 0.000144588 0.000241025 0.000248984 0.000158802 0 0 0.000141891 0.00023656 0.000242967 0.000154177 0 0 0.000135562 0.000225581 0.000232455 0.000147253 0 0 0.000126521 0.000210177 0.00021667 0.00013716 0 0 0.00011446 0.000189854 0.000195517 0.000123652 0 0 9.94721e-05 0.000164716 0.00016933 0.000106943 0 0 8.20635e-05 0.000135621 0.000139103 8.76984e-05 0 0 6.32726e-05 0.000104327 0.000106719 6.71424e-05 0 0 4.46073e-05 7.33518e-05 7.47955e-05 4.69435e-05 0 0 2.81083e-05 4.60958e-05 4.68533e-05 2.9334e-05 0 0 1.54901e-05 2.53328e-05 2.56648e-05 1.60272e-05 0 0 7.27346e-06 1.18631e-05 1.19796e-05 7.46197e-06 0 0 2.89705e-06 4.71427e-06 4.7473e-06 2.95049e-06 0 0 1.00713e-06 1.6359e-06 1.64373e-06 1.0198e-06 0 0 3.19263e-07 5.17918e-07 5.19573e-07 3.21941e-07 0 0 9.61983e-08 1.55918e-07 1.56248e-07 9.6731e-08 0 0 2.8161e-08 4.56166e-08 4.56803e-08 2.82635e-08 0 0 8.0889e-09 1.30978e-08 1.31101e-08 8.10826e-09 0 0 2.28888e-09 3.70542e-09 3.70789e-09 2.29267e-09 0 0 6.38971e-10 1.03439e-09 1.03481e-09 6.40002e-10 0 0 1.76045e-10 2.85e-10 2.85129e-10 1.76487e-10 0 0 4.78426e-11 7.7415e-11 7.76542e-11 4.80939e-11 0 0 1.27746e-11 2.0755e-11 2.08374e-11 1.30601e-11 0 0 3.32267e-12 5.46264e-12 5.53048e-12 3.55738e-12 0 0 8.52742e-13 1.27915e-12 1.61534e-12 9.57893e-13 0 0 1.22876e-13 3.5347e-13 4.654e-13 2.95081e-13 0 0 4.1053e-14 -3.75509e-15 2.42546e-13 1.47435e-13 0 0 1.23799e-13 -2.73998e-13 3.58204e-13 1.02228e-13 0 0 2.99099e-14 -1.03277e-13 2.10014e-13 1.32921e-13 0 0 -4.89191e-14 4.16233e-14 1.33003e-13 1.15495e-13 0 0 -8.86489e-14 5.64685e-14 1.79763e-13 1.02668e-13 0 0 -3.08308e-14 1.19444e-14 2.18675e-13 1.88037e-13 0 0 2.04406e-14 6.74083e-14 1.69224e-13 2.50983e-13 0 0 -1.1042e-15 1.45956e-13 9.63894e-14 2.5296e-13 0 0 -3.41446e-14 1.3601e-13 7.8482e-14 2.99533e-13 0 0 -5.34828e-14 1.61894e-13 8.84462e-14 2.65889e-13 0 0 1.02869e-13 7.90625e-14 8.54085e-14 2.39601e-13 0 0 -3.96926e-14 3.46463e-13 -1.66637e-13 3.04139e-13 0 0 -8.33137e-14 3.17718e-13 8.26192e-14 2.98637e-15 0 0 2.0517e-13 2.87893e-14 2.26197e-13 2.48894e-14 0 0 1.44438e-13 1.94534e-13 -8.09212e-14 2.67793e-13 0 0 -7.20414e-15 3.33191e-13 -1.06087e-13 1.59878e-13 0 0 1.59427e-13 7.35124e-14 2.40332e-13 -1.34237e-13 0 0 2.52401e-13 2.43008e-14 2.90026e-13 -1.15448e-13 0 0 2.10253e-13 2.50595e-13 6.02651e-14 -5.7288e-14 0 0 2.72649e-13 1.23505e-13 7.66163e-14 -1.05557e-13 0 0 2.06013e-13 1.62593e-13 -1.53978e-13 1.86934e-13 0 0 1.99977e-13 7.15099e-14 -2.33517e-14 1.06145e-13 0 0 2.91601e-13 -3.52025e-13 5.6166e-13 -2.70468e-13 0 0 3.04208e-13 -4.83297e-13 6.49451e-13 -2.59556e-13 0 0 1.68074e-13 -2.88218e-13 2.31516e-13 1.39939e-13 0 0 2.17331e-13 -3.48178e-13 -2.93035e-15 4.97636e-13 0 0 3.80488e-13 -5.22771e-13 -2.00197e-14 6.0762e-13 0
				</DataArray>
				<DataArray Name="VitesseY" type="Float32" format="ascii">