<?xml version="1.0"?>
<VTKFile type="PolyData">
	<PolyData>
		<Piece NumberOfPoints="1206" NumberOfPolys="1000">
			<Points>
				<DataArray type="Float32" NumberOfComponents="3" format="ascii">
 0 0 0 0.02 0 0 0.04 0 0 0.06 0 0 0.08 0 0 0.1 0 0 0 0.005 0 0.02 0.005 0 0.04 0.005 0 0.06 0.005 0 0.08 0.005 0 0.1 0.005 0 0 0.01 0 0.02 0.01 0 0.04 0.01 0 0.06 0.01 0 0.08 0.01 0 0.1 0.01 0 0 0.015 0 0.02 0.015 0 0.04 0.015 0 0.06 0.015 0 0.08 0.015 0 0.1 0.015 0 0 0.02 0 0.02 0.02 0 0.04 0.02 0 0.06 0.02 0 0.08 0.02 0 0.1 0.02 0 0 0.025 0 0.02 0.025 0 0.04 0.025 0 0.06 0.025 0 0.08 0.025 0 0.1 0.025 0 0 0.03 0 0.02 0.03 0 0.04 0.03 0 0.06 0.03 0 0.08 0.03 0 0.1 0.03 0 0 0.035 0 0.02 0.035 0 0.04 0.035 0 0.06 0.035 0 0.08 0.035 0 0.1 0.035 0 0 0.04 0 0.02 0.04 0 0.04 0.04 0 0.06 0.04 0 0.08 0.04 0 0.1 0.04 0 0 0.045 0 0.02 0.045 0 0.04 0.045 0 0.06 0.045 0 0.08 0.045 0 0.1 0.045 0 0 0.05 0 0.02 0.05 0 0.04 0.05 0 0.06 0.05 0 0.08 0.05 0 0.1 0.05 0 0 0.055 0 0.02 0.055 0 0.04 0.055 0 0.06 0.055 0 0.08 0.055 0 0.1 0.055 0 0 0.06 0 0.02 0.06 0 0.04 0.06 0 0.06 0.06 0 0.08 0.06 0 0.1 0.06 0 0 0.065 0 0.02 0.065 0 0.04 0.065 0 0.06 0.065 0 0.08 0.065 0 0.1 0.065 0 0 0.07 0 0.02 0.07 0 0.04 0.07 0 0.06 0.07 0 0.08 0.07 0 0.1 0.07 0 0 0.075 0 0.02 0.075 0 0.04 0.075 0 0.06 0.075 0 0.08 0.075 0 0.1 0.075 0 0 0.08 0 0.02 0.08 0 0.04 0.08 0 0.06 0.08 0 0.08 0.08 0 0.1 0.08 0 0 0.085 0 0.02 0.085 0 0.04 0.085 0 0.06 0.085 0 0.08 0.085 0 0.1 0.085 0 0 0.09 0 0.02 0.09 0 0.04 0.09 0 0.06 0.09 0 0.08 0.09 0 0.1 0.09 0 0 0.095 0 0.02 0.095 0 0.04 0.095 0 0.06 0.095 0 0.08 0.095 0 0.1 0.095 0 0 0.1 0 0.02 0.1 0 0.04 0.1 0 0.06 0.1 0 0.08 0.1 0 0.1 0.1 0 0 0.105 0 0.02 0.105 0 0.04 0.105 0 0.06 0.105 0 0.08 0.105 0 0.1 0.105 0 0 0.11 0 0.02 0.11 0 0.04 0.11 0 0.06 0.11 0 0.08 0.11 0 0.1 0.11 0 0 0.115 0 0.02 0.115 0 0.04 0.115 0 0.06 0.115 0 0.08 0.115 0 0.1 0.115 0 0 0.12 0 0.02 0.12 0 0.04 0.12 0 0.06 0.12 0 0.08 0.12 0 0.1 0.12 0 0 0.125 0 0.02 0.125 0 0.04 0.125 0 0.06 0.125 0 0.08 0.125 0 0.1 0.125 0 0 0.13 0 0.02 0.13 0 0.04 0.13 0 0.06 0.13 0 0.08 0.13 0 0.1 0.13 0 0 0.135 0 0.02 0.135 0 0.04 0.135 0 0.06 0.135 0 0.08 0.135 0 0.1 0.135 0 0 0.14 0 0.02 0.14 0 0.04 0.14 0 0.06 0.14 0 0.08 0.14 0 0.1 0.14 0 0 0.145 0 0.02 0.145 0 0.04 0.145 0 0.06 0.145 0 0.08 0.145 0 0.1 0.145 0 0 0.15 0 0.02 0.15 0 0.04 0.15 0 0.06 0.15 0 0.08 0.15 0 0.1 0.15 0 0 0.155 0 0.02 0.155 0 0.04 0.155 0 0.06 0.155 0 0.08 0.155 0 0.1 0.155 0 0 0.16 0 0.02 0.16 0 0.04 0.16 0 0.06 0.16 0 0.08 0.16 0 0.1 0.16 0 0 0.165 0 0.02 0.165 0 0.04 0.165 0 0.06 0.165 0 0.08 0.165 0 0.1 0.165 0 0 0.17 0 0.02 0.17 0 0.04 0.17 0 0.06 0.17 0 0.08 0.17 0 0.1 0.17 0 0 0.175 0 0.02 0.175 0 0.04 0.175 0 0.06 0.175 0 0.08 0.175 0 0.1 0.175 0 0 0.18 0 0.02 0.18 0 0.04 0.18 0 0.06 0.18 0 0.08 0.18 0 0.1 0.18 0 0 0.185 0 0.02 0.185 0 0.04 0.185 0 0.06 0.185 0 0.08 0.185 0 0.1 0.185 0 0 0.19 0 0.02 0.19 0 0.04 0.19 0 0.06 0.19 0 0.08 0.19 0 0.1 0.19 0 0 0.195 0 0.02 0.195 0 0.04 0.195 0 0.06 0.195 0 0.08 0.195 0 0.1 0.195 0 0 0.2 0 0.02 0.2 0 0.04 0.2 0 0.06 0.2 0 0.08 0.2 0 0.1 0.2 0 0 0.205 0 0.02 0.205 0 0.04 0.205 0 0.06 0.205 0 0.08 0.205 0 0.1 0.205 0 0 0.21 0 0.02 0.21 0 0.04 0.21 0 0.06 0.21 0 0.08 0.21 0 0.1 0.21 0 0 0.215 0 0.02 0.215 0 0.04 0.215 0 0.06 0.215 0 0.08 0.215 0 0.1 0.215 0 0 0.22 0 0.02 0.22 0 0.04 0.22 0 0.06 0.22 0 0.08 0.22 0 0.1 0.22 0 0 0.225 0 0.02 0.225 0 0.04 0.225 0 0.06 0.225 0 0.08 0.225 0 0.1 0.225 0 0 0.23 0 0.02 0.23 0 0.04 0.23 0 0.06 0.23 0 0.08 0.23 0 0.1 0.23 0 0 0.235 0 0.02 0.235 0 0.04 0.235 0 0.06 0.235 0 0.08 0.235 0 0.1 0.235 0 0 0.24 0 0.02 0.24 0 0.04 0.24 0 0.06 0.24 0 0.08 0.24 0 0.1 0.24 0 0 0.245 0 0.02 0.245 0 0.04 0.245 0 0.06 0.245 0 0.08 0.245 0 0.1 0.245 0 0 0.25 0 0.02 0.25 0 0.04 0.25 0 0.06 0.25 0 0.08 0.25 0 0.1 0.25 0 0 0.255 0 0.02 0.255 0 0.04 0.255 0 0.06 0.255 0 0.08 0.255 0 0.1 0.255 0 0 0.26 0 0.02 0.26 0 0.04 0.26 0 0.06 0.26 0 0.08 0.26 0 0.1 0.26 0 0 0.265 0 0.02 0.265 0 0.04 0.265 0 0.06 0.265 0 0.08 0.265 0 0.1 0.265 0 0 0.27 0 0.02 0.27 0 0.04 0.27 0 0.06 0.27 0 0.08 0.27 0 0.1 0.27 0 0 0.275 0 0.02 0.275 0 0.04 0.275 0 0.06 0.275 0 0.08 0.275 0 0.1 0.275 0 0 0.28 0 0.02 0.28 0 0.04 0.28 0 0.06 0.28 0 0.08 0.28 0 0.1 0.28 0 0 0.285 0 0.02 0.285 0 0.04 0.285 0 0.06 0.285 0 0.08 0.285 0 0.1 0.285 0 0 0.29 0 0.02 0.29 0 0.04 0.29 0 0.06 0.29 0 0.08 0.29 0 0.1 0.29 0 0 0.295 0 0.02 0.295 0 0.04 0.295 0 0.06 0.295 0 0.08 0.295 0 0.1 0.295 0 0 0.3 0 0.02 0.3 0 0.04 0.3 0 0.06 0.3 0 0.08 0.3 0 0.1 0.3 0 0 0.305 0 0.02 0.305 0 0.04 0.305 0 0.06 0.305 0 0.08 0.305 0 0.1 0.305 0 0 0.31 0 0.02 0.31 0 0.04 0.31 0 0.06 0.31 0 0.08 0.31 0 0.1 0.31 0 0 0.315 0 0.02 0.315 0 0.04 0.315 0 0.06 0.315 0 0.08 0.315 0 0.1 0.315 0 0 0.32 0 0.02 0.32 0 0.04 0.32 0 0.06 0.32 0 0.08 0.32 0 0.1 0.32 0 0 0.325 0 0.02 0.325 0 0.04 0.325 0 0.06 0.325 0 0.08 0.325 0 0.1 0.325 0 0 0.33 0 0.02 0.33 0 0.04 0.33 0 0.06 0.33 0 0.08 0.33 0 0.1 0.33 0 0 0.335 0 0.02 0.335 0 0.04 0.335 0 0.06 0.335 0 0.08 0.335 0 0.1 0.335 0 0 0.34 0 0.02 0.34 0 0.04 0.34 0 0.06 0.34 0 0.08 0.34 0 0.1 0.34 0 0 0.345 0 0.02 0.345 0 0.04 0.345 0 0.06 0.345 0 0.08 0.345 0 0.1 0.345 0 0 0.35 0 0.02 0.35 0 0.04 0.35 0 0.06 0.35 0 0.08 0.35 0 0.1 0.35 0 0 0.355 0 0.02 0.355 0 0.04 0.355 0 0.06 0.355 0 0.08 0.355 0 0.1 0.355 0 0 0.36 0 0.02 0.36 0 0.04 0.36 0 0.06 0.36 0 0.08 0.36 0 0.1 0.36 0 0 0.365 0 0.02 0.365 0 0.04 0.365 0 0.06 0.365 0 0.08 0.365 0 0.1 0.365 0 0 0.37 0 0.02 0.37 0 0.04 0.37 0 0.06 0.37 0 0.08 0.37 0 0.1 0.37 0 0 0.375 0 0.02 0.375 0 0.04 0.375 0 0.06 0.375 0 0.08 0.375 0 0.1 0.375 0 0 0.38 0 0.02 0.38 0 0.04 0.38 0 0.06 0.38 0 0.08 0.38 0 0.1 0.38 0 0 0.385 0 0.02 0.385 0 0.04 0.385 0 0.06 0.385 0 0.08 0.385 0 0.1 0.385 0 0 0.39 0 0.02 0.39 0 0.04 0.39 0 0.06 0.39 0 0.08 0.39 0 0.1 0.39 0 0 0.395 0 0.02 0.395 0 0.04 0.395 0 0.06 0.395 0 0.08 0.395 0 0.1 0.395 0 0 0.4 0 0.02 0.4 0 0.04 0.4 0 0.06 0.4 0 0.08 0.4 0 0.1 0.4 0 0 0.405 0 0.02 0.405 0 0.04 0.405 0 0.06 0.405 0 0.08 0.405 0 0.1 0.405 0 0 0.41 0 0.02 0.41 0 0.04 0.41 0 0.06 0.41 0 0.08 0.41 0 0.1 0.41 0 0 0.415 0 0.02 0.415 0 0.04 0.415 0 0.06 0.415 0 0.08 0.415 0 0.1 0.415 0 0 0.42 0 0.02 0.42 0 0.04 0.42 0 0.06 0.42 0 0.08 0.42 0 0.1 0.42 0 0 0.425 0 0.02 0.425 0 0.04 0.425 0 0.06 0.425 0 0.08 0.425 0 0.1 0.425 0 0 0.43 0 0.02 0.43 0 0.04 0.43 0 0.06 0.43 0 0.08 0.43 0 0.1 0.43 0 0 0.435 0 0.02 0.435 0 0.04 0.435 0 0.06 0.435 0 0.08 0.435 0 0.1 0.435 0 0 0.44 0 0.02 0.44 0 0.04 0.44 0 0.06 0.44 0 0.08 0.44 0 0.1 0.44 0 0 0.445 0 0.02 0.445 0 0.04 0.445 0 0.06 0.445 0 0.08 0.445 0 0.1 0.445 0 0 0.45 0 0.02 0.45 0 0.04 0.45 0 0.06 0.45 0 0.08 0.45 0 0.1 0.45 0 0 0.455 0 0.02 0.455 0 0.04 0.455 0 0.06 0.455 0 0.08 0.455 0 0.1 0.455 0 0 0.46 0 0.02 0.46 0 0.04 0.46 0 0.06 0.46 0 0.08 0.46 0 0.1 0.46 0 0 0.465 0 0.02 0.465 0 0.04 0.465 0 0.06 0.465 0 0.08 0.465 0 0.1 0.465 0 0 0.47 0 0.02 0.47 0 0.04 0.47 0 0.06 0.47 0 0.08 0.47 0 0.1 0.47 0 0 0.475 0 0.02 0.475 0 0.04 0.475 0 0.06 0.475 0 0.08 0.475 0 0.1 0.475 0 0 0.48 0 0.02 0.48 0 0.04 0.48 0 0.06 0.48 0 0.08 0.48 0 0.1 0.48 0 0 0.485 0 0.02 0.485 0 0.04 0.485 0 0.06 0.485 0 0.08 0.485 0 0.1 0.485 0 0 0.49 0 0.02 0.49 0 0.04 0.49 0 0.06 0.49 0 0.08 0.49 0 0.1 0.49 0 0 0.495 0 0.02 0.495 0 0.04 0.495 0 0.06 0.495 0 0.08 0.495 0 0.1 0.495 0 0 0.5 0 0.02 0.5 0 0.04 0.5 0 0.06 0.5 0 0.08 0.5 0 0.1 0.5 0 0 0.505 0 0.02 0.505 0 0.04 0.505 0 0.06 0.505 0 0.08 0.505 0 0.1 0.505 0 0 0.51 0 0.02 0.51 0 0.04 0.51 0 0.06 0.51 0 0.08 0.51 0 0.1 0.51 0 0 0.515 0 0.02 0.515 0 0.04 0.515 0 0.06 0.515 0 0.08 0.515 0 0.1 0.515 0 0 0.52 0 0.02 0.52 0 0.04 0.52 0 0.06 0.52 0 0.08 0.52 0 0.1 0.52 0 0 0.525 0 0.02 0.525 0 0.04 0.525 0 0.06 0.525 0 0.08 0.525 0 0.1 0.525 0 0 0.53 0 0.02 0.53 0 0.04 0.53 0 0.06 0.53 0 0.08 0.53 0 0.1 0.53 0 0 0.535 0 0.02 0.535 0 0.04 0.535 0 0.06 0.535 0 0.08 0.535 0 0.1 0.535 0 0 0.54 0 0.02 0.54 0 0.04 0.54 0 0.06 0.54 0 0.08 0.54 0 0.1 0.54 0 0 0.545 0 0.02 0.545 0 0.04 0.545 0 0.06 0.545 0 0.08 0.545 0 0.1 0.545 0 0 0.55 0 0.02 0.55 0 0.04 0.55 0 0.06 0.55 0 0.08 0.55 0 0.1 0.55 0 0 0.555 0 0.02 0.555 0 0.04 0.555 0 0.06 0.555 0 0.08 0.555 0 0.1 0.555 0 0 0.56 0 0.02 0.56 0 0.04 0.56 0 0.06 0.56 0 0.08 0.56 0 0.1 0.56 0 0 0.565 0 0.02 0.565 0 0.04 0.565 0 0.06 0.565 0 0.08 0.565 0 0.1 0.565 0 0 0.57 0 0.02 0.57 0 0.04 0.57 0 0.06 0.57 0 0.08 0.57 0 0.1 0.57 0 0 0.575 0 0.02 0.575 0 0.04 0.575 0 0.06 0.575 0 0.08 0.575 0 0.1 0.575 0 0 0.58 0 0.02 0.58 0 0.04 0.58 0 0.06 0.58 0 0.08 0.58 0 0.1 0.58 0 0 0.585 0 0.02 0.585 0 0.04 0.585 0 0.06 0.585 0 0.08 0.585 0 0.1 0.585 0 0 0.59 0 0.02 0.59 0 0.04 0.59 0 0.06 0.59 0 0.08 0.59 0 0.1 0.59 0 0 0.595 0 0.02 0.595 0 0.04 0.595 0 0.06 0.595 0 0.08 0.595 0 0.1 0.595 0 0 0.6 0 0.02 0.6 0 0.04 0.6 0 0.06 0.6 0 0.08 0.6 0 0.1 0.6 0 0 0.605 0 0.02 0.605 0 0.04 0.605 0 0.06 0.605 0 0.08 0.605 0 0.1 0.605 0 0 0.61 0 0.02 0.61 0 0.04 0.61 0 0.06 0.61 0 0.08 0.61 0 0.1 0.61 0 0 0.615 0 0.02 0.615 0 0.04 0.615 0 0.06 0.615 0 0.08 0.615 0 0.1 0.615 0 0 0.62 0 0.02 0.62 0 0.04 0.62 0 0.06 0.62 0 0.08 0.62 0 0.1 0.62 0 0 0.625 0 0.02 0.625 0 0.04 0.625 0 0.06 0.625 0 0.08 0.625 0 0.1 0.625 0 0 0.63 0 0.02 0.63 0 0.04 0.63 0 0.06 0.63 0 0.08 0.63 0 0.1 0.63 0 0 0.635 0 0.02 0.635 0 0.04 0.635 0 0.06 0.635 0 0.08 0.635 0 0.1 0.635 0 0 0.64 0 0.02 0.64 0 0.04 0.64 0 0.06 0.64 0 0.08 0.64 0 0.1 0.64 0 0 0.645 0 0.02 0.645 0 0.04 0.645 0 0.06 0.645 0 0.08 0.645 0 0.1 0.645 0 0 0.65 0 0.02 0.65 0 0.04 0.65 0 0.06 0.65 0 0.08 0.65 0 0.1 0.65 0 0 0.655 0 0.02 0.655 0 0.04 0.655 0 0.06 0.655 0 0.08 0.655 0 0.1 0.655 0 0 0.66 0 0.02 0.66 0 0.04 0.66 0 0.06 0.66 0 0.08 0.66 0 0.1 0.66 0 0 0.665 0 0.02 0.665 0 0.04 0.665 0 0.06 0.665 0 0.08 0.665 0 0.1 0.665 0 0 0.67 0 0.02 0.67 0 0.04 0.67 0 0.06 0.67 0 0.08 0.67 0 0.1 0.67 0 0 0.675 0 0.02 0.675 0 0.04 0.675 0 0.06 0.675 0 0.08 0.675 0 0.1 0.675 0 0 0.68 0 0.02 0.68 0 0.04 0.68 0 0.06 0.68 0 0.08 0.68 0 0.1 0.68 0 0 0.685 0 0.02 0.685 0 0.04 0.685 0 0.06 0.685 0 0.08 0.685 0 0.1 0.685 0 0 0.69 0 0.02 0.69 0 0.04 0.69 0 0.06 0.69 0 0.08 0.69 0 0.1 
[...]
			<PointData Scalars="VitesseX">
				<DataArray Name="VitesseX" type="Float32" format="ascii">
 0 1.08397e-14 -7.73336e-15 2.26496e-14 2.99545e-14 0 0 4.6859e-15 1.30564e-15 1.79385e-14 3.19093e-14 0 0 -2.7841e-15 1.07852e-14 1.82807e-14 3.06617e-14 0 0 -7.70381e-15 1.50263e-14 2.64762e-14 2.46255e-14 0 0 -1.21166e-14 1.68753e-14 3.54947e-14 1.93741e-14 0 0 -1.70757e-14 2.57717e-14 3.39296e-14 1.72821e-14 0 0 4.64762e-15 2.76051e-15 5.80523e-14 -4.89927e-15 0 0 1.04362e-14 -4.75188e-15 6.23104e-14 -2.43068e-15 0 0 -3.30617e-15 8.81157e-15 4.79605e-14 1.64158e-14 0 0 4.87011e-15 -4.79954e-16 4.18169e-14 3.20171e-14 0 0 -2.38699e-15 1.55822e-14 1.38788e-14 5.36162e-14 0 0 -4.619e-15 1.21837e-14 2.63616e-14 4.07912e-14 0 0 1.38425e-14 -2.03273e-14 7.05195e-14 1.41381e-14 0 0 2.27418e-14 -1.82308e-14 6.30835e-14 2.3911e-14 0 0 9.40892e-15 1.14149e-14 4.59143e-14 2.92662e-14 0 0 -1.13532e-14 5.33201e-14 2.55528e-14 2.63592e-14 0 0 1.15446e-14 3.42212e-14 4.91733e-14 -6.36077e-15 0 0 2.49206e-15 5.8552e-14 2.47191e-14 -3.06636e-15 0 0 1.93983e-14 3.23431e-14 3.6669e-14 -9.36788e-15 0 0 1.38615e-14 1.73892e-14 6.20026e-14 -4.49931e-14 0 0 -4.09384e-15 2.51281e-14 7.71926e-14 -7.58018e-14 0 0 3.02104e-14 -1.61581e-14 9.52208e-14 -7.88752e-14 0 0 1.54184e-14 4.39456e-14 -2.89955e-14 1.69993e-14 0 0 -2.65657e-14 1.17611e-13 -1.40155e-13 1.05558e-13 0 0 2.10214e-14 -3.58377e-15 5.64366e-15 2.91214e-14 0 0 7.10932e-14 -1.19622e-13 1.5892e-13 -6.28043e-14 0 0 -2.05732e-14 1.8324e-14 3.44641e-14 1.88394e-14 0 0 -2.7269e-14 4.84303e-14 1.3781e-14 2.8668e-14 0 0 3.58667e-14 -3.26801e-14 1.02105e-13 -1.51372e-14 0 0 1.33417e-14 1.93475e-14 4.45043e-14 4.86166e-14 0 0 -1.26211e-14 8.78039e-14 -1.19168e-14 9.50426e-14 0 0 3.00203e-15 4.24379e-14 8.23762e-14 3.84812e-14 0 0 -1.35023e-14 5.76193e-14 9.9439e-14 2.29138e-14 0 0 2.44935e-15 9.33409e-14 3.43335e-14 6.25889e-14 0 0 4.52593e-14 5.52606e-14 7.17122e-14 2.05591e-14 0 0 8.48387e-14 -2.83792e-14 1.82018e-13 -6.56323e-14 0 0 3.26718e-14 4.80167e-14 1.05048e-13 -1.2402e-14 0 0 -1.24673e-14 9.23818e-14 4.76254e-14 5.44987e-14 0 0 -2.96692e-14 6.38422e-14 3.92317e-14 1.36147e-13 0 0 -4.38985e-14 3.48074e-14 7.27507e-14 1.23317e-13 0 0 -4.15294e-14 2.1411e-14 1.35522e-13 1.52276e-14 0 0 -1.16736e-13 1.54844e-13 5.2386e-15 7.1148e-14 0 0 -8.55606e-14 1.22803e-13 8.29905e-15 8.3483e-14 0 0 1.4515e-14 -2.69441e-15 1.21593e-13 3.03007e-15 0 0 1.81478e-14 -2.70441e-14 1.57881e-13 -4.84717e-14 0 0 -9.19109e-14 1.17786e-13 3.9971e-15 2.28037e-14 0 0 -1.14247e-13 1.91689e-13 -1.6024e-13 1.58017e-13 0 0 -1.90794e-14 1.11533e-13 -1.26498e-13 1.64352e-13 0 0 8.19005e-14 -2.43658e-15 1.36961e-14 4.68697e-14 0 0 1.38775e-13 -1.23049e-13 1.92877e-13 -6.42015e-14 0 0 1.80304e-13 -2.50837e-13 3.84118e-13 -1.49978e-13 0 0 1.25135e-13 -1.45118e-13 2.9064e-13 -9.51018e-14 0 0 9.01795e-15 1.34982e-13 -4.14638e-15 6.3166e-14 0 0 -9.70704e-14 3.34482e-13 -1.60035e-13 1.42848e-13 0 0 1.23851e-14 1.31497e-13 1.38325e-13 -7.32855e-14 0 0 2.1447e-13 -1.68489e-13 3.94893e-13 -1.79636e-13 0 0 3.33782e-14 6.76382e-14 1.14604e-13 7.29165e-14 0 0 8.68662e-16 7.1379e-14 1.06898e-13 1.03115e-13 0 0 1.98864e-14 7.81904e-14 1.62942e-13 2.74174e-14 0 0 3.03176e-14 1.04475e-13 1.89472e-13 -1.17114e-14 0 0 6.04199e-14 1.13534e-13 1.4348e-13 1.14432e-13 0 0 -2.56182e-14 2.57167e-13 3.68457e-14 2.76315e-13 0 0 1.89935e-15 9.20774e-14 2.87207e-13 1.56426e-13 0 0 -1.02225e-13 1.43847e-13 3.74935e-13 6.68445e-14 0 0 -1.6694e-14 1.41102e-13 3.33232e-13 8.14005e-14 0 0 8.5633e-14 4.43364e-14 3.44016e-13 2.61981e-14 0 0 -1.79514e-13 3.13047e-13 1.73231e-13 3.00099e-14 0 0 -1.71683e-13 1.56413e-13 3.9591e-13 -7.69665e-14 0 0 -4.94659e-14 -1.71191e-14 5.78002e-13 -9.72155e-14 0 0 -6.35038e-14 1.60338e-13 3.19094e-13 1.26183e-13 0 0 -2.74992e-14 1.13554e-13 2.32613e-13 2.31983e-13 0 0 4.12329e-16 1.07569e-13 1.5255e-13 2.20933e-13 0 0 3.39519e-13 -2.47684e-13 3.95211e-13 -3.58527e-15 0 0 3.24942e-13 -1.9528e-13 4.12248e-13 -3.99791e-14 0 0 3.45659e-14 1.13677e-13 2.76466e-13 4.99531e-14 0 0 -2.55653e-14 1.67749e-13 1.50113e-13 2.63676e-13 0 0 -2.65302e-14 2.27987e-13 6.95544e-14 3.13459e-13 0 0 2.55857e-13 -2.32228e-13 7.20959e-13 -2.78705e-13 0 0 2.21036e-13 -1.22395e-13 6.45411e-13 -4.44352e-13 0 0 1.91336e-13 1.26812e-13 2.48087e-13 -2.72951e-13 0 0 4.26207e-13 -2.02743e-13 3.83148e-13 -2.16564e-13 0 0 3.85915e-13 -8.09148e-14 7.75218e-14 6.87723e-14 0 0 2.18742e-13 1.14968e-13 -1.18265e-13 2.09405e-13 0 0 1.16631e-13 1.59703e-13 -1.95248e-13 3.83052e-13 0 0 1.37288e-13 4.43919e-14 -4.17433e-14 3.14539e-13 0 0 1.93208e-13 -2.8917e-13 3.8791e-13 1.20338e-13 0 0 2.13415e-13 -4.87916e-13 7.1003e-13 -1.2185e-13 0 0 1.23461e-13 -4.51577e-13 6.54593e-13 -6.31275e-14 0 0 -1.40586e-13 -1.49595e-13 4.11914e-13 1.26204e-13 0 0 -2.79457e-13 2.02561e-13 1.71866e-14 2.84353e-13 0 0 -2.80713e-13 2.34623e-13 -1.66905e-13 3.40243e-13 0 0 -1.55603e-13 4.63037e-14 -3.12899e-13 2.25896e-13 0 0 -5.83474e-13 -1.08036e-12 -1.19607e-12 -4.17105e-13 0 0 -3.82555e-12 -6.89848e-12 -6.6999e-12 -3.96999e-12 0 0 -2.19281e-11 -3.68094e-11 -3.66536e-11 -2.2766e-11 0 0 -1.10299e-10 -1.81492e-10 -1.83437e-10 -1.14622e-10 0 0 -5.00217e-10 -8.22613e-10 -8.37908e-10 -5.2566e-10 0 0 -2.06295e-09 -3.4096e-09 -3.49819e-09 -2.2062e-09 0 0 -7.74942e-09 -1.29057e-08 -1.336e-08 -8.48371e-09 0 0 -2.6525e-08 -4.4621e-08 -4.6726e-08 -2.99299e-08 0 0 -8.27749e-08 -1.4108e-07 -1.49907e-07 -9.70573e-08 0 0 -2.35753e-07 -4.08621e-07 -4.42143e-07 -2.89992e-07 0 0 -6.13748e-07 -1.08665e-06 -1.20197e-06 -8.0034e-07 0 0 -1.4633e-06 -2.6601e-06 -3.0194e-06 -2.04462e-06 0 0 -3.22354e-06 -6.00943e-06 -7.0232e-06 -4.83914e-06 0 0 -6.59208e-06 -1.27731e-05 -1.56142e-05 -1.11294e-05 0 0 -1.27481e-05 -2.53951e-05 -3.11656e-05 -2.22076e-05 0 0 -2.11389e-05 -4.33413e-05 -5.1469e-05 -3.63439e-05 0 0 -3.09422e-05 -6.48687e-05 -8.91575e-05 -6.50379e-05 0 0 -4.21514e-05 -9.69683e-05 -0.000128806 -9.61981e-05 0 0 -5.42957e-05 -0.000129746 -0.000171589 -0.000127154 0 0 -6.5692e-05 -0.000168122 -0.000235823 -0.000173399 0 0 -7.42929e-05 -0.000207165 -0.000306404 -0.000228909 0 0 -8.01569e-05 -0.000240693 -0.000373028 -0.000283713 0 0 -8.78213e-05 -0.000266738 -0.000425648 -0.00033063 0 0 -9.04182e-05 -0.00031605 -0.000457563 -0.000359298 0 0 -8.27943e-05 -0.000356443 -0.000516715 -0.000397011 0 0 -4.25898e-05 -0.000352032 -0.000677256 -0.000502928 0 0 6.6292e-05 -0.000304112 -0.000927448 -0.000721703 0 0 0.00010513 -0.000175486 -0.00109536 -0.000927814 0 0 9.56463e-05 -0.000128728 -0.00107615 -0.000931843 0 0 9.18802e-05 -0.000146216 -0.000966228 -0.000855989 0 0 6.86658e-05 -0.000194545 -0.000739677 -0.000627819 0 0 3.71398e-06 -0.000231152 -0.000580349 -0.00040148 0 0 -0.000150585 -0.000366362 -0.000482648 -0.000371647 0 0 -0.000388875 -0.000497276 -0.000132559 -0.000238815 0 0 -0.000458575 -0.000239753 0.0009105 0.000585902 0 0 -0.000411109 0.000235898 0.00123275 0.00101917 0 0 -0.000252174 0.000411261 0.00119068 0.000991675 0 0 -7.23934e-05 0.000435213 0.00101641 0.000857104 0 0 6.66466e-05 0.000433782 0.000814407 0.000674556 0 0 0.000104329 0.000402996 0.000648521 0.000522278 0 0 0.000115801 0.000353982 0.000527997 0.000412922 0 0 0.000123435 0.000310801 0.000438586 0.000331671 0 0 0.000126028 0.000271953 0.000361466 0.000262646 0 0 0.000121897 0.00023417 0.000291786 0.000205103 0 0 0.000105498 0.000196901 0.000233661 0.000161922 0 0 8.72424e-05 0.00016163 0.000187256 0.000129291 0 0 7.10902e-05 0.000129462 0.000147629 0.00010093 0 0 5.62853e-05 0.000100174 0.000111912 7.51478e-05 0 0 4.20341e-05 7.34136e-05 8.02753e-05 5.30149e-05 0 0 2.8886e-05 4.97713e-05 5.3527e-05 3.49605e-05 0 0 1.79052e-05 3.04768e-05 3.23359e-05 2.09213e-05 0 0 9.75582e-06 1.64052e-05 1.71732e-05 1.09982e-05 0 0 4.52227e-06 7.52248e-06 7.77622e-06 4.93266e-06 0 0 1.74541e-06 2.87917e-06 2.94736e-06 1.85573e-06 0 0 5.65963e-07 9.27513e-07 9.42047e-07 5.8948e-07 0 0 1.59476e-07 2.60153e-07 2.62766e-07 1.63704e-07 0 0 4.12702e-08 6.71243e-08 6.75546e-08 4.19658e-08 0 0 1.01504e-08 1.6478e-08 1.65447e-08 1.02586e-08 0 0 2.41357e-09 3.91344e-09 3.92358e-09 2.42992e-09 0 0 5.58792e-10 9.05454e-10 9.07125e-10 5.61347e-10 0 0 1.26361e-10 2.04697e-10 2.05216e-10 1.26916e-10 0 0 2.79913e-11 4.53979e-11 4.5749e-11 2.82957e-11 0 0 6.15471e-12 1.0083e-11 1.02909e-11 6.36703e-12 0 0 1.48277e-12 2.39123e-12 2.63092e-12 1.54791e-12 0 0 4.75989e-13 8.52958e-13 8.6545e-13 7.17304e-13 0 0 3.4551e-13 4.95666e-13 5.41022e-13 5.54e-13 0 0 4.07239e-13 3.73992e-13 5.69589e-13 3.39664e-13 0 0 4.91375e-13 2.7685e-13 6.68875e-13 1.9544e-13 0 0 3.23837e-13 5.76154e-13 4.28066e-13 3.09341e-13 0 0 3.12131e-13 7.22336e-13 3.59961e-13 1.995e-13 0 0 4.59029e-13 5.62748e-13 5.92851e-13 6.60642e-15 0 0 4.70323e-13 6.69629e-13 3.57935e-13 3.18239e-13 0 0 5.62062e-13 5.95698e-13 4.26332e-13 3.16906e-13 0 0 5.23088e-13 5.99089e-13 6.09631e-13 9.12494e-14 0 0 4.51034e-13 7.02015e-13 5.23187e-13 1.61294e-13 0 0 4.52729e-13 7.97033e-13 3.01963e-13 4.18111e-13 0 0 3.30471e-13 9.95352e-13 1.88434e-13 4.6951e-13 0 0 3.68735e-13 8.94482e-13 3.69847e-13 3.22127e-13 0 0 6.02558e-13 5.9746e-13 5.46655e-13 3.03792e-13 0 0 6.42726e-13 6.41563e-13 6.11621e-13 1.92286e-13 0 0 6.76397e-13 6.66207e-13 6.99474e-13 8.83301e-14 0 0 4.39282e-13 8.86267e-13 4.97641e-13 2.19612e-13 0 0 3.42343e-13 8.96715e-13 4.69129e-13 2.31683e-13 0 0 3.32897e-13 8.72525e-13 4.00091e-13 2.74691e-13 0 0 2.97287e-13 9.07099e-13 3.46948e-13 2.21517e-13 0 0 5.61828e-13 6.14274e-13 5.44934e-13 1.46706e-13 0 0 5.39518e-13 7.17836e-13 3.27307e-13 3.5566e-13 0 0 5.57694e-13 7.18366e-13 2.13397e-13 4.58804e-13 0 0 5.79701e-13 6.26457e-13 2.91237e-13 4.65506e-13 0 0 4.41596e-13 7.53854e-13 3.66737e-13 3.253e-13 0 0 4.87069e-13 6.92311e-13 5.07678e-13 1.94142e-13 0 0 4.52959e-13 6.60533e-13 3.65523e-13 5.05345e-13 0 0 3.52105e-13 6.49135e-13 3.04205e-13 5.91064e-13 0 0 5.35133e-13 3.53173e-13 6.18815e-13 2.6362e-13 0 0 4.04184e-13 5.99232e-13 4.68063e-13 2.59467e-13 0 0 2.05212e-13 8.23949e-13 3.7711e-13 3.40926e-13 0 0 2.46213e-13 6.90516e-13 6.33645e-13 2.15999e-13 0 0 2.37809e-13 5.71551e-13 9.19361e-13 -6.50937e-14 0 0 2.5367e-13 5.61486e-13 8.79654e-13 -1.42738e-13 0 0 8.88424e-14 8.75842e-13 2.67145e-13 3.82417e-13 0 0 2.19918e-13 5.72217e-13 4.76308e-13 3.59188e-13 0 0 3.343e-13 3.62439e-13 8.32604e-13 1.9441e-14 0 0 1.02961e-13 7.42301e-13 6.89478e-13 -8.38819e-14 0 0 3.43351e-14 8.17453e-13 7.85784e-13 -2.31858e-13 0 0 1.06581e-13 6.2714e-13 8.92976e-13 -2.17069e-13 0 0 4.03244e-13 1.36202e-13 1.33501e-12 -4.59818e-13 0 0 3.12185e-13 3.24344e-13 1.15092e-12 -3.15445e-13 0 0 -1.14923e-14 7.76055e-13 8.95339e-13 -2.26755e-13 0 0 -3.3095e-14 7.17816e-13 1.16096e-12 -4.77276e-13 0
				</DataArray>
				<DataArray Name="VitesseY" type="Float32" format="ascii">