<?xml version="1.0"?>
<VTKFile type="PolyData">
	<PolyData>
		<Piece NumberOfPoints="1206" NumberOfPolys="1000">
			<Points>
				<DataArray type="Float32" NumberOfComponents="3" format="ascii">
 0 0 0 0.02 0 0 0.04 0 0 0.06 0 0 0.08 0 0 0.1 0 0 0 0.005 0 0.02 0.005 0 0.04 0.005 0 0.06 0.005 0 0.08 0.005 0 0.1 0.005 0 0 0.01 0 0.02 0.01 0 0.04 0.01 0 0.06 0.01 0 0.08 0.01 0 0.1 0.01 0 0 0.015 0 0.02 0.015 0 0.04 0.015 0 0.06 0.015 0 0.08 0.015 0 0.1 0.015 0 0 0.02 0 0.02 0.02 0 0.04 0.02 0 0.06 0.02 0 0.08 0.02 0 0.1 0.02 0 0 0.025 0 0.02 0.025 0 0.04 0.025 0 0.06 0.025 0 0.08 0.025 0 0.1 0.025 0 0 0.03 0 0.02 0.03 0 0.04 0.03 0 0.06 0.03 0 0.08 0.03 0 0.1 0.03 0 0 0.035 0 0.02 0.035 0 0.04 0.035 0 0.06 0.035 0 0.08 0.035 0 0.1 0.035 0 0 0.04 0 0.02 0.04 0 0.04 0.04 0 0.06 0.04 0 0.08 0.04 0 0.1 0.04 0 0 0.045 0 0.02 0.045 0 0.04 0.045 0 0.06 0.045 0 0.08 0.045 0 0.1 0.045 0 0 0.05 0 0.02 0.05 0 0.04 0.05 0 0.06 0.05 0 0.08 0.05 0 0.1 0.05 0 0 0.055 0 0.02 0.055 0 0.04 0.055 0 0.06 0.055 0 0.08 0.055 0 0.1 0.055 0 0 0.06 0 0.02 0.06 0 0.04 0.06 0 0.06 0.06 0 0.08 0.06 0 0.1 0.06 0 0 0.065 0 0.02 0.065 0 0.04 0.065 0 0.06 0.065 0 0.08 0.065 0 0.1 0.065 0 0 0.07 0 0.02 0.07 0 0.04 0.07 0 0.06 0.07 0 0.08 0.07 0 0.1 0.07 0 0 0.075 0 0.02 0.075 0 0.04 0.075 0 0.06 0.075 0 0.08 0.075 0 0.1 0.075 0 0 0.08 0 0.02 0.08 0 0.04 0.08 0 0.06 0.08 0 0.08 0.08 0 0.1 0.08 0 0 0.085 0 0.02 0.085 0 0.04 0.085 0 0.06 0.085 0 0.08 0.085 0 0.1 0.085 0 0 0.09 0 0.02 0.09 0 0.04 0.09 0 0.06 0.09 0 0.08 0.09 0 0.1 0.09 0 0 0.095 0 0.02 0.095 0 0.04 0.095 0 0.06 0.095 0 0.08 0.095 0 0.1 0.095 0 0 0.1 0 0.02 0.1 0 0.04 0.1 0 0.06 0.1 0 0.08 0.1 0 0.1 0.1 0 0 0.105 0 0.02 0.105 0 0.04 0.105 0 0.06 0.105 0 0.08 0.105 0 0.1 0.105 0 0 0.11 0 0.02 0.11 0 0.04 0.11 0 0.06 0.11 0 0.08 0.11 0 0.1 0.11 0 0 0.115 0 0.02 0.115 0 0.04 0.115 0 0.06 0.115 0 0.08 0.115 0 0.1 0.115 0 0 0.12 0 0.02 0.12 0 0.04 0.12 0 0.06 0.12 0 0.08 0.12 0 0.1 0.12 0 0 0.125 0 0.02 0.125 0 0.04 0.125 0 0.06 0.125 0 0.08 0.125 0 0.1 0.125 0 0 0.13 0 0.02 0.13 0 0.04 0.13 0 0.06 0.13 0 0.08 0.13 0 0.1 0.13 0 0 0.135 0 0.02 0.135 0 0.04 0.135 0 0.06 0.135 0 0.08 0.135 0 0.1 0.135 0 0 0.14 0 0.02 0.14 0 0.04 0.14 0 0.06 0.14 0 0.08 0.14 0 0.1 0.14 0 0 0.145 0 0.02 0.145 0 0.04 0.145 0 0.06 0.145 0 0.08 0.145 0 0.1 0.145 0 0 0.15 0 0.02 0.15 0 0.04 0.15 0 0.06 0.15 0 0.08 0.15 0 0.1 0.15 0 0 0.155 0 0.02 0.155 0 0.04 0.155 0 0.06 0.155 0 0.08 0.155 0 0.1 0.155 0 0 0.16 0 0.02 0.16 0 0.04 0.16 0 0.06 0.16 0 0.08 0.16 0 0.1 0.16 0 0 0.165 0 0.02 0.165 0 0.04 0.165 0 0.06 0.165 0 0.08 0.165 0 0.1 0.165 0 0 0.17 0 0.02 0.17 0 0.04 0.17 0 0.06 0.17 0 0.08 0.17 0 0.1 0.17 0 0 0.175 0 0.02 0.175 0 0.04 0.175 0 0.06 0.175 0 0.08 0.175 0 0.1 0.175 0 0 0.18 0 0.02 0.18 0 0.04 0.18 0 0.06 0.18 0 0.08 0.18 0 0.1 0.18 0 0 0.185 0 0.02 0.185 0 0.04 0.185 0 0.06 0.185 0 0.08 0.185 0 0.1 0.185 0 0 0.19 0 0.02 0.19 0 0.04 0.19 0 0.06 0.19 0 0.08 0.19 0 0.1 0.19 0 0 0.195 0 0.02 0.195 0 0.04 0.195 0 0.06 0.195 0 0.08 0.195 0 0.1 0.195 0 0 0.2 0 0.02 0.2 0 0.04 0.2 0 0.06 0.2 0 0.08 0.2 0 0.1 0.2 0 0 0.205 0 0.02 0.205 0 0.04 0.205 0 0.06 0.205 0 0.08 0.205 0 0.1 0.205 0 0 0.21 0 0.02 0.21 0 0.04 0.21 0 0.06 0.21 0 0.08 0.21 0 0.1 0.21 0 0 0.215 0 0.02 0.215 0 0.04 0.215 0 0.06 0.215 0 0.08 0.215 0 0.1 0.215 0 0 0.22 0 0.02 0.22 0 0.04 0.22 0 0.06 0.22 0 0.08 0.22 0 0.1 0.22 0 0 0.225 0 0.02 0.225 0 0.04 0.225 0 0.06 0.225 0 0.08 0.225 0 0.1 0.225 0 0 0.23 0 0.02 0.23 0 0.04 0.23 0 0.06 0.23 0 0.08 0.23 0 0.1 0.23 0 0 0.235 0 0.02 0.235 0 0.04 0.235 0 0.06 0.235 0 0.08 0.235 0 0.1 0.235 0 0 0.24 0 0.02 0.24 0 0.04 0.24 0 0.06 0.24 0 0.08 0.24 0 0.1 0.24 0 0 0.245 0 0.02 0.245 0 0.04 0.245 0 0.06 0.245 0 0.08 0.245 0 0.1 0.245 0 0 0.25 0 0.02 0.25 0 0.04 0.25 0 0.06 0.25 0 0.08 0.25 0 0.1 0.25 0 0 0.255 0 0.02 0.255 0 0.04 0.255 0 0.06 0.255 0 0.08 0.255 0 0.1 0.255 0 0 0.26 0 0.02 0.26 0 0.04 0.26 0 0.06 0.26 0 0.08 0.26 0 0.1 0.26 0 0 0.265 0 0.02 0.265 0 0.04 0.265 0 0.06 0.265 0 0.08 0.265 0 0.1 0.265 0 0 0.27 0 0.02 0.27 0 0.04 0.27 0 0.06 0.27 0 0.08 0.27 0 0.1 0.27 0 0 0.275 0 0.02 0.275 0 0.04 0.275 0 0.06 0.275 0 0.08 0.275 0 0.1 0.275 0 0 0.28 0 0.02 0.28 0 0.04 0.28 0 0.06 0.28 0 0.08 0.28 0 0.1 0.28 0 0 0.285 0 0.02 0.285 0 0.04 0.285 0 0.06 0.285 0 0.08 0.285 0 0.1 0.285 0 0 0.29 0 0.02 0.29 0 0.04 0.29 0 0.06 0.29 0 0.08 0.29 0 0.1 0.29 0 0 0.295 0 0.02 0.295 0 0.04 0.295 0 0.06 0.295 0 0.08 0.295 0 0.1 0.295 0 0 0.3 0 0.02 0.3 0 0.04 0.3 0 0.06 0.3 0 0.08 0.3 0 0.1 0.3 0 0 0.305 0 0.02 0.305 0 0.04 0.305 0 0.06 0.305 0 0.08 0.305 0 0.1 0.305 0 0 0.31 0 0.02 0.31 0 0.04 0.31 0 0.06 0.31 0 0.08 0.31 0 0.1 0.31 0 0 0.315 0 0.02 0.315 0 0.04 0.315 0 0.06 0.315 0 0.08 0.315 0 0.1 0.315 0 0 0.32 0 0.02 0.32 0 0.04 0.32 0 0.06 0.32 0 0.08 0.32 0 0.1 0.32 0 0 0.325 0 0.02 0.325 0 0.04 0.325 0 0.06 0.325 0 0.08 0.325 0 0.1 0.325 0 0 0.33 0 0.02 0.33 0 0.04 0.33 0 0.06 0.33 0 0.08 0.33 0 0.1 0.33 0 0 0.335 0 0.02 0.335 0 0.04 0.335 0 0.06 0.335 0 0.08 0.335 0 0.1 0.335 0 0 0.34 0 0.02 0.34 0 0.04 0.34 0 0.06 0.34 0 0.08 0.34 0 0.1 0.34 0 0 0.345 0 0.02 0.345 0 0.04 0.345 0 0.06 0.345 0 0.08 0.345 0 0.1 0.345 0 0 0.35 0 0.02 0.35 0 0.04 0.35 0 0.06 0.35 0 0.08 0.35 0 0.1 0.35 0 0 0.355 0 0.02 0.355 0 0.04 0.355 0 0.06 0.355 0 0.08 0.355 0 0.1 0.355 0 0 0.36 0 0.02 0.36 0 0.04 0.36 0 0.06 0.36 0 0.08 0.36 0 0.1 0.36 0 0 0.365 0 0.02 0.365 0 0.04 0.365 0 0.06 0.365 0 0.08 0.365 0 0.1 0.365 0 0 0.37 0 0.02 0.37 0 0.04 0.37 0 0.06 0.37 0 0.08 0.37 0 0.1 0.37 0 0 0.375 0 0.02 0.375 0 0.04 0.375 0 0.06 0.375 0 0.08 0.375 0 0.1 0.375 0 0 0.38 0 0.02 0.38 0 0.04 0.38 0 0.06 0.38 0 0.08 0.38 0 0.1 0.38 0 0 0.385 0 0.02 0.385 0 0.04 0.385 0 0.06 0.385 0 0.08 0.385 0 0.1 0.385 0 0 0.39 0 0.02 0.39 0 0.04 0.39 0 0.06 0.39 0 0.08 0.39 0 0.1 0.39 0 0 0.395 0 0.02 0.395 0 0.04 0.395 0 0.06 0.395 0 0.08 0.395 0 0.1 0.395 0 0 0.4 0 0.02 0.4 0 0.04 0.4 0 0.06 0.4 0 0.08 0.4 0 0.1 0.4 0 0 0.405 0 0.02 0.405 0 0.04 0.405 0 0.06 0.405 0 0.08 0.405 0 0.1 0.405 0 0 0.41 0 0.02 0.41 0 0.04 0.41 0 0.06 0.41 0 0.08 0.41 0 0.1 0.41 0 0 0.415 0 0.02 0.415 0 0.04 0.415 0 0.06 0.415 0 0.08 0.415 0 0.1 0.415 0 0 0.42 0 0.02 0.42 0 0.04 0.42 0 0.06 0.42 0 0.08 0.42 0 0.1 0.42 0 0 0.425 0 0.02 0.425 0 0.04 0.425 0 0.06 0.425 0 0.08 0.425 0 0.1 0.425 0 0 0.43 0 0.02 0.43 0 0.04 0.43 0 0.06 0.43 0 0.08 0.43 0 0.1 0.43 0 0 0.435 0 0.02 0.435 0 0.04 0.435 0 0.06 0.435 0 0.08 0.435 0 0.1 0.435 0 0 0.44 0 0.02 0.44 0 0.04 0.44 0 0.06 0.44 0 0.08 0.44 0 0.1 0.44 0 0 0.445 0 0.02 0.445 0 0.04 0.445 0 0.06 0.445 0 0.08 0.445 0 0.1 0.445 0 0 0.45 0 0.02 0.45 0 0.04 0.45 0 0.06 0.45 0 0.08 0.45 0 0.1 0.45 0 0 0.455 0 0.02 0.455 0 0.04 0.455 0 0.06 0.455 0 0.08 0.455 0 0.1 0.455 0 0 0.46 0 0.02 0.46 0 0.04 0.46 0 0.06 0.46 0 0.08 0.46 0 0.1 0.46 0 0 0.465 0 0.02 0.465 0 0.04 0.465 0 0.06 0.465 0 0.08 0.465 0 0.1 0.465 0 0 0.47 0 0.02 0.47 0 0.04 0.47 0 0.06 0.47 0 0.08 0.47 0 0.1 0.47 0 0 0.475 0 0.02 0.475 0 0.04 0.475 0 0.06 0.475 0 0.08 0.475 0 0.1 0.475 0 0 0.48 0 0.02 0.48 0 0.04 0.48 0 0.06 0.48 0 0.08 0.48 0 0.1 0.48 0 0 0.485 0 0.02 0.485 0 0.04 0.485 0 0.06 0.485 0 0.08 0.485 0 0.1 0.485 0 0 0.49 0 0.02 0.49 0 0.04 0.49 0 0.06 0.49 0 0.08 0.49 0 0.1 0.49 0 0 0.495 0 0.02 0.495 0 0.04 0.495 0 0.06 0.495 0 0.08 0.495 0 0.1 0.495 0 0 0.5 0 0.02 0.5 0 0.04 0.5 0 0.06 0.5 0 0.08 0.5 0 0.1 0.5 0 0 0.505 0 0.02 0.505 0 0.04 0.505 0 0.06 0.505 0 0.08 0.505 0 0.1 0.505 0 0 0.51 0 0.02 0.51 0 0.04 0.51 0 0.06 0.51 0 0.08 0.51 0 0.1 0.51 0 0 0.515 0 0.02 0.515 0 0.04 0.515 0 0.06 0.515 0 0.08 0.515 0 0.1 0.515 0 0 0.52 0 0.02 0.52 0 0.04 0.52 0 0.06 0.52 0 0.08 0.52 0 0.1 0.52 0 0 0.525 0 0.02 0.525 0 0.04 0.525 0 0.06 0.525 0 0.08 0.525 0 0.1 0.525 0 0 0.53 0 0.02 0.53 0 0.04 0.53 0 0.06 0.53 0 0.08 0.53 0 0.1 0.53 0 0 0.535 0 0.02 0.535 0 0.04 0.535 0 0.06 0.535 0 0.08 0.535 0 0.1 0.535 0 0 0.54 0 0.02 0.54 0 0.04 0.54 0 0.06 0.54 0 0.08 0.54 0 0.1 0.54 0 0 0.545 0 0.02 0.545 0 0.04 0.545 0 0.06 0.545 0 0.08 0.545 0 0.1 0.545 0 0 0.55 0 0.02 0.55 0 0.04 0.55 0 0.06 0.55 0 0.08 0.55 0 0.1 0.55 0 0 0.555 0 0.02 0.555 0 0.04 0.555 0 0.06 0.555 0 0.08 0.555 0 0.1 0.555 0 0 0.56 0 0.02 0.56 0 0.04 0.56 0 0.06 0.56 0 0.08 0.56 0 0.1 0.56 0 0 0.565 0 0.02 0.565 0 0.04 0.565 0 0.06 0.565 0 0.08 0.565 0 0.1 0.565 0 0 0.57 0 0.02 0.57 0 0.04 0.57 0 0.06 0.57 0 0.08 0.57 0 0.1 0.57 0 0 0.575 0 0.02 0.575 0 0.04 0.575 0 0.06 0.575 0 0.08 0.575 0 0.1 0.575 0 0 0.58 0 0.02 0.58 0 0.04 0.58 0 0.06 0.58 0 0.08 0.58 0 0.1 0.58 0 0 0.585 0 0.02 0.585 0 0.04 0.585 0 0.06 0.585 0 0.08 0.585 0 0.1 0.585 0 0 0.59 0 0.02 0.59 0 0.04 0.59 0 0.06 0.59 0 0.08 0.59 0 0.1 0.59 0 0 0.595 0 0.02 0.595 0 0.04 0.595 0 0.06 0.595 0 0.08 0.595 0 0.1 0.595 0 0 0.6 0 0.02 0.6 0 0.04 0.6 0 0.06 0.6 0 0.08 0.6 0 0.1 0.6 0 0 0.605 0 0.02 0.605 0 0.04 0.605 0 0.06 0.605 0 0.08 0.605 0 0.1 0.605 0 0 0.61 0 0.02 0.61 0 0.04 0.61 0 0.06 0.61 0 0.08 0.61 0 0.1 0.61 0 0 0.615 0 0.02 0.615 0 0.04 0.615 0 0.06 0.615 0 0.08 0.615 0 0.1 0.615 0 0 0.62 0 0.02 0.62 0 0.04 0.62 0 0.06 0.62 0 0.08 0.62 0 0.1 0.62 0 0 0.625 0 0.02 0.625 0 0.04 0.625 0 0.06 0.625 0 0.08 0.625 0 0.1 0.625 0 0 0.63 0 0.02 0.63 0 0.04 0.63 0 0.06 0.63 0 0.08 0.63 0 0.1 0.63 0 0 0.635 0 0.02 0.635 0 0.04 0.635 0 0.06 0.635 0 0.08 0.635 0 0.1 0.635 0 0 0.64 0 0.02 0.64 0 0.04 0.64 0 0.06 0.64 0 0.08 0.64 0 0.1 0.64 0 0 0.645 0 0.02 0.645 0 0.04 0.645 0 0.06 0.645 0 0.08 0.645 0 0.1 0.645 0 0 0.65 0 0.02 0.65 0 0.04 0.65 0 0.06 0.65 0 0.08 0.65 0 0.1 0.65 0 0 0.655 0 0.02 0.655 0 0.04 0.655 0 0.06 0.655 0 0.08 0.655 0 0.1 0.655 0 0 0.66 0 0.02 0.66 0 0.04 0.66 0 0.06 0.66 0 0.08 0.66 0 0.1 0.66 0 0 0.665 0 0.02 0.665 0 0.04 0.665 0 0.06 0.665 0 0.08 0.665 0 0.1 0.665 0 0 0.67 0 0.02 0.67 0 0.04 0.67 0 0.06 0.67 0 0.08 0.67 0 0.1 0.67 0 0 0.675 0 0.02 0.675 0 0.04 0.675 0 0.06 0.675 0 0.08 0.675 0 0.1 0.675 0 0 0.68 0 0.02 0.68 0 0.04 0.68 0 0.06 0.68 0 0.08 0.68 0 0.1 0.68 0 0 0.685 0 0.02 0.685 0 0.04 0.685 0 0.06 0.685 0 0.08 0.685 0 0.1 0.685 0 0 0.69 0 0.02 0.69 0 0.04 0.69 0 0.06 0.69 0 0.08 0.69 0 0.1 
[...]
			<PointData Scalars="VitesseX">
				<DataArray Name="VitesseX" type="Float32" format="ascii">
 0 -3.08516e-14 -1.4946e-14 -1.71189e-14 -1.24543e-14 0 0 -2.77699e-14 -1.82273e-14 -1.47152e-14 -1.39089e-14 0 0 -2.28813e-14 -2.09674e-14 -1.53271e-14 -1.10137e-14 0 0 -2.17263e-14 -1.71005e-14 -2.18461e-14 -4.38655e-15 0 0 -2.07013e-14 -1.84406e-14 -1.85834e-14 -5.90528e-15 0 0 -2.52622e-14 -1.56026e-14 -1.5881e-14 -9.96845e-15 0 0 -3.51757e-14 2.2076e-16 -3.00443e-14 -3.13124e-15 0 0 -2.21809e-14 -2.32828e-14 -7.05405e-15 -8.08519e-15 0 0 -1.36904e-14 -3.87853e-14 9.21499e-15 -4.41313e-15 0 0 -1.83514e-14 -2.55764e-14 -1.1841e-14 1.22574e-14 0 0 -1.9867e-14 -1.52768e-14 -2.15748e-14 1.08215e-14 0 0 -2.51285e-14 5.72441e-15 -2.0341e-14 -7.36839e-15 0 0 -1.00748e-15 -1.52216e-14 1.48864e-14 -3.98243e-14 0 0 -3.16704e-15 6.95155e-17 8.02719e-15 -3.78608e-14 0 0 -2.69265e-14 3.97817e-14 -2.32439e-14 -2.17618e-14 0 0 7.02048e-15 -8.41736e-15 1.3855e-14 -3.82137e-14 0 0 1.57099e-14 -1.53809e-14 -6.1933e-15 -1.13014e-14 0 0 3.81908e-15 8.73767e-15 -5.98773e-14 3.54787e-14 0 0 -1.71654e-15 -1.76203e-15 -4.05798e-14 4.99989e-15 0 0 -2.37446e-15 -2.75473e-14 -1.3125e-14 -7.31715e-15 0 0 -5.45865e-15 -4.75982e-14 -1.11194e-14 2.80608e-14 0 0 -4.99716e-14 1.49504e-15 -4.00275e-14 3.70091e-14 0 0 -2.51752e-14 -4.01659e-14 1.54185e-14 -7.65051e-15 0 0 -3.17005e-14 -2.67011e-14 2.33689e-14 -3.59095e-14 0 0 -5.18924e-14 1.33791e-14 4.03091e-15 -5.3545e-14 0 0 -2.42656e-14 -2.13311e-14 2.32479e-14 -6.69241e-14 0 0 3.26015e-14 -8.95751e-14 6.07867e-14 -6.51557e-14 0 0 4.77541e-14 -8.79211e-14 1.579e-14 -4.41854e-15 0 0 -4.39711e-15 1.07959e-14 -9.56805e-14 6.40911e-14 0 0 1.06718e-14 -3.88014e-14 -1.7685e-14 3.22714e-14 0 0 -8.07819e-15 -3.27594e-14 -1.53323e-14 5.55337e-14 0 0 5.64677e-15 -5.17885e-14 1.72957e-14 8.35804e-15 0 0 1.18513e-14 -5.5573e-14 1.91724e-14 -1.54589e-14 0 0 -3.08894e-14 2.92478e-14 -9.41646e-14 5.95e-14 0 0 1.87736e-14 -2.93441e-14 -3.3923e-14 2.17291e-14 0 0 8.48253e-15 4.402e-15 -5.88816e-14 3.25709e-14 0 0 -2.22134e-14 4.15576e-14 -7.67091e-14 1.53353e-14 0 0 -3.76511e-14 6.97497e-14 -8.89703e-14 -9.1109e-15 0 0 -2.58327e-14 4.12129e-14 -7.56017e-14 -1.68415e-14 0 0 4.59141e-14 -7.75987e-14 -1.81992e-14 -1.32215e-14 0 0 1.75575e-14 -6.32854e-14 -3.89199e-14 3.59408e-14 0 0 2.84432e-14 -1.15068e-13 4.33207e-14 2.1612e-14 0 0 -2.95762e-14 -3.11515e-14 -1.42552e-14 7.96554e-14 0 0 -9.06436e-14 5.35268e-14 -7.3572e-14 1.11416e-13 0 0 -6.32755e-14 2.73955e-14 -9.47058e-14 1.47077e-13 0 0 -4.56633e-15 -7.55688e-14 -5.01835e-14 1.07905e-13 0 0 -5.64573e-15 -7.53439e-14 -1.32773e-13 1.27925e-13 0 0 -5.2581e-14 -3.82819e-14 -2.04349e-13 1.70527e-13 0 0 2.86365e-14 -1.80894e-13 -7.36365e-14 4.36513e-14 0 0 2.65182e-14 -1.68596e-13 -1.34949e-13 1.88255e-14 0 0 -4.24878e-14 -5.24404e-14 -2.30039e-13 4.08689e-14 0 0 -4.16764e-14 -6.84065e-14 -1.61035e-13 8.4849e-15 0 0 5.05932e-14 -2.97138e-13 4.15281e-14 -5.64013e-14 0 0 8.22885e-14 -3.68888e-13 7.16897e-15 -4.33144e-14 0 0 1.88847e-14 -2.25283e-13 -2.03673e-13 2.61588e-14 0 0 -1.48736e-13 1.65955e-14 -3.56653e-13 2.52366e-14 0 0 -1.94515e-13 9.9113e-14 -3.80479e-13 1.06601e-14 0 0 -2.23733e-15 -1.48715e-13 -1.80118e-13 -2.70908e-14 0 0 1.24598e-13 -2.99396e-13 -5.15008e-14 -5.62901e-14 0 0 1.67268e-15 -1.66919e-13 -1.31805e-13 -2.74763e-14 0 0 -2.30566e-13 -3.23097e-14 -1.10944e-13 -4.28457e-14 0 0 -2.22605e-13 -1.23928e-13 -7.92127e-15 -5.86187e-14 0 0 -1.90871e-13 -2.02064e-13 -2.45005e-15 -1.42747e-15 0 0 -1.76667e-13 -1.98987e-13 -2.30071e-14 -5.30353e-15 0 0 -1.73746e-13 -2.11525e-13 -3.40965e-14 -3.36572e-14 0 0 -1.61879e-13 -1.89078e-13 -5.65007e-14 -2.57973e-14 0 0 -8.86316e-14 -2.38919e-13 3.68806e-14 -2.26679e-14 0 0 7.26522e-14 -2.06413e-13 2.06899e-13 7.00147e-14 0 0 2.28889e-13 2.08225e-14 3.93174e-13 3.40356e-13 0 0 4.69484e-13 6.26232e-13 7.99169e-13 7.87486e-13 0 0 9.64925e-13 1.61711e-12 1.6867e-12 1.36358e-12 0 0 1.91491e-12 3.17637e-12 3.39628e-12 2.28394e-12 0 0 3.41479e-12 5.51385e-12 5.85118e-12 3.72328e-12 0 0 5.18034e-12 8.33714e-12 8.62582e-12 5.51101e-12 0 0 5.96453e-12 9.74927e-12 9.87253e-12 6.41165e-12 0 0 1.46664e-12 2.64837e-12 2.66549e-12 2.0288e-12 0 0 -1.69207e-11 -2.6857e-11 -2.68926e-11 -1.61578e-11 0 0 -7.1193e-11 -1.14436e-10 -1.14295e-10 -7.01148e-11 0 0 -2.07706e-10 -3.34999e-10 -3.34393e-10 -2.05997e-10 0 0 -5.19294e-10 -8.38657e-10 -8.37197e-10 -5.16401e-10 0 0 -1.1836e-09 -1.91278e-09 -1.91002e-09 -1.17884e-09 0 0 -2.52765e-09 -4.09668e-09 -4.08253e-09 -2.52175e-09 0 0 -5.18812e-09 -8.29878e-09 -8.38004e-09 -5.1675e-09 0 0 -9.94233e-09 -1.65043e-08 -1.60976e-08 -9.97577e-09 0 0 -1.93282e-08 -2.99779e-08 -3.12671e-08 -1.92798e-08 0 0 -3.34812e-08 -5.7206e-08 -5.43055e-08 -3.35838e-08 0 0 -6.24071e-08 -9.533e-08 -1.00375e-07 -6.27379e-08 0 0 -1.00394e-07 -1.71725e-07 -1.67882e-07 -1.01085e-07 0 0 -1.78511e-07 -2.78871e-07 -2.73838e-07 -1.8048e-07 0 0 -2.70218e-07 -4.44313e-07 -4.76496e-07 -2.73786e-07 0 0 -4.54933e-07 -7.44837e-07 -7.01315e-07 -4.67728e-07 0 0 -6.86135e-07 -1.10191e-06 -1.12565e-06 -6.74403e-07 0 0 -9.99675e-07 -1.64456e-06 -1.77049e-06 -1.10366e-06 0 0 -1.59824e-06 -2.61608e-06 -2.41942e-06 -1.53093e-06 0 0 -2.20011e-06 -3.5299e-06 -3.76076e-06 -2.30167e-06 0 0 -3.06033e-06 -5.15474e-06 -5.24142e-06 -3.34462e-06 0 0 -4.51661e-06 -7.32572e-06 -7.23538e-06 -4.42662e-06 0 0 -5.93981e-06 -9.67796e-06 -9.88914e-06 -6.31326e-06 0 0 -7.8916e-06 -1.29871e-05 -1.35147e-05 -8.38421e-06 0 0 -1.05917e-05 -1.74819e-05 -1.73791e-05 -1.082e-05 0 0 -1.35176e-05 -2.18948e-05 -2.21672e-05 -1.38845e-05 0 0 -1.6941e-05 -2.76082e-05 -2.80672e-05 -1.74952e-05 0 0 -2.10705e-05 -3.43511e-05 -3.43223e-05 -2.12772e-05 0 0 -2.56911e-05 -4.12658e-05 -4.09671e-05 -2.51263e-05 0 0 -3.05211e-05 -4.8477e-05 -4.74919e-05 -2.88347e-05 0 0 -3.51996e-05 -5.54162e-05 -5.35622e-05 -3.21845e-05 0 0 -3.94417e-05 -6.16424e-05 -5.89159e-05 -3.50848e-05 0 0 -4.32736e-05 -6.72716e-05 -6.38498e-05 -3.77778e-05 0 0 -4.68506e-05 -7.26866e-05 -6.86753e-05 -4.04041e-05 0 0 -5.00293e-05 -7.78416e-05 -7.41028e-05 -4.40002e-05 0 0 -5.26004e-05 -8.253e-05 -7.94412e-05 -4.76184e-05 0 0 -5.44241e-05 -8.65581e-05 -8.476e-05 -5.12952e-05 0 0 -5.54933e-05 -8.97331e-05 -8.99571e-05 -5.57418e-05 0 0 -5.55371e-05 -9.18548e-05 -9.46642e-05 -6.0066e-05 0 0 -5.47501e-05 -9.29635e-05 -9.83368e-05 -6.3757e-05 0 0 -5.28583e-05 -9.20882e-05 -0.000100683 -6.62823e-05 0 0 -4.9958e-05 -8.97695e-05 -0.00010014 -6.73035e-05 0 0 -4.57634e-05 -8.49767e-05 -9.76818e-05 -6.62163e-05 0 0 -4.04858e-05 -7.76804e-05 -9.21025e-05 -6.33692e-05 0 0 -3.34933e-05 -6.79376e-05 -8.30206e-05 -5.73457e-05 0 0 -2.49946e-05 -5.65206e-05 -7.0003e-05 -4.83705e-05 0 0 -1.61917e-05 -4.07145e-05 -5.16292e-05 -3.37174e-05 0 0 -4.88431e-06 -2.04769e-05 -2.82505e-05 -1.67617e-05 0 0 7.22625e-06 1.28601e-07 -4.20674e-06 -8.85822e-07 0 0 1.80937e-05 1.91616e-05 1.80579e-05 1.57128e-05 0 0 2.8504e-05 3.36921e-05 3.97267e-05 3.65652e-05 0 0 2.76185e-05 4.4393e-05 6.17143e-05 5.60246e-05 0 0 2.10635e-05 4.43293e-05 8.0929e-05 7.89986e-05 0 0 3.26244e-06 3.78604e-05 9.67318e-05 7.83684e-05 0 0 -3.92828e-05 1.98452e-05 8.98894e-05 6.75059e-05 0 0 -9.23325e-05 -1.84426e-05 6.46068e-05 3.42435e-05 0 0 -0.000189463 -9.621e-05 2.31176e-05 5.35793e-06 0 0 -0.000394456 -0.000272667 -2.35277e-05 -1.40463e-06 0 0 -0.000651814 -0.000489704 -9.42435e-05 -1.08155e-05 0 0 -0.000829389 -0.000686697 -0.000171351 -4.11126e-05 0 0 -0.000840054 -0.000730357 -0.000209579 -6.51277e-05 0 0 -0.000814496 -0.000706132 -0.000201036 -0.000135813 0 0 -0.000693971 -0.000564842 -0.000171214 -0.000211773 0 0 -0.000598673 -0.00054223 -0.000184441 -0.000196222 0 0 -0.000617434 -0.000585763 -0.000185927 -0.000103537 0 0 -0.000564131 -0.000587305 -0.000181287 2.79818e-05 0 0 0.00011776 -0.000321528 -0.00019959 -1.67388e-05 0 0 0.00100202 0.000534046 -9.63777e-05 -0.000124623 0 0 0.00111175 0.00126286 0.000334496 -0.000112361 0 0 0.00105201 0.00129849 0.000670975 -5.08393e-06 0 0 0.000846159 0.0012171 0.000669197 0.000149965 0 0 0.000621747 0.000949119 0.000606463 0.000180035 0 0 0.000429307 0.000656129 0.000469096 0.000175252 0 0 0.000286658 0.000385148 0.000338326 0.00016823 0 0 0.000190183 0.000243703 0.000237704 0.000161977 0 0 0.000162469 0.000237797 0.000229834 0.000150101 0 0 0.00015618 0.000238839 0.000229775 0.000136536 0 0 0.000153976 0.000241406 0.000227231 0.000123704 0 0 0.000151636 0.000240411 0.000218364 0.000113331 0 0 0.000145922 0.000231797 0.000208236 0.000108335 0 0 0.000139155 0.000219036 0.00019951 0.000107966 0 0 0.000132916 0.000208822 0.000193991 0.000108801 0 0 0.000127517 0.000201485 0.000190382 0.000109709 0 0 0.000121664 0.000193924 0.000185458 0.000109213 0 0 0.000115709 0.000185865 0.000180267 0.000108078 0 0 0.000110326 0.00017815 0.000175439 0.000107262 0 0 0.00010579 0.000171178 0.000171096 0.000106197 0 0 0.000102165 0.000165619 0.000167321 0.000104462 0 0 9.93422e-05 0.000161614 0.000163731 0.000102185 0 0 9.65663e-05 0.000157433 0.00015915 9.92522e-05 0 0 9.28016e-05 0.00015134 0.000152841 9.52203e-05 0 0 8.75699e-05 0.000142706 0.000143931 8.95523e-05 0 0 8.0281e-05 0.000130669 0.000131575 8.17478e-05 0 0 7.0571e-05 0.000114707 0.000115307 7.15421e-05 0 0 5.8556e-05 9.50516e-05 9.53987e-05 5.91187e-05 0 0 4.5014e-05 7.29842e-05 7.31522e-05 4.52864e-05 0 0 3.13563e-05 5.07863e-05 5.08422e-05 3.14467e-05 0 0 1.93014e-05 3.12389e-05 3.12478e-05 1.93158e-05 0 0 1.02754e-05 1.66233e-05 1.66197e-05 1.02696e-05 0 0 4.68314e-06 7.57467e-06 7.57116e-06 4.67747e-06 0 0 1.8635e-06 3.01398e-06 3.01245e-06 1.86104e-06 0 0 6.75425e-07 1.09247e-06 1.09199e-06 6.74646e-07 0 0 2.32431e-07 3.75978e-07 3.75849e-07 2.32223e-07 0 0 7.7923e-08 1.26057e-07 1.26025e-07 7.78723e-08 0 0 2.57601e-08 4.16749e-08 4.16676e-08 2.57484e-08 0 0 8.44051e-09 1.36556e-08 1.36542e-08 8.43774e-09 0 0 2.74678e-09 4.44391e-09 4.44368e-09 2.74588e-09 0 0 8.88425e-10 1.43737e-09 1.4372e-09 8.88064e-10 0 0 2.85576e-10 4.62153e-10 4.61853e-10 2.85575e-10 0 0 9.11661e-11 1.47623e-10 1.47357e-10 9.11354e-11 0 0 2.88637e-11 4.67298e-11 4.65819e-11 2.874e-11 0 0 9.01537e-12 1.45755e-11 1.44168e-11 8.86107e-12 0 0 2.74453e-12 4.28973e-12 4.36926e-12 2.48961e-12 0 0 7.28155e-13 1.11996e-12 1.09624e-12 6.15358e-13 0 0 8.51604e-14 2.4071e-13 -7.29326e-14 1.02585e-13 0 0 -4.65415e-14 -1.60691e-13 -2.2105e-13 -1.94016e-13 0 0 -2.09744e-13 -1.44807e-13 -3.52742e-13 -2.20821e-13 0 0 -2.7788e-13 -8.50752e-14 -5.16835e-13 -7.64576e-14 0 0 -1.4306e-13 -2.67359e-13 -3.72074e-13 -1.40608e-13 0 0 -1.77949e-13 -2.26776e-13 -3.44093e-13 -2.70634e-13 0 0 -1.99558e-13 -2.02909e-13 -2.4179e-13 -5.17191e-13 0 0 -2.03839e-13 -1.39174e-13 -2.89327e-13 -4.44395e-13 0 0 -1.29221e-13 -2.39798e-13 -1.92948e-13 -4.41102e-13 0 0 -2.89064e-13 -8.22038e-14 -2.89055e-13 -4.02064e-13 0 0 -4.20589e-13 1.23183e-13 -7.24464e-13 -1.39949e-14 0 0 -2.36386e-13 -1.03797e-13 -7.42546e-13 1.1168e-13 0
				</DataArray>
				<DataArray Name="VitesseY" type="Float32" format="ascii">