<?xml version="1.0"?>
<VTKFile type="PolyData">
	<PolyData>
		<Piece NumberOfPoints="1206" NumberOfPolys="1000">
			<Points>
				<DataArray type="Float32" NumberOfComponents="3" format="ascii">
 0 0 0 0.02 0 0 0.04 0 0 0.06 0 0 0.08 0 0 0.1 0 0 0 0.005 0 0.02 0.005 0 0.04 0.005 0 0.06 0.005 0 0.08 0.005 0 0.1 0.005 0 0 0.01 0 0.02 0.01 0 0.04 0.01 0 0.06 0.01 0 0.08 0.01 0 0.1 0.01 0 0 0.015 0 0.02 0.015 0 0.04 0.015 0 0.06 0.015 0 0.08 0.015 0 0.1 0.015 0 0 0.02 0 0.02 0.02 0 0.04 0.02 0 0.06 0.02 0 0.08 0.02 0 0.1 0.02 0 0 0.025 0 0.02 0.025 0 0.04 0.025 0 0.06 0.025 0 0.08 0.025 0 0.1 0.025 0 0 0.03 0 0.02 0.03 0 0.04 0.03 0 0.06 0.03 0 0.08 0.03 0 0.1 0.03 0 0 0.035 0 0.02 0.035 0 0.04 0.035 0 0.06 0.035 0 0.08 0.035 0 0.1 0.035 0 0 0.04 0 0.02 0.04 0 0.04 0.04 0 0.06 0.04 0 0.08 0.04 0 0.1 0.04 0 0 0.045 0 0.02 0.045 0 0.04 0.045 0 0.06 0.045 0 0.08 0.045 0 0.1 0.045 0 0 0.05 0 0.02 0.05 0 0.04 0.05 0 0.06 0.05 0 0.08 0.05 0 0.1 0.05 0 0 0.055 0 0.02 0.055 0 0.04 0.055 0 0.06 0.055 0 0.08 0.055 0 0.1 0.055 0 0 0.06 0 0.02 0.06 0 0.04 0.06 0 0.06 0.06 0 0.08 0.06 0 0.1 0.06 0 0 0.065 0 0.02 0.065 0 0.04 0.065 0 0.06 0.065 0 0.08 0.065 0 0.1 0.065 0 0 0.07 0 0.02 0.07 0 0.04 0.07 0 0.06 0.07 0 0.08 0.07 0 0.1 0.07 0 0 0.075 0 0.02 0.075 0 0.04 0.075 0 0.06 0.075 0 0.08 0.075 0 0.1 0.075 0 0 0.08 0 0.02 0.08 0 0.04 0.08 0 0.06 0.08 0 0.08 0.08 0 0.1 0.08 0 0 0.085 0 0.02 0.085 0 0.04 0.085 0 0.06 0.085 0 0.08 0.085 0 0.1 0.085 0 0 0.09 0 0.02 0.09 0 0.04 0.09 0 0.06 0.09 0 0.08 0.09 0 0.1 0.09 0 0 0.095 0 0.02 0.095 0 0.04 0.095 0 0.06 0.095 0 0.08 0.095 0 0.1 0.095 0 0 0.1 0 0.02 0.1 0 0.04 0.1 0 0.06 0.1 0 0.08 0.1 0 0.1 0.1 0 0 0.105 0 0.02 0.105 0 0.04 0.105 0 0.06 0.105 0 0.08 0.105 0 0.1 0.105 0 0 0.11 0 0.02 0.11 0 0.04 0.11 0 0.06 0.11 0 0.08 0.11 0 0.1 0.11 0 0 0.115 0 0.02 0.115 0 0.04 0.115 0 0.06 0.115 0 0.08 0.115 0 0.1 0.115 0 0 0.12 0 0.02 0.12 0 0.04 0.12 0 0.06 0.12 0 0.08 0.12 0 0.1 0.12 0 0 0.125 0 0.02 0.125 0 0.04 0.125 0 0.06 0.125 0 0.08 0.125 0 0.1 0.125 0 0 0.13 0 0.02 0.13 0 0.04 0.13 0 0.06 0.13 0 0.08 0.13 0 0.1 0.13 0 0 0.135 0 0.02 0.135 0 0.04 0.135 0 0.06 0.135 0 0.08 0.135 0 0.1 0.135 0 0 0.14 0 0.02 0.14 0 0.04 0.14 0 0.06 0.14 0 0.08 0.14 0 0.1 0.14 0 0 0.145 0 0.02 0.145 0 0.04 0.145 0 0.06 0.145 0 0.08 0.145 0 0.1 0.145 0 0 0.15 0 0.02 0.15 0 0.04 0.15 0 0.06 0.15 0 0.08 0.15 0 0.1 0.15 0 0 0.155 0 0.02 0.155 0 0.04 0.155 0 0.06 0.155 0 0.08 0.155 0 0.1 0.155 0 0 0.16 0 0.02 0.16 0 0.04 0.16 0 0.06 0.16 0 0.08 0.16 0 0.1 0.16 0 0 0.165 0 0.02 0.165 0 0.04 0.165 0 0.06 0.165 0 0.08 0.165 0 0.1 0.165 0 0 0.17 0 0.02 0.17 0 0.04 0.17 0 0.06 0.17 0 0.08 0.17 0 0.1 0.17 0 0 0.175 0 0.02 0.175 0 0.04 0.175 0 0.06 0.175 0 0.08 0.175 0 0.1 0.175 0 0 0.18 0 0.02 0.18 0 0.04 0.18 0 0.06 0.18 0 0.08 0.18 0 0.1 0.18 0 0 0.185 0 0.02 0.185 0 0.04 0.185 0 0.06 0.185 0 0.08 0.185 0 0.1 0.185 0 0 0.19 0 0.02 0.19 0 0.04 0.19 0 0.06 0.19 0 0.08 0.19 0 0.1 0.19 0 0 0.195 0 0.02 0.195 0 0.04 0.195 0 0.06 0.195 0 0.08 0.195 0 0.1 0.195 0 0 0.2 0 0.02 0.2 0 0.04 0.2 0 0.06 0.2 0 0.08 0.2 0 0.1 0.2 0 0 0.205 0 0.02 0.205 0 0.04 0.205 0 0.06 0.205 0 0.08 0.205 0 0.1 0.205 0 0 0.21 0 0.02 0.21 0 0.04 0.21 0 0.06 0.21 0 0.08 0.21 0 0.1 0.21 0 0 0.215 0 0.02 0.215 0 0.04 0.215 0 0.06 0.215 0 0.08 0.215 0 0.1 0.215 0 0 0.22 0 0.02 0.22 0 0.04 0.22 0 0.06 0.22 0 0.08 0.22 0 0.1 0.22 0 0 0.225 0 0.02 0.225 0 0.04 0.225 0 0.06 0.225 0 0.08 0.225 0 0.1 0.225 0 0 0.23 0 0.02 0.23 0 0.04 0.23 0 0.06 0.23 0 0.08 0.23 0 0.1 0.23 0 0 0.235 0 0.02 0.235 0 0.04 0.235 0 0.06 0.235 0 0.08 0.235 0 0.1 0.235 0 0 0.24 0 0.02 0.24 0 0.04 0.24 0 0.06 0.24 0 0.08 0.24 0 0.1 0.24 0 0 0.245 0 0.02 0.245 0 0.04 0.245 0 0.06 0.245 0 0.08 0.245 0 0.1 0.245 0 0 0.25 0 0.02 0.25 0 0.04 0.25 0 0.06 0.25 0 0.08 0.25 0 0.1 0.25 0 0 0.255 0 0.02 0.255 0 0.04 0.255 0 0.06 0.255 0 0.08 0.255 0 0.1 0.255 0 0 0.26 0 0.02 0.26 0 0.04 0.26 0 0.06 0.26 0 0.08 0.26 0 0.1 0.26 0 0 0.265 0 0.02 0.265 0 0.04 0.265 0 0.06 0.265 0 0.08 0.265 0 0.1 0.265 0 0 0.27 0 0.02 0.27 0 0.04 0.27 0 0.06 0.27 0 0.08 0.27 0 0.1 0.27 0 0 0.275 0 0.02 0.275 0 0.04 0.275 0 0.06 0.275 0 0.08 0.275 0 0.1 0.275 0 0 0.28 0 0.02 0.28 0 0.04 0.28 0 0.06 0.28 0 0.08 0.28 0 0.1 0.28 0 0 0.285 0 0.02 0.285 0 0.04 0.285 0 0.06 0.285 0 0.08 0.285 0 0.1 0.285 0 0 0.29 0 0.02 0.29 0 0.04 0.29 0 0.06 0.29 0 0.08 0.29 0 0.1 0.29 0 0 0.295 0 0.02 0.295 0 0.04 0.295 0 0.06 0.295 0 0.08 0.295 0 0.1 0.295 0 0 0.3 0 0.02 0.3 0 0.04 0.3 0 0.06 0.3 0 0.08 0.3 0 0.1 0.3 0 0 0.305 0 0.02 0.305 0 0.04 0.305 0 0.06 0.305 0 0.08 0.305 0 0.1 0.305 0 0 0.31 0 0.02 0.31 0 0.04 0.31 0 0.06 0.31 0 0.08 0.31 0 0.1 0.31 0 0 0.315 0 0.02 0.315 0 0.04 0.315 0 0.06 0.315 0 0.08 0.315 0 0.1 0.315 0 0 0.32 0 0.02 0.32 0 0.04 0.32 0 0.06 0.32 0 0.08 0.32 0 0.1 0.32 0 0 0.325 0 0.02 0.325 0 0.04 0.325 0 0.06 0.325 0 0.08 0.325 0 0.1 0.325 0 0 0.33 0 0.02 0.33 0 0.04 0.33 0 0.06 0.33 0 0.08 0.33 0 0.1 0.33 0 0 0.335 0 0.02 0.335 0 0.04 0.335 0 0.06 0.335 0 0.08 0.335 0 0.1 0.335 0 0 0.34 0 0.02 0.34 0 0.04 0.34 0 0.06 0.34 0 0.08 0.34 0 0.1 0.34 0 0 0.345 0 0.02 0.345 0 0.04 0.345 0 0.06 0.345 0 0.08 0.345 0 0.1 0.345 0 0 0.35 0 0.02 0.35 0 0.04 0.35 0 0.06 0.35 0 0.08 0.35 0 0.1 0.35 0 0 0.355 0 0.02 0.355 0 0.04 0.355 0 0.06 0.355 0 0.08 0.355 0 0.1 0.355 0 0 0.36 0 0.02 0.36 0 0.04 0.36 0 0.06 0.36 0 0.08 0.36 0 0.1 0.36 0 0 0.365 0 0.02 0.365 0 0.04 0.365 0 0.06 0.365 0 0.08 0.365 0 0.1 0.365 0 0 0.37 0 0.02 0.37 0 0.04 0.37 0 0.06 0.37 0 0.08 0.37 0 0.1 0.37 0 0 0.375 0 0.02 0.375 0 0.04 0.375 0 0.06 0.375 0 0.08 0.375 0 0.1 0.375 0 0 0.38 0 0.02 0.38 0 0.04 0.38 0 0.06 0.38 0 0.08 0.38 0 0.1 0.38 0 0 0.385 0 0.02 0.385 0 0.04 0.385 0 0.06 0.385 0 0.08 0.385 0 0.1 0.385 0 0 0.39 0 0.02 0.39 0 0.04 0.39 0 0.06 0.39 0 0.08 0.39 0 0.1 0.39 0 0 0.395 0 0.02 0.395 0 0.04 0.395 0 0.06 0.395 0 0.08 0.395 0 0.1 0.395 0 0 0.4 0 0.02 0.4 0 0.04 0.4 0 0.06 0.4 0 0.08 0.4 0 0.1 0.4 0 0 0.405 0 0.02 0.405 0 0.04 0.405 0 0.06 0.405 0 0.08 0.405 0 0.1 0.405 0 0 0.41 0 0.02 0.41 0 0.04 0.41 0 0.06 0.41 0 0.08 0.41 0 0.1 0.41 0 0 0.415 0 0.02 0.415 0 0.04 0.415 0 0.06 0.415 0 0.08 0.415 0 0.1 0.415 0 0 0.42 0 0.02 0.42 0 0.04 0.42 0 0.06 0.42 0 0.08 0.42 0 0.1 0.42 0 0 0.425 0 0.02 0.425 0 0.04 0.425 0 0.06 0.425 0 0.08 0.425 0 0.1 0.425 0 0 0.43 0 0.02 0.43 0 0.04 0.43 0 0.06 0.43 0 0.08 0.43 0 0.1 0.43 0 0 0.435 0 0.02 0.435 0 0.04 0.435 0 0.06 0.435 0 0.08 0.435 0 0.1 0.435 0 0 0.44 0 0.02 0.44 0 0.04 0.44 0 0.06 0.44 0 0.08 0.44 0 0.1 0.44 0 0 0.445 0 0.02 0.445 0 0.04 0.445 0 0.06 0.445 0 0.08 0.445 0 0.1 0.445 0 0 0.45 0 0.02 0.45 0 0.04 0.45 0 0.06 0.45 0 0.08 0.45 0 0.1 0.45 0 0 0.455 0 0.02 0.455 0 0.04 0.455 0 0.06 0.455 0 0.08 0.455 0 0.1 0.455 0 0 0.46 0 0.02 0.46 0 0.04 0.46 0 0.06 0.46 0 0.08 0.46 0 0.1 0.46 0 0 0.465 0 0.02 0.465 0 0.04 0.465 0 0.06 0.465 0 0.08 0.465 0 0.1 0.465 0 0 0.47 0 0.02 0.47 0 0.04 0.47 0 0.06 0.47 0 0.08 0.47 0 0.1 0.47 0 0 0.475 0 0.02 0.475 0 0.04 0.475 0 0.06 0.475 0 0.08 0.475 0 0.1 0.475 0 0 0.48 0 0.02 0.48 0 0.04 0.48 0 0.06 0.48 0 0.08 0.48 0 0.1 0.48 0 0 0.485 0 0.02 0.485 0 0.04 0.485 0 0.06 0.485 0 0.08 0.485 0 0.1 0.485 0 0 0.49 0 0.02 0.49 0 0.04 0.49 0 0.06 0.49 0 0.08 0.49 0 0.1 0.49 0 0 0.495 0 0.02 0.495 0 0.04 0.495 0 0.06 0.495 0 0.08 0.495 0 0.1 0.495 0 0 0.5 0 0.02 0.5 0 0.04 0.5 0 0.06 0.5 0 0.08 0.5 0 0.1 0.5 0 0 0.505 0 0.02 0.505 0 0.04 0.505 0 0.06 0.505 0 0.08 0.505 0 0.1 0.505 0 0 0.51 0 0.02 0.51 0 0.04 0.51 0 0.06 0.51 0 0.08 0.51 0 0.1 0.51 0 0 0.515 0 0.02 0.515 0 0.04 0.515 0 0.06 0.515 0 0.08 0.515 0 0.1 0.515 0 0 0.52 0 0.02 0.52 0 0.04 0.52 0 0.06 0.52 0 0.08 0.52 0 0.1 0.52 0 0 0.525 0 0.02 0.525 0 0.04 0.525 0 0.06 0.525 0 0.08 0.525 0 0.1 0.525 0 0 0.53 0 0.02 0.53 0 0.04 0.53 0 0.06 0.53 0 0.08 0.53 0 0.1 0.53 0 0 0.535 0 0.02 0.535 0 0.04 0.535 0 0.06 0.535 0 0.08 0.535 0 0.1 0.535 0 0 0.54 0 0.02 0.54 0 0.04 0.54 0 0.06 0.54 0 0.08 0.54 0 0.1 0.54 0 0 0.545 0 0.02 0.545 0 0.04 0.545 0 0.06 0.545 0 0.08 0.545 0 0.1 0.545 0 0 0.55 0 0.02 0.55 0 0.04 0.55 0 0.06 0.55 0 0.08 0.55 0 0.1 0.55 0 0 0.555 0 0.02 0.555 0 0.04 0.555 0 0.06 0.555 0 0.08 0.555 0 0.1 0.555 0 0 0.56 0 0.02 0.56 0 0.04 0.56 0 0.06 0.56 0 0.08 0.56 0 0.1 0.56 0 0 0.565 0 0.02 0.565 0 0.04 0.565 0 0.06 0.565 0 0.08 0.565 0 0.1 0.565 0 0 0.57 0 0.02 0.57 0 0.04 0.57 0 0.06 0.57 0 0.08 0.57 0 0.1 0.57 0 0 0.575 0 0.02 0.575 0 0.04 0.575 0 0.06 0.575 0 0.08 0.575 0 0.1 0.575 0 0 0.58 0 0.02 0.58 0 0.04 0.58 0 0.06 0.58 0 0.08 0.58 0 0.1 0.58 0 0 0.585 0 0.02 0.585 0 0.04 0.585 0 0.06 0.585 0 0.08 0.585 0 0.1 0.585 0 0 0.59 0 0.02 0.59 0 0.04 0.59 0 0.06 0.59 0 0.08 0.59 0 0.1 0.59 0 0 0.595 0 0.02 0.595 0 0.04 0.595 0 0.06 0.595 0 0.08 0.595 0 0.1 0.595 0 0 0.6 0 0.02 0.6 0 0.04 0.6 0 0.06 0.6 0 0.08 0.6 0 0.1 0.6 0 0 0.605 0 0.02 0.605 0 0.04 0.605 0 0.06 0.605 0 0.08 0.605 0 0.1 0.605 0 0 0.61 0 0.02 0.61 0 0.04 0.61 0 0.06 0.61 0 0.08 0.61 0 0.1 0.61 0 0 0.615 0 0.02 0.615 0 0.04 0.615 0 0.06 0.615 0 0.08 0.615 0 0.1 0.615 0 0 0.62 0 0.02 0.62 0 0.04 0.62 0 0.06 0.62 0 0.08 0.62 0 0.1 0.62 0 0 0.625 0 0.02 0.625 0 0.04 0.625 0 0.06 0.625 0 0.08 0.625 0 0.1 0.625 0 0 0.63 0 0.02 0.63 0 0.04 0.63 0 0.06 0.63 0 0.08 0.63 0 0.1 0.63 0 0 0.635 0 0.02 0.635 0 0.04 0.635 0 0.06 0.635 0 0.08 0.635 0 0.1 0.635 0 0 0.64 0 0.02 0.64 0 0.04 0.64 0 0.06 0.64 0 0.08 0.64 0 0.1 0.64 0 0 0.645 0 0.02 0.645 0 0.04 0.645 0 0.06 0.645 0 0.08 0.645 0 0.1 0.645 0 0 0.65 0 0.02 0.65 0 0.04 0.65 0 0.06 0.65 0 0.08 0.65 0 0.1 0.65 0 0 0.655 0 0.02 0.655 0 0.04 0.655 0 0.06 0.655 0 0.08 0.655 0 0.1 0.655 0 0 0.66 0 0.02 0.66 0 0.04 0.66 0 0.06 0.66 0 0.08 0.66 0 0.1 0.66 0 0 0.665 0 0.02 0.665 0 0.04 0.665 0 0.06 0.665 0 0.08 0.665 0 0.1 0.665 0 0 0.67 0 0.02 0.67 0 0.04 0.67 0 0.06 0.67 0 0.08 0.67 0 0.1 0.67 0 0 0.675 0 0.02 0.675 0 0.04 0.675 0 0.06 0.675 0 0.08 0.675 0 0.1 0.675 0 0 0.68 0 0.02 0.68 0 0.04 0.68 0 0.06 0.68 0 0.08 0.68 0 0.1 0.68 0 0 0.685 0 0.02 0.685 0 0.04 0.685 0 0.06 0.685 0 0.08 0.685 0 0.1 0.685 0 0 0.69 0 0.02 0.69 0 0.04 0.69 0 0.06 0.69 0 0.08 0.69 0 0.1 
[...]
			<PointData Scalars="VitesseX">
				<DataArray Name="VitesseX" type="Float32" format="ascii">
 0 -2.14049e-14 -1.68869e-14 -1.49259e-14 -1.12199e-14 0 0 -1.92644e-14 -1.98006e-14 -1.49448e-14 -9.7776e-15 0 0 -1.65484e-14 -2.42737e-14 -1.61722e-14 -6.01222e-15 0 0 -1.4145e-14 -3.01565e-14 -1.48576e-14 -4.73164e-15 0 0 -1.3388e-14 -3.37229e-14 -1.16741e-14 -6.9979e-15 0 0 -2.24101e-14 -2.14658e-14 -2.09946e-14 -2.80649e-15 0 0 -2.81898e-14 -1.46309e-14 -1.76219e-14 -8.6708e-15 0 0 -2.7086e-14 -2.55251e-14 1.08751e-14 -2.98765e-14 0 0 -3.11191e-14 -2.42706e-14 1.73684e-14 -3.08052e-14 0 0 -4.41056e-14 1.77825e-15 -1.53856e-14 3.25972e-15 0 0 -4.05531e-14 1.16632e-14 -3.5212e-14 2.78414e-14 0 0 -1.75068e-14 -7.00879e-15 -2.00872e-14 2.48354e-14 0 0 1.16949e-14 -4.60427e-14 2.7044e-14 -5.44384e-15 0 0 1.65609e-15 -2.32888e-14 1.59684e-14 -8.4868e-15 0 0 -2.72743e-14 2.60859e-14 -2.39018e-14 1.03772e-14 0 0 -9.75871e-15 -6.30508e-15 1.63707e-14 -1.83196e-14 0 0 -3.074e-14 2.6023e-14 -1.56389e-14 -6.10882e-15 0 0 -4.05084e-14 2.77002e-14 -2.38435e-14 -1.26758e-14 0 0 -1.52914e-14 -1.53014e-14 -1.10514e-14 -1.52405e-14 0 0 -1.28401e-14 -1.60953e-14 -3.54557e-14 3.45628e-15 0 0 -1.14845e-14 -4.56808e-14 6.70165e-15 -4.11508e-14 0 0 -4.1153e-14 -7.04766e-15 -1.26479e-14 -4.28435e-14 0 0 -3.25404e-14 -2.62027e-14 2.05718e-14 -7.13289e-14 0 0 -4.52735e-14 -2.14203e-14 2.53728e-14 -8.55034e-14 0 0 -4.47839e-14 -7.26511e-16 -3.20033e-14 -3.95723e-14 0 0 2.73841e-14 -9.52421e-14 2.2258e-14 -5.71635e-14 0 0 -3.41582e-15 -3.04651e-14 -3.76053e-14 -2.59085e-14 0 0 -2.44353e-15 -7.75992e-15 -6.05145e-14 -2.14701e-14 0 0 2.5782e-14 -4.4402e-14 -2.92214e-14 -4.10345e-14 0 0 1.79973e-14 -2.18687e-14 -7.68318e-14 1.0471e-14 0 0 9.04339e-15 -1.90666e-14 -9.64489e-14 4.77574e-14 0 0 5.03453e-15 -3.32814e-14 -6.60767e-14 2.77126e-14 0 0 -2.01728e-15 -2.01168e-14 -5.06761e-14 -2.29382e-15 0 0 -2.00997e-14 2.39897e-14 -7.93292e-14 1.43615e-14 0 0 1.29651e-14 -5.20713e-14 3.49451e-14 -5.3898e-14 0 0 2.52455e-14 -7.71556e-14 6.97345e-14 -6.01791e-14 0 0 -1.98887e-14 1.50973e-14 -6.91213e-14 5.75214e-14 0 0 -1.51531e-14 -1.72816e-15 -6.26402e-14 6.71892e-14 0 0 -9.64296e-15 -3.1773e-14 2.65866e-15 3.34448e-14 0 0 -1.32671e-14 -4.2782e-14 4.08215e-14 7.78533e-15 0 0 3.3205e-14 -1.19574e-13 1.17454e-13 -5.26933e-14 0 0 1.06451e-14 -6.98121e-14 4.2675e-14 -1.71206e-14 0 0 -1.80116e-14 -6.29153e-15 -5.9377e-14 5.72375e-14 0 0 6.29233e-15 -2.21835e-14 -3.53407e-14 5.43954e-14 0 0 -4.50001e-15 -2.22197e-14 -8.06436e-15 2.56507e-14 0 0 2.29539e-14 -1.01407e-13 2.35113e-14 2.83493e-14 0 0 1.61922e-14 -1.6336e-13 6.18461e-14 5.35787e-15 0 0 -6.22384e-14 -9.20414e-14 -4.27133e-14 3.6474e-14 0 0 -6.96173e-14 -6.43179e-14 -1.40979e-13 3.61286e-14 0 0 -5.97404e-14 -5.85963e-14 -1.81851e-13 3.22947e-14 0 0 -7.69732e-14 -3.61299e-14 -2.44454e-13 1.11783e-13 0 0 -1.14728e-13 -1.85827e-14 -2.08117e-13 9.67857e-14 0 0 4.23262e-15 -2.20377e-13 -2.43338e-14 4.95074e-14 0 0 6.22491e-14 -3.64648e-13 7.26321e-15 4.43874e-14 0 0 3.69908e-14 -2.31249e-13 -2.36291e-13 1.17927e-13 0 0 -4.28387e-14 -3.82913e-14 -3.84602e-13 1.13406e-13 0 0 -1.24141e-13 1.13053e-14 -2.80757e-13 -2.29757e-14 0 0 -1.64886e-14 -1.77223e-13 9.09665e-15 -2.11947e-13 0 0 3.74698e-14 -2.13682e-13 -3.27606e-14 -9.24414e-14 0 0 -2.29376e-14 -1.23429e-13 -1.81565e-13 6.1698e-14 0 0 -9.96753e-14 -1.45402e-13 -3.289e-14 -6.01105e-14 0 0 -1.73156e-13 -2.33991e-13 1.12159e-13 -1.14509e-13 0 0 -2.11947e-13 -2.48577e-13 9.06319e-14 -5.50746e-14 0 0 -2.66435e-13 -1.72698e-13 -7.23929e-14 9.34876e-14 0 0 -2.55704e-13 -1.29748e-13 -2.02604e-13 1.21565e-13 0 0 -2.26534e-13 -1.66382e-13 -2.32081e-13 7.61641e-14 0 0 -1.81989e-13 -2.63939e-13 -2.08012e-13 3.71406e-14 0 0 -9.15669e-14 -3.63609e-13 -2.24876e-13 8.03855e-14 0 0 -1.16968e-13 -3.491e-13 -3.33279e-13 1.94636e-13 0 0 -1.75863e-13 -2.8915e-13 -3.65141e-13 2.74658e-13 0 0 -2.37187e-13 -2.55385e-13 -3.53082e-13 2.55511e-13 0 0 -2.65942e-13 -2.84933e-13 -2.85871e-13 1.66396e-13 0 0 -2.61352e-13 -3.59521e-13 -2.23072e-13 1.3037e-13 0 0 -2.66337e-13 -3.58036e-13 -2.32626e-13 1.42912e-13 0 0 -2.89018e-13 -3.14051e-13 -2.7509e-13 1.68865e-13 0 0 -3.26118e-13 -2.09951e-13 -3.87144e-13 1.58698e-13 0 0 -3.3115e-13 -1.3343e-13 -4.32196e-13 1.08703e-13 0 0 -3.17073e-13 -1.40047e-13 -4.3202e-13 8.42015e-17 0 0 -2.68258e-13 -1.93957e-13 -4.34063e-13 -6.74627e-14 0 0 -2.39048e-13 -3.26082e-13 -4.63064e-13 -7.98938e-14 0 0 -3.29567e-13 -6.3702e-13 -6.69564e-13 -1.49198e-13 0 0 -7.04823e-13 -1.40873e-12 -1.38472e-12 -4.74215e-13 0 0 -1.87535e-12 -3.39128e-12 -3.40243e-12 -1.57566e-12 0 0 -5.09664e-12 -8.57677e-12 -8.70542e-12 -4.72597e-12 0 0 -1.33938e-11 -2.19155e-11 -2.219e-11 -1.3001e-11 0 0 -3.39626e-11 -5.51601e-11 -5.55496e-11 -3.36718e-11 0 0 -8.34385e-11 -1.35312e-10 -1.35791e-10 -8.34414e-11 0 0 -1.99001e-10 -3.22598e-10 -3.23296e-10 -1.9965e-10 0 0 -4.61111e-10 -7.4744e-10 -7.48903e-10 -4.63323e-10 0 0 -1.03866e-09 -1.68386e-09 -1.68772e-09 -1.04495e-09 0 0 -2.27574e-09 -3.69075e-09 -3.7013e-09 -2.29288e-09 0 0 -4.8531e-09 -7.87499e-09 -7.90317e-09 -4.8986e-09 0 0 -1.00841e-08 -1.63661e-08 -1.64392e-08 -1.01964e-08 0 0 -2.04617e-08 -3.3466e-08 -3.36253e-08 -2.08636e-08 0 0 -4.08582e-08 -6.53421e-08 -6.57917e-08 -4.08825e-08 0 0 -7.73625e-08 -1.30417e-07 -1.31358e-07 -8.16654e-08 0 0 -1.52081e-07 -2.37451e-07 -2.39382e-07 -1.49112e-07 0 0 -2.66348e-07 -4.47003e-07 -4.61775e-07 -2.87911e-07 0 0 -5.05326e-07 -8.20892e-07 -8.0555e-07 -5.02282e-07 0 0 -8.3875e-07 -1.3535e-06 -1.38572e-06 -8.7044e-07 0 0 -1.45169e-06 -2.45292e-06 -2.56789e-06 -1.60693e-06 0 0 -2.48946e-06 -4.00656e-06 -3.91441e-06 -2.45589e-06 0 0 -3.79936e-06 -6.25308e-06 -6.603e-06 -4.15171e-06 0 0 -5.98857e-06 -1.0061e-05 -1.04385e-05 -6.61436e-06 0 0 -9.22778e-06 -1.50842e-05 -1.50616e-05 -9.42596e-06 0 0 -1.2961e-05 -2.1327e-05 -2.18898e-05 -1.38198e-05 0 0 -1.77461e-05 -2.93699e-05 -3.01805e-05 -1.90114e-05 0 0 -2.28195e-05 -3.75749e-05 -3.83819e-05 -2.40888e-05 0 0 -2.793e-05 -4.56528e-05 -4.62357e-05 -2.88648e-05 0 0 -3.27998e-05 -5.32179e-05 -5.34141e-05 -3.31352e-05 0 0 -3.71614e-05 -5.98721e-05 -5.95785e-05 -3.66947e-05 0 0 -4.08779e-05 -6.53481e-05 -6.43791e-05 -3.92886e-05 0 0 -4.39158e-05 -6.94826e-05 -6.75017e-05 -4.10749e-05 0 0 -4.63163e-05 -7.2258e-05 -6.93164e-05 -4.07721e-05 0 0 -4.81341e-05 -7.38129e-05 -6.87106e-05 -3.99339e-05 0 0 -4.95105e-05 -7.43792e-05 -6.74295e-05 -3.8271e-05 0 0 -5.05939e-05 -7.46687e-05 -6.5733e-05 -3.61296e-05 0 0 -5.17329e-05 -7.5421e-05 -6.41861e-05 -3.43195e-05 0 0 -5.47302e-05 -7.75574e-05 -6.46289e-05 -3.25762e-05 0 0 -5.91499e-05 -8.30447e-05 -6.65952e-05 -3.27611e-05 0 0 -6.33432e-05 -8.92326e-05 -7.08623e-05 -3.38112e-05 0 0 -7.18807e-05 -0.000102494 -7.9654e-05 -3.63025e-05 0 0 -8.47135e-05 -0.000117536 -9.1121e-05 -4.02498e-05 0 0 -0.000100735 -0.000137218 -0.000105548 -4.57768e-05 0 0 -0.000116509 -0.000166781 -0.00012467 -5.30089e-05 0 0 -0.000136282 -0.000196292 -0.000148193 -6.13082e-05 0 0 -0.000162927 -0.0002307 -0.000176287 -7.1662e-05 0 0 -0.000196193 -0.000280813 -0.000207876 -8.21111e-05 0 0 -0.000249496 -0.000335866 -0.000239619 -9.2133e-05 0 0 -0.000307923 -0.000388792 -0.000268179 -0.000106216 0 0 -0.000372277 -0.000454181 -0.000296711 -0.000136585 0 0 -0.000459017 -0.000567358 -0.000353391 -0.000179312 0 0 -0.000585172 -0.000742814 -0.000529131 -0.000215394 0 0 -0.000765818 -0.000964341 -0.000727586 -0.000232434 0 0 -0.000962678 -0.00110661 -0.000730023 -0.000251807 0 0 -0.000998979 -0.00110159 -0.000700886 -0.000302884 0 0 -0.000980202 -0.00106883 -0.000599535 -0.0004008 0 0 -0.000908378 -0.00096682 -0.000560062 -0.00050505 0 0 -0.000691663 -0.0008219 -0.000634868 -0.000609427 0 0 -0.000494542 -0.000723768 -0.000924409 -0.000686024 0 0 -9.70386e-05 -0.000492517 -0.000947215 -0.00091162 0 0 0.000759592 0.000652287 -0.000350439 -0.00100022 0 0 0.00102633 0.00161656 0.000768626 -0.000660992 0 0 0.00099797 0.00162279 0.00119273 0.000200906 0 0 0.000889879 0.00147998 0.00120573 0.000610298 0 0 0.000756503 0.0012383 0.00115603 0.000606532 0 0 0.000644526 0.00101992 0.000961729 0.000557271 0 0 0.000559049 0.000836053 0.000740793 0.000422763 0 0 0.000488063 0.000687694 0.000559186 0.000280452 0 0 0.000421091 0.000573546 0.000430699 0.000188736 0 0 0.000358029 0.000489472 0.000372124 0.000182392 0 0 0.000302622 0.000427012 0.000354503 0.000182365 0 0 0.000255857 0.000376329 0.000337624 0.000182103 0 0 0.000215737 0.000329682 0.000306824 0.000176 0 0 0.000179643 0.000282279 0.000268286 0.000156281 0 0 0.000145907 0.000233217 0.00022503 0.000132544 0 0 0.000114499 0.000184411 0.0001798 0.000107293 0 0 8.89302e-05 0.000142538 0.000138795 8.33774e-05 0 0 7.30121e-05 0.000115793 0.000111333 6.65619e-05 0 0 6.36277e-05 0.000100806 9.64578e-05 5.75059e-05 0 0 5.54749e-05 8.83589e-05 8.51098e-05 5.09638e-05 0 0 4.83664e-05 7.68638e-05 7.45808e-05 4.48357e-05 0 0 4.55393e-05 7.16989e-05 6.94393e-05 4.16973e-05 0 0 4.5821e-05 7.21429e-05 6.98569e-05 4.19772e-05 0 0 4.79709e-05 7.58777e-05 7.37604e-05 4.45101e-05 0 0 4.98809e-05 7.93748e-05 7.76589e-05 4.71123e-05 0 0 5.00545e-05 7.99231e-05 7.85615e-05 4.78522e-05 0 0 4.84213e-05 7.76537e-05 7.67212e-05 4.69141e-05 0 0 4.39358e-05 7.0683e-05 7.01508e-05 4.30744e-05 0 0 3.75822e-05 6.05531e-05 6.02123e-05 3.7031e-05 0 0 2.96728e-05 4.78885e-05 4.77234e-05 2.94059e-05 0 0 2.1175e-05 3.42176e-05 3.41576e-05 2.1078e-05 0 0 1.33006e-05 2.1512e-05 2.14999e-05 1.32809e-05 0 0 7.1901e-06 1.16342e-05 1.16345e-05 7.19052e-06 0 0 3.31324e-06 5.3622e-06 5.36375e-06 3.31574e-06 0 0 1.32507e-06 2.14463e-06 2.1454e-06 1.32632e-06 0 0 4.79551e-07 7.76143e-07 7.76407e-07 4.79977e-07 0 0 1.63652e-07 2.64856e-07 2.64931e-07 1.63775e-07 0 0 5.40519e-08 8.74739e-08 8.74933e-08 5.40838e-08 0 0 1.74956e-08 2.83121e-08 2.8317e-08 1.75033e-08 0 0 5.58026e-09 9.0297e-09 9.0308e-09 5.58192e-09 0 0 1.75789e-09 2.84442e-09 2.8446e-09 1.75813e-09 0 0 5.47499e-10 8.85728e-10 8.85811e-10 5.47434e-10 0 0 1.68656e-10 2.72653e-10 2.72607e-10 1.68668e-10 0 0 5.13326e-11 8.29119e-11 8.2747e-11 5.13567e-11 0 0 1.53307e-11 2.48736e-11 2.45919e-11 1.53491e-11 0 0 4.48547e-12 7.20201e-12 7.03392e-12 4.41629e-12 0 0 1.18704e-12 1.99569e-12 1.63332e-12 1.24164e-12 0 0 2.51803e-13 3.74643e-13 1.19764e-13 2.28839e-13 0 0 -1.70273e-15 -1.84851e-13 -1.90547e-13 -1.14249e-13 0 0 -1.55899e-13 -2.02304e-13 -4.64429e-13 -7.49138e-14 0 0 -2.00641e-13 -1.67657e-13 -5.09821e-13 -1.69513e-13 0 0 -2.43953e-13 -1.53062e-13 -4.1609e-13 -3.49556e-13 0 0 -2.36365e-13 -2.45378e-13 -2.66913e-13 -3.99013e-13 0 0 -2.06199e-13 -2.84157e-13 -2.38708e-13 -2.53906e-13 0 0 -2.44975e-13 -1.7427e-13 -3.24437e-13 -2.32259e-13 0 0 -3.62744e-13 -2.51401e-14 -2.96767e-13 -3.62683e-13 0 0 -2.60927e-13 -1.91457e-13 -1.26064e-13 -4.6724e-13 0 0 -3.17503e-13 -6.74867e-14 -4.92088e-13 -1.27701e-13 0 0 -3.1488e-13 -5.59386e-14 -6.86897e-13 3.51433e-14 0 0 -5.72245e-14 -4.43302e-13 -3.62483e-13 -2.05382e-13 0
				</DataArray>
				<DataArray Name="VitesseY" type="Float32" format="ascii">