<?xml version="1.0"?>
<VTKFile type="PolyData">
	<PolyData>
		<Piece NumberOfPoints="1206" NumberOfPolys="1000">
			<Points>
				<DataArray type="Float32" NumberOfComponents="3" format="ascii">
 0 0 0 0.02 0 0 0.04 0 0 0.06 0 0 0.08 0 0 0.1 0 0 0 0.005 0 0.02 0.005 0 0.04 0.005 0 0.06 0.005 0 0.08 0.005 0 0.1 0.005 0 0 0.01 0 0.02 0.01 0 0.04 0.01 0 0.06 0.01 0 0.08 0.01 0 0.1 0.01 0 0 0.015 0 0.02 0.015 0 0.04 0.015 0 0.06 0.015 0 0.08 0.015 0 0.1 0.015 0 0 0.02 0 0.02 0.02 0 0.04 0.02 0 0.06 0.02 0 0.08 0.02 0 0.1 0.02 0 0 0.025 0 0.02 0.025 0 0.04 0.025 0 0.06 0.025 0 0.08 0.025 0 0.1 0.025 0 0 0.03 0 0.02 0.03 0 0.04 0.03 0 0.06 0.03 0 0.08 0.03 0 0.1 0.03 0 0 0.035 0 0.02 0.035 0 0.04 0.035 0 0.06 0.035 0 0.08 0.035 0 0.1 0.035 0 0 0.04 0 0.02 0.04 0 0.04 0.04 0 0.06 0.04 0 0.08 0.04 0 0.1 0.04 0 0 0.045 0 0.02 0.045 0 0.04 0.045 0 0.06 0.045 0 0.08 0.045 0 0.1 0.045 0 0 0.05 0 0.02 0.05 0 0.04 0.05 0 0.06 0.05 0 0.08 0.05 0 0.1 0.05 0 0 0.055 0 0.02 0.055 0 0.04 0.055 0 0.06 0.055 0 0.08 0.055 0 0.1 0.055 0 0 0.06 0 0.02 0.06 0 0.04 0.06 0 0.06 0.06 0 0.08 0.06 0 0.1 0.06 0 0 0.065 0 0.02 0.065 0 0.04 0.065 0 0.06 0.065 0 0.08 0.065 0 0.1 0.065 0 0 0.07 0 0.02 0.07 0 0.04 0.07 0 0.06 0.07 0 0.08 0.07 0 0.1 0.07 0 0 0.075 0 0.02 0.075 0 0.04 0.075 0 0.06 0.075 0 0.08 0.075 0 0.1 0.075 0 0 0.08 0 0.02 0.08 0 0.04 0.08 0 0.06 0.08 0 0.08 0.08 0 0.1 0.08 0 0 0.085 0 0.02 0.085 0 0.04 0.085 0 0.06 0.085 0 0.08 0.085 0 0.1 0.085 0 0 0.09 0 0.02 0.09 0 0.04 0.09 0 0.06 0.09 0 0.08 0.09 0 0.1 0.09 0 0 0.095 0 0.02 0.095 0 0.04 0.095 0 0.06 0.095 0 0.08 0.095 0 0.1 0.095 0 0 0.1 0 0.02 0.1 0 0.04 0.1 0 0.06 0.1 0 0.08 0.1 0 0.1 0.1 0 0 0.105 0 0.02 0.105 0 0.04 0.105 0 0.06 0.105 0 0.08 0.105 0 0.1 0.105 0 0 0.11 0 0.02 0.11 0 0.04 0.11 0 0.06 0.11 0 0.08 0.11 0 0.1 0.11 0 0 0.115 0 0.02 0.115 0 0.04 0.115 0 0.06 0.115 0 0.08 0.115 0 0.1 0.115 0 0 0.12 0 0.02 0.12 0 0.04 0.12 0 0.06 0.12 0 0.08 0.12 0 0.1 0.12 0 0 0.125 0 0.02 0.125 0 0.04 0.125 0 0.06 0.125 0 0.08 0.125 0 0.1 0.125 0 0 0.13 0 0.02 0.13 0 0.04 0.13 0 0.06 0.13 0 0.08 0.13 0 0.1 0.13 0 0 0.135 0 0.02 0.135 0 0.04 0.135 0 0.06 0.135 0 0.08 0.135 0 0.1 0.135 0 0 0.14 0 0.02 0.14 0 0.04 0.14 0 0.06 0.14 0 0.08 0.14 0 0.1 0.14 0 0 0.145 0 0.02 0.145 0 0.04 0.145 0 0.06 0.145 0 0.08 0.145 0 0.1 0.145 0 0 0.15 0 0.02 0.15 0 0.04 0.15 0 0.06 0.15 0 0.08 0.15 0 0.1 0.15 0 0 0.155 0 0.02 0.155 0 0.04 0.155 0 0.06 0.155 0 0.08 0.155 0 0.1 0.155 0 0 0.16 0 0.02 0.16 0 0.04 0.16 0 0.06 0.16 0 0.08 0.16 0 0.1 0.16 0 0 0.165 0 0.02 0.165 0 0.04 0.165 0 0.06 0.165 0 0.08 0.165 0 0.1 0.165 0 0 0.17 0 0.02 0.17 0 0.04 0.17 0 0.06 0.17 0 0.08 0.17 0 0.1 0.17 0 0 0.175 0 0.02 0.175 0 0.04 0.175 0 0.06 0.175 0 0.08 0.175 0 0.1 0.175 0 0 0.18 0 0.02 0.18 0 0.04 0.18 0 0.06 0.18 0 0.08 0.18 0 0.1 0.18 0 0 0.185 0 0.02 0.185 0 0.04 0.185 0 0.06 0.185 0 0.08 0.185 0 0.1 0.185 0 0 0.19 0 0.02 0.19 0 0.04 0.19 0 0.06 0.19 0 0.08 0.19 0 0.1 0.19 0 0 0.195 0 0.02 0.195 0 0.04 0.195 0 0.06 0.195 0 0.08 0.195 0 0.1 0.195 0 0 0.2 0 0.02 0.2 0 0.04 0.2 0 0.06 0.2 0 0.08 0.2 0 0.1 0.2 0 0 0.205 0 0.02 0.205 0 0.04 0.205 0 0.06 0.205 0 0.08 0.205 0 0.1 0.205 0 0 0.21 0 0.02 0.21 0 0.04 0.21 0 0.06 0.21 0 0.08 0.21 0 0.1 0.21 0 0 0.215 0 0.02 0.215 0 0.04 0.215 0 0.06 0.215 0 0.08 0.215 0 0.1 0.215 0 0 0.22 0 0.02 0.22 0 0.04 0.22 0 0.06 0.22 0 0.08 0.22 0 0.1 0.22 0 0 0.225 0 0.02 0.225 0 0.04 0.225 0 0.06 0.225 0 0.08 0.225 0 0.1 0.225 0 0 0.23 0 0.02 0.23 0 0.04 0.23 0 0.06 0.23 0 0.08 0.23 0 0.1 0.23 0 0 0.235 0 0.02 0.235 0 0.04 0.235 0 0.06 0.235 0 0.08 0.235 0 0.1 0.235 0 0 0.24 0 0.02 0.24 0 0.04 0.24 0 0.06 0.24 0 0.08 0.24 0 0.1 0.24 0 0 0.245 0 0.02 0.245 0 0.04 0.245 0 0.06 0.245 0 0.08 0.245 0 0.1 0.245 0 0 0.25 0 0.02 0.25 0 0.04 0.25 0 0.06 0.25 0 0.08 0.25 0 0.1 0.25 0 0 0.255 0 0.02 0.255 0 0.04 0.255 0 0.06 0.255 0 0.08 0.255 0 0.1 0.255 0 0 0.26 0 0.02 0.26 0 0.04 0.26 0 0.06 0.26 0 0.08 0.26 0 0.1 0.26 0 0 0.265 0 0.02 0.265 0 0.04 0.265 0 0.06 0.265 0 0.08 0.265 0 0.1 0.265 0 0 0.27 0 0.02 0.27 0 0.04 0.27 0 0.06 0.27 0 0.08 0.27 0 0.1 0.27 0 0 0.275 0 0.02 0.275 0 0.04 0.275 0 0.06 0.275 0 0.08 0.275 0 0.1 0.275 0 0 0.28 0 0.02 0.28 0 0.04 0.28 0 0.06 0.28 0 0.08 0.28 0 0.1 0.28 0 0 0.285 0 0.02 0.285 0 0.04 0.285 0 0.06 0.285 0 0.08 0.285 0 0.1 0.285 0 0 0.29 0 0.02 0.29 0 0.04 0.29 0 0.06 0.29 0 0.08 0.29 0 0.1 0.29 0 0 0.295 0 0.02 0.295 0 0.04 0.295 0 0.06 0.295 0 0.08 0.295 0 0.1 0.295 0 0 0.3 0 0.02 0.3 0 0.04 0.3 0 0.06 0.3 0 0.08 0.3 0 0.1 0.3 0 0 0.305 0 0.02 0.305 0 0.04 0.305 0 0.06 0.305 0 0.08 0.305 0 0.1 0.305 0 0 0.31 0 0.02 0.31 0 0.04 0.31 0 0.06 0.31 0 0.08 0.31 0 0.1 0.31 0 0 0.315 0 0.02 0.315 0 0.04 0.315 0 0.06 0.315 0 0.08 0.315 0 0.1 0.315 0 0 0.32 0 0.02 0.32 0 0.04 0.32 0 0.06 0.32 0 0.08 0.32 0 0.1 0.32 0 0 0.325 0 0.02 0.325 0 0.04 0.325 0 0.06 0.325 0 0.08 0.325 0 0.1 0.325 0 0 0.33 0 0.02 0.33 0 0.04 0.33 0 0.06 0.33 0 0.08 0.33 0 0.1 0.33 0 0 0.335 0 0.02 0.335 0 0.04 0.335 0 0.06 0.335 0 0.08 0.335 0 0.1 0.335 0 0 0.34 0 0.02 0.34 0 0.04 0.34 0 0.06 0.34 0 0.08 0.34 0 0.1 0.34 0 0 0.345 0 0.02 0.345 0 0.04 0.345 0 0.06 0.345 0 0.08 0.345 0 0.1 0.345 0 0 0.35 0 0.02 0.35 0 0.04 0.35 0 0.06 0.35 0 0.08 0.35 0 0.1 0.35 0 0 0.355 0 0.02 0.355 0 0.04 0.355 0 0.06 0.355 0 0.08 0.355 0 0.1 0.355 0 0 0.36 0 0.02 0.36 0 0.04 0.36 0 0.06 0.36 0 0.08 0.36 0 0.1 0.36 0 0 0.365 0 0.02 0.365 0 0.04 0.365 0 0.06 0.365 0 0.08 0.365 0 0.1 0.365 0 0 0.37 0 0.02 0.37 0 0.04 0.37 0 0.06 0.37 0 0.08 0.37 0 0.1 0.37 0 0 0.375 0 0.02 0.375 0 0.04 0.375 0 0.06 0.375 0 0.08 0.375 0 0.1 0.375 0 0 0.38 0 0.02 0.38 0 0.04 0.38 0 0.06 0.38 0 0.08 0.38 0 0.1 0.38 0 0 0.385 0 0.02 0.385 0 0.04 0.385 0 0.06 0.385 0 0.08 0.385 0 0.1 0.385 0 0 0.39 0 0.02 0.39 0 0.04 0.39 0 0.06 0.39 0 0.08 0.39 0 0.1 0.39 0 0 0.395 0 0.02 0.395 0 0.04 0.395 0 0.06 0.395 0 0.08 0.395 0 0.1 0.395 0 0 0.4 0 0.02 0.4 0 0.04 0.4 0 0.06 0.4 0 0.08 0.4 0 0.1 0.4 0 0 0.405 0 0.02 0.405 0 0.04 0.405 0 0.06 0.405 0 0.08 0.405 0 0.1 0.405 0 0 0.41 0 0.02 0.41 0 0.04 0.41 0 0.06 0.41 0 0.08 0.41 0 0.1 0.41 0 0 0.415 0 0.02 0.415 0 0.04 0.415 0 0.06 0.415 0 0.08 0.415 0 0.1 0.415 0 0 0.42 0 0.02 0.42 0 0.04 0.42 0 0.06 0.42 0 0.08 0.42 0 0.1 0.42 0 0 0.425 0 0.02 0.425 0 0.04 0.425 0 0.06 0.425 0 0.08 0.425 0 0.1 0.425 0 0 0.43 0 0.02 0.43 0 0.04 0.43 0 0.06 0.43 0 0.08 0.43 0 0.1 0.43 0 0 0.435 0 0.02 0.435 0 0.04 0.435 0 0.06 0.435 0 0.08 0.435 0 0.1 0.435 0 0 0.44 0 0.02 0.44 0 0.04 0.44 0 0.06 0.44 0 0.08 0.44 0 0.1 0.44 0 0 0.445 0 0.02 0.445 0 0.04 0.445 0 0.06 0.445 0 0.08 0.445 0 0.1 0.445 0 0 0.45 0 0.02 0.45 0 0.04 0.45 0 0.06 0.45 0 0.08 0.45 0 0.1 0.45 0 0 0.455 0 0.02 0.455 0 0.04 0.455 0 0.06 0.455 0 0.08 0.455 0 0.1 0.455 0 0 0.46 0 0.02 0.46 0 0.04 0.46 0 0.06 0.46 0 0.08 0.46 0 0.1 0.46 0 0 0.465 0 0.02 0.465 0 0.04 0.465 0 0.06 0.465 0 0.08 0.465 0 0.1 0.465 0 0 0.47 0 0.02 0.47 0 0.04 0.47 0 0.06 0.47 0 0.08 0.47 0 0.1 0.47 0 0 0.475 0 0.02 0.475 0 0.04 0.475 0 0.06 0.475 0 0.08 0.475 0 0.1 0.475 0 0 0.48 0 0.02 0.48 0 0.04 0.48 0 0.06 0.48 0 0.08 0.48 0 0.1 0.48 0 0 0.485 0 0.02 0.485 0 0.04 0.485 0 0.06 0.485 0 0.08 0.485 0 0.1 0.485 0 0 0.49 0 0.02 0.49 0 0.04 0.49 0 0.06 0.49 0 0.08 0.49 0 0.1 0.49 0 0 0.495 0 0.02 0.495 0 0.04 0.495 0 0.06 0.495 0 0.08 0.495 0 0.1 0.495 0 0 0.5 0 0.02 0.5 0 0.04 0.5 0 0.06 0.5 0 0.08 0.5 0 0.1 0.5 0 0 0.505 0 0.02 0.505 0 0.04 0.505 0 0.06 0.505 0 0.08 0.505 0 0.1 0.505 0 0 0.51 0 0.02 0.51 0 0.04 0.51 0 0.06 0.51 0 0.08 0.51 0 0.1 0.51 0 0 0.515 0 0.02 0.515 0 0.04 0.515 0 0.06 0.515 0 0.08 0.515 0 0.1 0.515 0 0 0.52 0 0.02 0.52 0 0.04 0.52 0 0.06 0.52 0 0.08 0.52 0 0.1 0.52 0 0 0.525 0 0.02 0.525 0 0.04 0.525 0 0.06 0.525 0 0.08 0.525 0 0.1 0.525 0 0 0.53 0 0.02 0.53 0 0.04 0.53 0 0.06 0.53 0 0.08 0.53 0 0.1 0.53 0 0 0.535 0 0.02 0.535 0 0.04 0.535 0 0.06 0.535 0 0.08 0.535 0 0.1 0.535 0 0 0.54 0 0.02 0.54 0 0.04 0.54 0 0.06 0.54 0 0.08 0.54 0 0.1 0.54 0 0 0.545 0 0.02 0.545 0 0.04 0.545 0 0.06 0.545 0 0.08 0.545 0 0.1 0.545 0 0 0.55 0 0.02 0.55 0 0.04 0.55 0 0.06 0.55 0 0.08 0.55 0 0.1 0.55 0 0 0.555 0 0.02 0.555 0 0.04 0.555 0 0.06 0.555 0 0.08 0.555 0 0.1 0.555 0 0 0.56 0 0.02 0.56 0 0.04 0.56 0 0.06 0.56 0 0.08 0.56 0 0.1 0.56 0 0 0.565 0 0.02 0.565 0 0.04 0.565 0 0.06 0.565 0 0.08 0.565 0 0.1 0.565 0 0 0.57 0 0.02 0.57 0 0.04 0.57 0 0.06 0.57 0 0.08 0.57 0 0.1 0.57 0 0 0.575 0 0.02 0.575 0 0.04 0.575 0 0.06 0.575 0 0.08 0.575 0 0.1 0.575 0 0 0.58 0 0.02 0.58 0 0.04 0.58 0 0.06 0.58 0 0.08 0.58 0 0.1 0.58 0 0 0.585 0 0.02 0.585 0 0.04 0.585 0 0.06 0.585 0 0.08 0.585 0 0.1 0.585 0 0 0.59 0 0.02 0.59 0 0.04 0.59 0 0.06 0.59 0 0.08 0.59 0 0.1 0.59 0 0 0.595 0 0.02 0.595 0 0.04 0.595 0 0.06 0.595 0 0.08 0.595 0 0.1 0.595 0 0 0.6 0 0.02 0.6 0 0.04 0.6 0 0.06 0.6 0 0.08 0.6 0 0.1 0.6 0 0 0.605 0 0.02 0.605 0 0.04 0.605 0 0.06 0.605 0 0.08 0.605 0 0.1 0.605 0 0 0.61 0 0.02 0.61 0 0.04 0.61 0 0.06 0.61 0 0.08 0.61 0 0.1 0.61 0 0 0.615 0 0.02 0.615 0 0.04 0.615 0 0.06 0.615 0 0.08 0.615 0 0.1 0.615 0 0 0.62 0 0.02 0.62 0 0.04 0.62 0 0.06 0.62 0 0.08 0.62 0 0.1 0.62 0 0 0.625 0 0.02 0.625 0 0.04 0.625 0 0.06 0.625 0 0.08 0.625 0 0.1 0.625 0 0 0.63 0 0.02 0.63 0 0.04 0.63 0 0.06 0.63 0 0.08 0.63 0 0.1 0.63 0 0 0.635 0 0.02 0.635 0 0.04 0.635 0 0.06 0.635 0 0.08 0.635 0 0.1 0.635 0 0 0.64 0 0.02 0.64 0 0.04 0.64 0 0.06 0.64 0 0.08 0.64 0 0.1 0.64 0 0 0.645 0 0.02 0.645 0 0.04 0.645 0 0.06 0.645 0 0.08 0.645 0 0.1 0.645 0 0 0.65 0 0.02 0.65 0 0.04 0.65 0 0.06 0.65 0 0.08 0.65 0 0.1 0.65 0 0 0.655 0 0.02 0.655 0 0.04 0.655 0 0.06 0.655 0 0.08 0.655 0 0.1 0.655 0 0 0.66 0 0.02 0.66 0 0.04 0.66 0 0.06 0.66 0 0.08 0.66 0 0.1 0.66 0 0 0.665 0 0.02 0.665 0 0.04 0.665 0 0.06 0.665 0 0.08 0.665 0 0.1 0.665 0 0 0.67 0 0.02 0.67 0 0.04 0.67 0 0.06 0.67 0 0.08 0.67 0 0.1 0.67 0 0 0.675 0 0.02 0.675 0 0.04 0.675 0 0.06 0.675 0 0.08 0.675 0 0.1 0.675 0 0 0.68 0 0.02 0.68 0 0.04 0.68 0 0.06 0.68 0 0.08 0.68 0 0.1 0.68 0 0 0.685 0 0.02 0.685 0 0.04 0.685 0 0.06 0.685 0 0.08 0.685 0 0.1 0.685 0 0 0.69 0 0.02 0.69 0 0.04 0.69 0 0.06 0.69 0 0.08 0.69 0 0.1 
[...]
			<PointData Scalars="VitesseX">
				<DataArray Name="VitesseX" type="Float32" format="ascii">
 0 -3.23865e-14 1.85203e-14 -6.0405e-15 -1.0916e-14 0 0 -2.55244e-14 6.36379e-15 6.26259e-15 -1.93906e-14 0 0 -1.89706e-14 -9.53532e-16 8.33431e-15 -2.18688e-14 0 0 -5.31864e-15 -1.45499e-14 2.66677e-15 -8.76162e-15 0 0 1.05151e-14 -4.02864e-14 1.55124e-14 1.13183e-15 0 0 -4.25574e-15 -2.78313e-14 1.18481e-14 1.87833e-14 0 0 -4.49037e-14 2.97397e-14 -1.86198e-14 4.26728e-14 0 0 -5.36168e-14 4.15566e-14 3.49525e-15 2.30839e-14 0 0 -3.8213e-14 2.15914e-14 3.48487e-14 5.70067e-15 0 0 -2.2243e-15 -2.10897e-14 7.40757e-14 -9.7211e-15 0 0 4.11893e-14 -6.87851e-14 1.17712e-13 -3.56788e-14 0 0 1.40039e-14 -8.40674e-15 4.50637e-14 3.98321e-15 0 0 1.3567e-15 2.12491e-14 9.20622e-15 2.02619e-14 0 0 5.69479e-15 3.00595e-15 3.10422e-14 -7.48608e-15 0 0 2.48516e-14 -3.84401e-14 4.4449e-14 -6.66921e-15 0 0 2.86435e-14 -3.93342e-14 1.65156e-14 1.69658e-14 0 0 -3.21691e-15 1.11971e-14 -3.77163e-14 2.33077e-14 0 0 5.60043e-14 -7.69543e-14 3.34217e-14 -1.41124e-14 0 0 8.45232e-14 -1.17306e-13 8.66983e-14 -4.53825e-14 0 0 9.59306e-15 -1.46405e-14 4.11998e-14 -5.27457e-14 0 0 -5.83618e-14 8.1444e-14 -2.07852e-14 -3.95464e-14 0 0 -3.98612e-14 5.93125e-14 -2.97363e-14 -1.65068e-14 0 0 1.75827e-14 -4.43498e-14 3.29265e-14 -2.21651e-14 0 0 -6.51198e-15 -2.13947e-14 -9.9864e-15 1.9505e-14 0 0 -6.61175e-14 3.07437e-14 -4.4198e-14 4.23365e-14 0 0 -8.99707e-14 2.15807e-14 -1.15883e-14 1.98783e-14 0 0 -3.47154e-14 -4.06059e-14 3.65838e-15 3.62751e-14 0 0 3.70017e-14 -1.30074e-13 4.43154e-14 4.67224e-14 0 0 -2.06723e-14 -4.28353e-14 -2.01495e-14 7.17981e-14 0 0 -9.67986e-14 7.83391e-14 -1.00229e-13 8.74827e-14 0 0 -8.94899e-14 7.3519e-14 -6.3323e-14 5.94631e-14 0 0 -4.32638e-14 1.69307e-14 5.05619e-15 3.52236e-14 0 0 5.98641e-15 -3.60674e-14 6.59796e-14 7.91731e-15 0 0 2.85204e-14 -5.22942e-14 1.28224e-13 -6.78946e-14 0 0 -5.01634e-14 6.36493e-14 3.14275e-14 -3.23423e-14 0 0 -1.42158e-13 1.79585e-13 -3.87131e-14 -2.82341e-14 0 0 -5.52321e-14 4.14988e-14 1.01579e-13 -1.05017e-13 0 0 4.05253e-14 -1.16691e-13 2.24143e-13 -1.32478e-13 0 0 5.92376e-14 -1.62311e-13 2.66885e-13 -1.83238e-13 0 0 -5.24512e-14 1.37192e-14 1.03283e-13 -9.68027e-14 0 0 -1.34507e-13 1.77369e-13 -6.7367e-14 -1.21432e-14 0 0 -5.69129e-14 7.99959e-14 -3.92761e-14 3.91076e-14 0 0 -6.32551e-15 -4.64345e-14 5.40497e-14 9.11507e-14 0 0 -1.62572e-13 1.21246e-13 -8.81455e-14 1.87046e-13 0 0 -2.39418e-13 1.54351e-13 -7.94721e-14 1.45937e-13 0 0 -1.3542e-13 -2.45882e-14 1.05098e-13 -1.58667e-14 0 0 6.78248e-16 -1.43688e-13 1.48464e-13 -2.85483e-14 0 0 5.87039e-14 -1.69132e-13 1.92891e-13 -1.05654e-13 0 0 -7.33784e-14 5.02717e-14 9.59395e-14 -1.78041e-13 0 0 -2.83877e-13 3.94933e-13 -1.10872e-13 -1.74908e-13 0 0 -3.85602e-13 6.2286e-13 -3.02269e-13 -9.63947e-14 0 0 -9.43149e-14 3.23473e-13 -2.08263e-13 -5.57707e-14 0 0 1.46096e-13 3.37138e-14 -1.91067e-14 -1.94622e-13 0 0 1.57468e-13 -2.7563e-14 1.2861e-13 -3.92334e-13 0 0 -5.74319e-14 1.36222e-13 4.91567e-14 -3.66228e-13 0 0 -2.48136e-13 2.73373e-13 -8.29875e-14 -2.51591e-13 0 0 -7.81436e-14 9.11093e-14 -2.9235e-15 -2.61112e-13 0 0 -9.0992e-14 2.57677e-13 -2.49251e-13 -1.3037e-13 0 0 1.55559e-14 7.17849e-14 -9.366e-14 -2.21492e-13 0 0 1.56371e-14 -3.04719e-14 1.94781e-14 -2.31045e-13 0 0 -1.31452e-13 9.24202e-14 -4.08324e-14 -2.22147e-13 0 0 -6.58829e-16 -1.10967e-13 1.13427e-13 -3.51745e-13 0 0 -7.42859e-14 8.43808e-14 -1.48998e-13 -2.15445e-13 0 0 -1.27439e-13 1.87289e-13 -2.4451e-13 -1.57261e-13 0 0 -5.68721e-14 4.88523e-14 -1.4039e-13 -9.43875e-14 0 0 -2.8212e-14 -4.45226e-14 -5.90292e-14 -6.18984e-15 0 0 2.7841e-14 -1.79303e-13 2.11783e-13 -1.38399e-13 0 0 -1.00909e-13 4.40199e-14 1.69274e-13 -1.63368e-13 0 0 -1.9186e-13 2.61044e-13 -2.41939e-14 -4.1338e-14 0 0 -4.29138e-14 7.57155e-14 5.45911e-14 -1.07899e-14 0 0 -8.56444e-15 8.1468e-14 -2.20378e-14 5.43628e-14 0 0 2.18457e-14 8.46314e-14 7.58164e-14 -1.59042e-13 0 0 -1.21697e-13 3.24494e-13 -7.16702e-16 -3.58489e-13 0 0 -1.50785e-13 3.99683e-13 -9.04813e-14 -3.30217e-13 0 0 -1.22335e-14 2.19159e-13 6.06561e-15 -2.67835e-13 0 0 1.77235e-13 -5.2121e-14 1.9617e-13 -2.7809e-13 0 0 1.45715e-13 -1.64512e-14 1.62965e-13 -2.44556e-13 0 0 -1.38536e-13 4.6441e-13 -2.23094e-13 -4.42113e-14 0 0 -7.79447e-15 3.32777e-13 -5.95005e-14 -2.74612e-14 0 0 6.57331e-14 1.84067e-13 1.29235e-13 -2.05741e-14 0 0 1.28411e-13 8.31917e-14 8.19357e-14 1.17075e-13 0 0 2.36443e-13 -1.92352e-13 3.15705e-13 -5.84073e-14 0 0 -4.86262e-14 -6.36582e-14 4.57613e-13 -2.80457e-13 0 0 -1.04895e-13 -4.37894e-14 3.49526e-13 -4.80426e-14 0 0 -9.47714e-14 8.62238e-14 -6.27723e-14 4.31201e-13 0 0 -1.02037e-13 7.06483e-14 -1.00417e-13 4.37376e-13 0 0 3.64351e-13 -5.45839e-13 2.26402e-13 2.10393e-13 0 0 2.48305e-14 -3.26539e-13 2.05394e-14 3.02047e-13 0 0 -8.45063e-13 3.7346e-13 -1.89712e-13 2.47898e-13 0 0 -4.15094e-13 7.44709e-15 -4.79678e-14 4.23928e-13 0 0 1.69154e-13 -5.5482e-13 1.38006e-13 6.31519e-13 0 0 1.85938e-13 -5.68812e-13 2.35195e-13 4.61817e-13 0 0 -1.43406e-13 -3.2322e-13 3.13767e-13 1.10027e-13 0 0 -9.02169e-13 5.19872e-13 5.42145e-14 -1.64574e-13 0 0 -6.67278e-13 4.42702e-13 6.96486e-14 -1.23986e-13 0 0 4.28575e-14 -2.64631e-14 3.20765e-13 -1.64088e-13 0 0 -7.28804e-15 -1.54967e-13 2.20192e-13 -8.93057e-14 0 0 1.96922e-13 2.00467e-13 4.70511e-13 3.74057e-13 0 0 1.03089e-11 2.24323e-11 3.05409e-11 2.32887e-11 0 0 3.54699e-10 9.49912e-10 1.4592e-09 1.17867e-09 0 0 6.08943e-09 2.3588e-08 4.44316e-08 3.97051e-08 0 0 1.28429e-08 2.90537e-07 7.05878e-07 7.50103e-07 0 0 -5.33855e-07 -3.20313e-07 4.94604e-06 8.35531e-06 0 0 -8.42903e-07 -1.09832e-05 -2.49185e-05 -2.12643e-05 0 0 -2.8861e-08 -3.807e-05 -0.000140348 -0.00015094 0 0 -1.61207e-05 -2.57657e-05 -0.000147113 -0.000221413 0 0 -1.91585e-05 5.06437e-06 -7.39177e-05 -0.000156749 0 0 1.56054e-06 2.5768e-05 5.68495e-05 2.90059e-05 0 0 4.79327e-05 2.21109e-05 0.000172631 0.000223034 0 0 6.07747e-05 2.0399e-05 0.000204271 0.000331551 0 0 4.49823e-05 2.7118e-05 0.000201389 0.000318937 0 0 7.76375e-06 2.89682e-05 0.000143976 0.00020136 0 0 -1.16823e-07 1.69601e-05 4.24747e-05 4.41499e-05 0 0 8.44782e-07 6.44548e-06 1.2381e-05 1.12118e-05 0 0 7.61179e-07 2.49529e-06 4.29234e-06 3.62537e-06 0 0 3.7389e-07 9.29349e-07 1.40283e-06 1.11279e-06 0 0 1.3693e-07 3.0798e-07 4.16584e-07 3.11806e-07 0 0 4.27446e-08 8.60606e-08 1.06498e-07 7.58149e-08 0 0 9.37248e-09 1.68089e-08 1.87592e-08 1.25296e-08 0 0 1.29036e-09 2.09408e-09 2.10096e-09 1.30147e-09 0 0 9.70795e-11 1.44263e-10 1.29329e-10 7.26375e-11 0 0 2.53263e-12 3.04118e-12 1.24457e-12 5.95821e-14 0 0 -4.65874e-13 -2.18133e-13 -8.95988e-13 -2.5397e-13 0 0 -5.21889e-14 -9.10814e-14 -1.85048e-13 -2.61825e-14 0 0 1.3264e-13 -1.77124e-13 8.06986e-15 -4.00842e-14 0 0 9.63199e-14 -1.58411e-13 5.53611e-14 -1.01929e-13 0 0 -6.15033e-14 5.84969e-15 3.78568e-15 -1.31006e-13 0 0 -2.29065e-13 2.66495e-13 -2.84063e-13 9.18428e-14 0 0 -2.98127e-14 -1.91184e-14 -1.21564e-13 1.1608e-14 0 0 1.96107e-13 -3.18524e-13 6.14278e-14 -4.28181e-14 0 0 1.3934e-13 -1.85597e-13 -1.26772e-13 8.84553e-14 0 0 -7.58196e-14 8.83003e-14 -3.34621e-13 1.11718e-13 0 0 -2.91135e-13 3.47857e-13 -5.28695e-13 1.79549e-13 0 0 -8.71539e-14 4.62806e-14 -2.99418e-13 7.82892e-14 0 0 1.42914e-13 -2.82226e-13 -1.57716e-13 8.7741e-14 0 0 4.9178e-14 -3.19115e-13 -1.16907e-13 6.36256e-14 0 0 -1.66961e-13 -1.58428e-13 -1.63923e-13 1.40764e-14 0 0 -2.81352e-13 6.41701e-14 -3.56002e-13 6.18863e-14 0 0 -1.60033e-13 -1.17973e-13 -1.04792e-13 -1.10452e-13 0 0 -1.57007e-13 -2.41251e-13 6.70578e-14 -1.08157e-13 0 0 -2.97126e-13 -1.5572e-13 8.82059e-14 -3.43754e-14 0 0 -2.41784e-13 -2.54929e-13 3.82763e-13 -2.18914e-13 0 0 -5.40838e-13 2.45475e-13 -3.76662e-14 4.84917e-14 0 0 -7.14833e-13 4.25271e-13 -1.70296e-13 1.94155e-13 0 0 -1.23361e-13 -4.79086e-13 6.35099e-13 -1.39937e-13 0 0 1.7918e-13 -5.86697e-13 5.76602e-13 -1.9128e-13 0 0 -6.32673e-14 -4.22711e-14 2.18106e-13 -2.21141e-13 0 0 -5.29247e-13 6.81379e-13 -2.66798e-13 5.84073e-14 0 0 -4.80204e-13 6.47658e-13 -2.01037e-13 2.37422e-13 0 0 8.29852e-14 -4.70995e-13 1.04681e-12 -3.25995e-13 0 0 -8.46535e-15 -4.7384e-13 1.04614e-12 -3.01723e-13 0 0 -4.49182e-13 2.75835e-13 1.36256e-13 2.12844e-13 0 0 -5.46039e-13 4.55676e-13 -2.76591e-13 5.51773e-13 0 0 -3.95419e-13 2.23473e-13 -3.22432e-13 6.32933e-13 0 0 7.54795e-14 -4.23359e-13 4.4964e-14 3.47612e-13 0 0 1.4297e-13 -5.18083e-13 8.45507e-14 1.42929e-13 0 0 -3.03867e-13 -1.92869e-14 -1.43445e-13 3.05878e-14 0 0 -7.15713e-13 3.45987e-13 -2.52388e-13 -9.63218e-14 0 0 -4.80257e-13 -1.01321e-13 1.68316e-13 -5.48914e-13 0 0 2.60642e-13 -1.10632e-12 7.411e-13 -8.80206e-13 0 0 2.99616e-13 -1.22195e-12 6.08709e-13 -7.59173e-13 0 0 -7.77207e-13 3.49446e-13 -9.12594e-13 9.02268e-14 0 0 -1.26451e-12 1.05438e-12 -1.46798e-12 5.29826e-13 0 0 -3.52803e-13 -2.19754e-13 -2.52185e-13 1.55432e-13 0 0 3.68437e-13 -1.24085e-12 6.29547e-13 -1.30084e-13 0 0 1.8413e-13 -1.15062e-12 6.7181e-13 -1.73788e-13 0 0 -3.76627e-13 -3.32445e-13 -1.78218e-13 1.41241e-13 0 0 -5.28691e-13 1.45201e-13 -1.13355e-12 7.00701e-13 0 0 -3.5154e-13 7.94664e-14 -1.42029e-12 9.88559e-13 0 0 -4.80919e-13 1.96568e-13 -1.36237e-12 9.33379e-13 0 0 -4.38646e-13 -1.69615e-13 -4.89184e-13 2.11629e-13 0 0 -3.93525e-14 -9.55836e-13 5.04264e-13 -7.00482e-13 0 0 -9.94008e-14 -6.43911e-13 -8.1463e-14 -4.53032e-13 0 0 -3.6914e-13 -1.81593e-13 -5.16927e-13 -2.81129e-13 0 0 -5.70066e-13 8.99241e-14 -6.66329e-13 -2.2037e-13 0 0 -3.77215e-13 -4.13642e-14 -6.7618e-13 -9.01873e-14 0 0 1.89311e-13 -9.5667e-13 1.36658e-13 -4.66793e-13 0 0 8.12085e-14 -8.99729e-13 2.02304e-14 -2.57887e-13 0 0 -4.45504e-13 -1.25488e-13 -6.23831e-13 1.10508e-13 0 0 -8.37316e-13 4.53756e-13 -9.18627e-13 1.772e-13 0 0 -5.56335e-13 5.61163e-14 -6.38493e-13 1.51542e-13 0 0 1.31929e-13 -9.62961e-13 1.31696e-13 -2.81528e-13 0 0 1.03784e-13 -9.19103e-13 -9.34099e-14 -1.43183e-13 0 0 -3.13905e-13 -3.95703e-13 -5.57667e-13 1.51496e-13 0 0 -7.64364e-13 1.82254e-13 -7.35485e-13 9.85123e-15 0 0 -5.06658e-13 -1.75915e-13 -2.53572e-13 -3.37638e-13 0 0 1.29607e-13 -9.31542e-13 3.2907e-13 -6.82685e-13 0 0 -9.5927e-14 -6.48541e-13 -3.41002e-14 -3.44351e-13 0 0 -7.48031e-13 -1.75499e-13 -1.60748e-13 -1.71084e-13 0 0 -1.15836e-12 4.07701e-13 -5.49496e-13 -1.37124e-13 0 0 -5.85499e-13 -2.72544e-13 -2.39651e-15 -4.88146e-13 0 0 4.05466e-14 -1.05753e-12 6.47946e-13 -8.37499e-13 0 0 -7.93486e-13 3.07881e-13 -5.05715e-13 -3.02612e-13 0 0 -1.41885e-12 1.0113e-12 -6.56878e-13 -3.83456e-13 0 0 -5.35054e-13 -3.30542e-13 6.79478e-13 -1.14937e-12 0 0 4.69918e-13 -1.48793e-12 1.36955e-12 -1.42669e-12 0 0 1.9627e-13 -7.95277e-13 6.76874e-13 -1.16285e-12 0 0 -1.0961e-12 1.02952e-12 -6.36822e-13 -7.20894e-13 0 0 -1.27021e-12 1.13656e-12 -5.3806e-13 -1.05422e-12 0 0 -3.16893e-14 -6.10909e-13 7.70214e-13 -1.74396e-12 0 0 6.23129e-13 -1.48425e-12 1.28138e-12 -1.8302e-12 0
				</DataArray>
				<DataArray Name="VitesseY" type="Float32" format="ascii">