<?xml version="1.0"?>
<VTKFile type="PolyData">
	<PolyData>
		<Piece NumberOfPoints="1206" NumberOfPolys="1000">
			<Points>
				<DataArray type="Float32" NumberOfComponents="3" format="ascii">
 0 0 0 0.02 0 0 0.04 0 0 0.06 0 0 0.08 0 0 0.1 0 0 0 0.005 0 0.02 0.005 0 0.04 0.005 0 0.06 0.005 0 0.08 0.005 0 0.1 0.005 0 0 0.01 0 0.02 0.01 0 0.04 0.01 0 0.06 0.01 0 0.08 0.01 0 0.1 0.01 0 0 0.015 0 0.02 0.015 0 0.04 0.015 0 0.06 0.015 0 0.08 0.015 0 0.1 0.015 0 0 0.02 0 0.02 0.02 0 0.04 0.02 0 0.06 0.02 0 0.08 0.02 0 0.1 0.02 0 0 0.025 0 0.02 0.025 0 0.04 0.025 0 0.06 0.025 0 0.08 0.025 0 0.1 0.025 0 0 0.03 0 0.02 0.03 0 0.04 0.03 0 0.06 0.03 0 0.08 0.03 0 0.1 0.03 0 0 0.035 0 0.02 0.035 0 0.04 0.035 0 0.06 0.035 0 0.08 0.035 0 0.1 0.035 0 0 0.04 0 0.02 0.04 0 0.04 0.04 0 0.06 0.04 0 0.08 0.04 0 0.1 0.04 0 0 0.045 0 0.02 0.045 0 0.04 0.045 0 0.06 0.045 0 0.08 0.045 0 0.1 0.045 0 0 0.05 0 0.02 0.05 0 0.04 0.05 0 0.06 0.05 0 0.08 0.05 0 0.1 0.05 0 0 0.055 0 0.02 0.055 0 0.04 0.055 0 0.06 0.055 0 0.08 0.055 0 0.1 0.055 0 0 0.06 0 0.02 0.06 0 0.04 0.06 0 0.06 0.06 0 0.08 0.06 0 0.1 0.06 0 0 0.065 0 0.02 0.065 0 0.04 0.065 0 0.06 0.065 0 0.08 0.065 0 0.1 0.065 0 0 0.07 0 0.02 0.07 0 0.04 0.07 0 0.06 0.07 0 0.08 0.07 0 0.1 0.07 0 0 0.075 0 0.02 0.075 0 0.04 0.075 0 0.06 0.075 0 0.08 0.075 0 0.1 0.075 0 0 0.08 0 0.02 0.08 0 0.04 0.08 0 0.06 0.08 0 0.08 0.08 0 0.1 0.08 0 0 0.085 0 0.02 0.085 0 0.04 0.085 0 0.06 0.085 0 0.08 0.085 0 0.1 0.085 0 0 0.09 0 0.02 0.09 0 0.04 0.09 0 0.06 0.09 0 0.08 0.09 0 0.1 0.09 0 0 0.095 0 0.02 0.095 0 0.04 0.095 0 0.06 0.095 0 0.08 0.095 0 0.1 0.095 0 0 0.1 0 0.02 0.1 0 0.04 0.1 0 0.06 0.1 0 0.08 0.1 0 0.1 0.1 0 0 0.105 0 0.02 0.105 0 0.04 0.105 0 0.06 0.105 0 0.08 0.105 0 0.1 0.105 0 0 0.11 0 0.02 0.11 0 0.04 0.11 0 0.06 0.11 0 0.08 0.11 0 0.1 0.11 0 0 0.115 0 0.02 0.115 0 0.04 0.115 0 0.06 0.115 0 0.08 0.115 0 0.1 0.115 0 0 0.12 0 0.02 0.12 0 0.04 0.12 0 0.06 0.12 0 0.08 0.12 0 0.1 0.12 0 0 0.125 0 0.02 0.125 0 0.04 0.125 0 0.06 0.125 0 0.08 0.125 0 0.1 0.125 0 0 0.13 0 0.02 0.13 0 0.04 0.13 0 0.06 0.13 0 0.08 0.13 0 0.1 0.13 0 0 0.135 0 0.02 0.135 0 0.04 0.135 0 0.06 0.135 0 0.08 0.135 0 0.1 0.135 0 0 0.14 0 0.02 0.14 0 0.04 0.14 0 0.06 0.14 0 0.08 0.14 0 0.1 0.14 0 0 0.145 0 0.02 0.145 0 0.04 0.145 0 0.06 0.145 0 0.08 0.145 0 0.1 0.145 0 0 0.15 0 0.02 0.15 0 0.04 0.15 0 0.06 0.15 0 0.08 0.15 0 0.1 0.15 0 0 0.155 0 0.02 0.155 0 0.04 0.155 0 0.06 0.155 0 0.08 0.155 0 0.1 0.155 0 0 0.16 0 0.02 0.16 0 0.04 0.16 0 0.06 0.16 0 0.08 0.16 0 0.1 0.16 0 0 0.165 0 0.02 0.165 0 0.04 0.165 0 0.06 0.165 0 0.08 0.165 0 0.1 0.165 0 0 0.17 0 0.02 0.17 0 0.04 0.17 0 0.06 0.17 0 0.08 0.17 0 0.1 0.17 0 0 0.175 0 0.02 0.175 0 0.04 0.175 0 0.06 0.175 0 0.08 0.175 0 0.1 0.175 0 0 0.18 0 0.02 0.18 0 0.04 0.18 0 0.06 0.18 0 0.08 0.18 0 0.1 0.18 0 0 0.185 0 0.02 0.185 0 0.04 0.185 0 0.06 0.185 0 0.08 0.185 0 0.1 0.185 0 0 0.19 0 0.02 0.19 0 0.04 0.19 0 0.06 0.19 0 0.08 0.19 0 0.1 0.19 0 0 0.195 0 0.02 0.195 0 0.04 0.195 0 0.06 0.195 0 0.08 0.195 0 0.1 0.195 0 0 0.2 0 0.02 0.2 0 0.04 0.2 0 0.06 0.2 0 0.08 0.2 0 0.1 0.2 0 0 0.205 0 0.02 0.205 0 0.04 0.205 0 0.06 0.205 0 0.08 0.205 0 0.1 0.205 0 0 0.21 0 0.02 0.21 0 0.04 0.21 0 0.06 0.21 0 0.08 0.21 0 0.1 0.21 0 0 0.215 0 0.02 0.215 0 0.04 0.215 0 0.06 0.215 0 0.08 0.215 0 0.1 0.215 0 0 0.22 0 0.02 0.22 0 0.04 0.22 0 0.06 0.22 0 0.08 0.22 0 0.1 0.22 0 0 0.225 0 0.02 0.225 0 0.04 0.225 0 0.06 0.225 0 0.08 0.225 0 0.1 0.225 0 0 0.23 0 0.02 0.23 0 0.04 0.23 0 0.06 0.23 0 0.08 0.23 0 0.1 0.23 0 0 0.235 0 0.02 0.235 0 0.04 0.235 0 0.06 0.235 0 0.08 0.235 0 0.1 0.235 0 0 0.24 0 0.02 0.24 0 0.04 0.24 0 0.06 0.24 0 0.08 0.24 0 0.1 0.24 0 0 0.245 0 0.02 0.245 0 0.04 0.245 0 0.06 0.245 0 0.08 0.245 0 0.1 0.245 0 0 0.25 0 0.02 0.25 0 0.04 0.25 0 0.06 0.25 0 0.08 0.25 0 0.1 0.25 0 0 0.255 0 0.02 0.255 0 0.04 0.255 0 0.06 0.255 0 0.08 0.255 0 0.1 0.255 0 0 0.26 0 0.02 0.26 0 0.04 0.26 0 0.06 0.26 0 0.08 0.26 0 0.1 0.26 0 0 0.265 0 0.02 0.265 0 0.04 0.265 0 0.06 0.265 0 0.08 0.265 0 0.1 0.265 0 0 0.27 0 0.02 0.27 0 0.04 0.27 0 0.06 0.27 0 0.08 0.27 0 0.1 0.27 0 0 0.275 0 0.02 0.275 0 0.04 0.275 0 0.06 0.275 0 0.08 0.275 0 0.1 0.275 0 0 0.28 0 0.02 0.28 0 0.04 0.28 0 0.06 0.28 0 0.08 0.28 0 0.1 0.28 0 0 0.285 0 0.02 0.285 0 0.04 0.285 0 0.06 0.285 0 0.08 0.285 0 0.1 0.285 0 0 0.29 0 0.02 0.29 0 0.04 0.29 0 0.06 0.29 0 0.08 0.29 0 0.1 0.29 0 0 0.295 0 0.02 0.295 0 0.04 0.295 0 0.06 0.295 0 0.08 0.295 0 0.1 0.295 0 0 0.3 0 0.02 0.3 0 0.04 0.3 0 0.06 0.3 0 0.08 0.3 0 0.1 0.3 0 0 0.305 0 0.02 0.305 0 0.04 0.305 0 0.06 0.305 0 0.08 0.305 0 0.1 0.305 0 0 0.31 0 0.02 0.31 0 0.04 0.31 0 0.06 0.31 0 0.08 0.31 0 0.1 0.31 0 0 0.315 0 0.02 0.315 0 0.04 0.315 0 0.06 0.315 0 0.08 0.315 0 0.1 0.315 0 0 0.32 0 0.02 0.32 0 0.04 0.32 0 0.06 0.32 0 0.08 0.32 0 0.1 0.32 0 0 0.325 0 0.02 0.325 0 0.04 0.325 0 0.06 0.325 0 0.08 0.325 0 0.1 0.325 0 0 0.33 0 0.02 0.33 0 0.04 0.33 0 0.06 0.33 0 0.08 0.33 0 0.1 0.33 0 0 0.335 0 0.02 0.335 0 0.04 0.335 0 0.06 0.335 0 0.08 0.335 0 0.1 0.335 0 0 0.34 0 0.02 0.34 0 0.04 0.34 0 0.06 0.34 0 0.08 0.34 0 0.1 0.34 0 0 0.345 0 0.02 0.345 0 0.04 0.345 0 0.06 0.345 0 0.08 0.345 0 0.1 0.345 0 0 0.35 0 0.02 0.35 0 0.04 0.35 0 0.06 0.35 0 0.08 0.35 0 0.1 0.35 0 0 0.355 0 0.02 0.355 0 0.04 0.355 0 0.06 0.355 0 0.08 0.355 0 0.1 0.355 0 0 0.36 0 0.02 0.36 0 0.04 0.36 0 0.06 0.36 0 0.08 0.36 0 0.1 0.36 0 0 0.365 0 0.02 0.365 0 0.04 0.365 0 0.06 0.365 0 0.08 0.365 0 0.1 0.365 0 0 0.37 0 0.02 0.37 0 0.04 0.37 0 0.06 0.37 0 0.08 0.37 0 0.1 0.37 0 0 0.375 0 0.02 0.375 0 0.04 0.375 0 0.06 0.375 0 0.08 0.375 0 0.1 0.375 0 0 0.38 0 0.02 0.38 0 0.04 0.38 0 0.06 0.38 0 0.08 0.38 0 0.1 0.38 0 0 0.385 0 0.02 0.385 0 0.04 0.385 0 0.06 0.385 0 0.08 0.385 0 0.1 0.385 0 0 0.39 0 0.02 0.39 0 0.04 0.39 0 0.06 0.39 0 0.08 0.39 0 0.1 0.39 0 0 0.395 0 0.02 0.395 0 0.04 0.395 0 0.06 0.395 0 0.08 0.395 0 0.1 0.395 0 0 0.4 0 0.02 0.4 0 0.04 0.4 0 0.06 0.4 0 0.08 0.4 0 0.1 0.4 0 0 0.405 0 0.02 0.405 0 0.04 0.405 0 0.06 0.405 0 0.08 0.405 0 0.1 0.405 0 0 0.41 0 0.02 0.41 0 0.04 0.41 0 0.06 0.41 0 0.08 0.41 0 0.1 0.41 0 0 0.415 0 0.02 0.415 0 0.04 0.415 0 0.06 0.415 0 0.08 0.415 0 0.1 0.415 0 0 0.42 0 0.02 0.42 0 0.04 0.42 0 0.06 0.42 0 0.08 0.42 0 0.1 0.42 0 0 0.425 0 0.02 0.425 0 0.04 0.425 0 0.06 0.425 0 0.08 0.425 0 0.1 0.425 0 0 0.43 0 0.02 0.43 0 0.04 0.43 0 0.06 0.43 0 0.08 0.43 0 0.1 0.43 0 0 0.435 0 0.02 0.435 0 0.04 0.435 0 0.06 0.435 0 0.08 0.435 0 0.1 0.435 0 0 0.44 0 0.02 0.44 0 0.04 0.44 0 0.06 0.44 0 0.08 0.44 0 0.1 0.44 0 0 0.445 0 0.02 0.445 0 0.04 0.445 0 0.06 0.445 0 0.08 0.445 0 0.1 0.445 0 0 0.45 0 0.02 0.45 0 0.04 0.45 0 0.06 0.45 0 0.08 0.45 0 0.1 0.45 0 0 0.455 0 0.02 0.455 0 0.04 0.455 0 0.06 0.455 0 0.08 0.455 0 0.1 0.455 0 0 0.46 0 0.02 0.46 0 0.04 0.46 0 0.06 0.46 0 0.08 0.46 0 0.1 0.46 0 0 0.465 0 0.02 0.465 0 0.04 0.465 0 0.06 0.465 0 0.08 0.465 0 0.1 0.465 0 0 0.47 0 0.02 0.47 0 0.04 0.47 0 0.06 0.47 0 0.08 0.47 0 0.1 0.47 0 0 0.475 0 0.02 0.475 0 0.04 0.475 0 0.06 0.475 0 0.08 0.475 0 0.1 0.475 0 0 0.48 0 0.02 0.48 0 0.04 0.48 0 0.06 0.48 0 0.08 0.48 0 0.1 0.48 0 0 0.485 0 0.02 0.485 0 0.04 0.485 0 0.06 0.485 0 0.08 0.485 0 0.1 0.485 0 0 0.49 0 0.02 0.49 0 0.04 0.49 0 0.06 0.49 0 0.08 0.49 0 0.1 0.49 0 0 0.495 0 0.02 0.495 0 0.04 0.495 0 0.06 0.495 0 0.08 0.495 0 0.1 0.495 0 0 0.5 0 0.02 0.5 0 0.04 0.5 0 0.06 0.5 0 0.08 0.5 0 0.1 0.5 0 0 0.505 0 0.02 0.505 0 0.04 0.505 0 0.06 0.505 0 0.08 0.505 0 0.1 0.505 0 0 0.51 0 0.02 0.51 0 0.04 0.51 0 0.06 0.51 0 0.08 0.51 0 0.1 0.51 0 0 0.515 0 0.02 0.515 0 0.04 0.515 0 0.06 0.515 0 0.08 0.515 0 0.1 0.515 0 0 0.52 0 0.02 0.52 0 0.04 0.52 0 0.06 0.52 0 0.08 0.52 0 0.1 0.52 0 0 0.525 0 0.02 0.525 0 0.04 0.525 0 0.06 0.525 0 0.08 0.525 0 0.1 0.525 0 0 0.53 0 0.02 0.53 0 0.04 0.53 0 0.06 0.53 0 0.08 0.53 0 0.1 0.53 0 0 0.535 0 0.02 0.535 0 0.04 0.535 0 0.06 0.535 0 0.08 0.535 0 0.1 0.535 0 0 0.54 0 0.02 0.54 0 0.04 0.54 0 0.06 0.54 0 0.08 0.54 0 0.1 0.54 0 0 0.545 0 0.02 0.545 0 0.04 0.545 0 0.06 0.545 0 0.08 0.545 0 0.1 0.545 0 0 0.55 0 0.02 0.55 0 0.04 0.55 0 0.06 0.55 0 0.08 0.55 0 0.1 0.55 0 0 0.555 0 0.02 0.555 0 0.04 0.555 0 0.06 0.555 0 0.08 0.555 0 0.1 0.555 0 0 0.56 0 0.02 0.56 0 0.04 0.56 0 0.06 0.56 0 0.08 0.56 0 0.1 0.56 0 0 0.565 0 0.02 0.565 0 0.04 0.565 0 0.06 0.565 0 0.08 0.565 0 0.1 0.565 0 0 0.57 0 0.02 0.57 0 0.04 0.57 0 0.06 0.57 0 0.08 0.57 0 0.1 0.57 0 0 0.575 0 0.02 0.575 0 0.04 0.575 0 0.06 0.575 0 0.08 0.575 0 0.1 0.575 0 0 0.58 0 0.02 0.58 0 0.04 0.58 0 0.06 0.58 0 0.08 0.58 0 0.1 0.58 0 0 0.585 0 0.02 0.585 0 0.04 0.585 0 0.06 0.585 0 0.08 0.585 0 0.1 0.585 0 0 0.59 0 0.02 0.59 0 0.04 0.59 0 0.06 0.59 0 0.08 0.59 0 0.1 0.59 0 0 0.595 0 0.02 0.595 0 0.04 0.595 0 0.06 0.595 0 0.08 0.595 0 0.1 0.595 0 0 0.6 0 0.02 0.6 0 0.04 0.6 0 0.06 0.6 0 0.08 0.6 0 0.1 0.6 0 0 0.605 0 0.02 0.605 0 0.04 0.605 0 0.06 0.605 0 0.08 0.605 0 0.1 0.605 0 0 0.61 0 0.02 0.61 0 0.04 0.61 0 0.06 0.61 0 0.08 0.61 0 0.1 0.61 0 0 0.615 0 0.02 0.615 0 0.04 0.615 0 0.06 0.615 0 0.08 0.615 0 0.1 0.615 0 0 0.62 0 0.02 0.62 0 0.04 0.62 0 0.06 0.62 0 0.08 0.62 0 0.1 0.62 0 0 0.625 0 0.02 0.625 0 0.04 0.625 0 0.06 0.625 0 0.08 0.625 0 0.1 0.625 0 0 0.63 0 0.02 0.63 0 0.04 0.63 0 0.06 0.63 0 0.08 0.63 0 0.1 0.63 0 0 0.635 0 0.02 0.635 0 0.04 0.635 0 0.06 0.635 0 0.08 0.635 0 0.1 0.635 0 0 0.64 0 0.02 0.64 0 0.04 0.64 0 0.06 0.64 0 0.08 0.64 0 0.1 0.64 0 0 0.645 0 0.02 0.645 0 0.04 0.645 0 0.06 0.645 0 0.08 0.645 0 0.1 0.645 0 0 0.65 0 0.02 0.65 0 0.04 0.65 0 0.06 0.65 0 0.08 0.65 0 0.1 0.65 0 0 0.655 0 0.02 0.655 0 0.04 0.655 0 0.06 0.655 0 0.08 0.655 0 0.1 0.655 0 0 0.66 0 0.02 0.66 0 0.04 0.66 0 0.06 0.66 0 0.08 0.66 0 0.1 0.66 0 0 0.665 0 0.02 0.665 0 0.04 0.665 0 0.06 0.665 0 0.08 0.665 0 0.1 0.665 0 0 0.67 0 0.02 0.67 0 0.04 0.67 0 0.06 0.67 0 0.08 0.67 0 0.1 0.67 0 0 0.675 0 0.02 0.675 0 0.04 0.675 0 0.06 0.675 0 0.08 0.675 0 0.1 0.675 0 0 0.68 0 0.02 0.68 0 0.04 0.68 0 0.06 0.68 0 0.08 0.68 0 0.1 0.68 0 0 0.685 0 0.02 0.685 0 0.04 0.685 0 0.06 0.685 0 0.08 0.685 0 0.1 0.685 0 0 0.69 0 0.02 0.69 0 0.04 0.69 0 0.06 0.69 0 0.08 0.69 0 0.1 
[...]
			<PointData Scalars="VitesseX">
				<DataArray Name="VitesseX" type="Float32" format="ascii">
 0 -3.29663e-14 1.7899e-14 -1.34816e-14 8.2246e-15 0 0 -2.96192e-14 8.14717e-15 -6.49662e-15 6.34221e-15 0 0 -1.94131e-14 -2.44858e-14 2.84809e-14 -1.082e-14 0 0 -5.10332e-14 7.97378e-15 7.60165e-15 -3.28388e-15 0 0 -4.23243e-14 -4.21404e-15 1.18142e-14 -8.0899e-15 0 0 1.09726e-14 -7.13907e-14 4.63674e-14 -1.64393e-14 0 0 -1.80122e-14 -1.36776e-14 -3.96678e-14 5.37918e-14 0 0 -6.0597e-14 4.86768e-14 -1.04916e-13 1.10649e-13 0 0 -3.76264e-14 3.5038e-15 -4.30017e-14 8.04743e-14 0 0 -1.20079e-14 -5.62722e-14 5.94304e-14 1.30126e-15 0 0 -6.39164e-14 -1.39746e-16 4.54898e-14 -1.39509e-14 0 0 -4.7138e-14 -3.30578e-14 8.3158e-14 -4.07903e-14 0 0 -8.66325e-14 4.52653e-14 -1.31141e-14 3.92068e-14 0 0 -4.519e-14 8.00356e-15 9.60787e-15 4.31338e-14 0 0 -8.2909e-15 -3.57336e-14 7.45603e-14 -2.53242e-14 0 0 -8.86872e-14 1.19781e-13 -9.81608e-14 4.94913e-14 0 0 3.7796e-14 -4.5834e-14 1.21005e-14 -3.52284e-14 0 0 1.55928e-14 -2.93069e-14 -1.6948e-14 -3.33936e-14 0 0 -3.10785e-15 -4.87292e-14 -1.24035e-14 -2.26648e-14 0 0 6.51457e-15 -8.32734e-14 -2.057e-14 1.32475e-14 0 0 -1.28059e-13 1.28637e-13 -2.32094e-13 1.6883e-13 0 0 -1.33219e-13 1.3617e-13 -1.78909e-13 1.1597e-13 0 0 1.07314e-14 -8.40213e-14 8.03386e-14 -6.89679e-14 0 0 6.65688e-14 -1.83852e-13 1.65574e-13 -9.12636e-14 0 0 -1.21029e-13 6.15878e-14 -5.89971e-14 4.23204e-14 0 0 -2.61787e-13 2.36959e-13 -2.18379e-13 1.02014e-13 0 0 -9.98976e-14 -1.34935e-14 -3.28657e-14 -1.60574e-14 0 0 2.27417e-14 -1.58038e-13 9.02798e-14 -1.55676e-13 0 0 -6.49022e-14 2.24289e-14 -6.44218e-14 -1.36726e-13 0 0 -1.65532e-13 1.62381e-13 -2.19585e-13 -2.53355e-15 0 0 -8.00726e-14 -2.21799e-14 -5.7455e-14 -2.78563e-14 0 0 -1.25692e-13 -1.85795e-15 -1.1018e-14 -4.17772e-14 0 0 -1.52962e-13 3.85592e-14 2.38243e-17 -3.31681e-15 0 0 6.42727e-14 -2.4209e-13 2.64349e-13 -6.64656e-14 0 0 -8.99108e-14 2.13015e-14 5.496e-14 8.79871e-14 0 0 -2.02475e-13 1.79199e-13 -4.11174e-14 1.02863e-13 0 0 -2.03478e-13 1.79702e-13 -4.44381e-14 5.69218e-14 0 0 -2.91311e-14 -1.0776e-13 2.32965e-13 -1.57238e-13 0 0 -5.91018e-14 -1.17748e-13 3.01275e-13 -2.55998e-13 0 0 -2.14844e-13 1.09702e-13 7.78472e-14 -1.34979e-13 0 0 -1.29357e-13 2.47238e-14 5.21417e-14 -1.441e-14 0 0 -6.41929e-14 -1.32988e-14 -4.49315e-14 1.49679e-13 0 0 4.93544e-14 -1.84926e-13 5.21082e-14 1.0859e-13 0 0 -1.60285e-13 8.25675e-14 -2.00718e-13 2.24533e-13 0 0 -3.8055e-13 3.04631e-13 -2.97619e-13 1.58962e-13 0 0 -1.98825e-13 -1.0036e-13 2.418e-13 -2.72236e-13 0 0 -1.67992e-13 -1.67319e-13 3.49665e-13 -3.81655e-13 0 0 -1.41154e-13 -1.79046e-13 3.72622e-13 -3.98482e-13 0 0 -1.22338e-13 -7.91812e-14 2.27016e-13 -2.96891e-13 0 0 -2.97837e-13 3.37716e-13 -2.77889e-13 2.49573e-14 0 0 -3.96377e-13 4.8098e-13 -3.82603e-13 1.01955e-14 0 0 -4.41338e-13 5.24586e-13 -3.36453e-13 -1.71219e-13 0 0 1.24604e-13 -3.63363e-13 5.68951e-13 -7.80766e-13 0 0 7.60171e-16 -1.68618e-13 4.1977e-13 -7.26598e-13 0 0 -4.49888e-13 5.7249e-13 -3.01965e-13 -3.25231e-13 0 0 -1.80586e-13 1.44673e-13 9.77044e-14 -5.23319e-13 0 0 -3.44056e-13 3.05512e-13 -1.00936e-13 -2.73112e-13 0 0 -2.0915e-13 -4.35165e-14 1.87903e-13 -3.27159e-13 0 0 -2.9656e-13 -9.02671e-15 1.82202e-13 -3.28752e-13 0 0 -5.26626e-13 3.85952e-13 -1.96268e-13 -2.12127e-13 0 0 -1.45436e-13 -2.36064e-14 7.13101e-14 -4.04054e-13 0 0 6.05674e-14 -1.55393e-13 1.83469e-14 -3.19061e-13 0 0 1.00072e-14 -5.69851e-14 -1.76192e-13 -1.20218e-13 0 0 -2.43939e-13 2.78466e-13 -5.45877e-13 2.27638e-13 0 0 -1.81278e-13 1.67671e-13 -4.20279e-13 1.72925e-13 0 0 3.93566e-14 -1.70713e-13 3.41285e-14 -1.97575e-13 0 0 -2.75457e-15 -9.23705e-14 3.77695e-14 -2.18389e-13 0 0 -4.89209e-14 -1.09433e-13 7.60556e-14 -1.31572e-13 0 0 -3.9455e-13 3.0139e-13 -2.03235e-13 8.8115e-14 0 0 -4.00155e-13 2.84398e-13 -7.47295e-14 -5.91688e-15 0 0 9.43176e-14 -4.3486e-13 6.70905e-13 -4.64619e-13 0 0 -1.96878e-13 6.11309e-14 2.3566e-13 -1.80881e-13 0 0 -4.66258e-13 4.60744e-13 -1.49698e-13 4.58803e-14 0 0 -5.60871e-13 6.65292e-13 -3.14524e-13 -2.74732e-14 0 0 -2.1541e-13 2.57495e-13 2.37959e-14 -3.13492e-13 0 0 7.51773e-14 -2.43574e-13 4.98739e-13 -5.83963e-13 0 0 -4.63735e-13 4.83849e-13 -1.73079e-13 -9.09052e-14 0 0 -4.2602e-13 3.61493e-13 -2.31977e-13 1.82405e-13 0 0 -3.32193e-13 2.95215e-13 -4.49082e-13 4.42037e-13 0 0 -8.86898e-18 -1.76548e-13 -1.04913e-14 1.04525e-13 0 0 -2.76539e-13 1.03588e-14 2.44457e-13 -3.20013e-13 0 0 -6.49883e-13 5.2924e-13 -1.38394e-13 -1.67185e-13 0 0 2.42278e-13 -6.67637e-13 6.2053e-13 -4.39714e-13 0 0 -1.57072e-13 -1.28101e-13 4.77338e-15 -9.96731e-14 0 0 -1.04319e-12 1.03503e-12 -1.13096e-12 5.17701e-13 0 0 1.52068e-14 -4.02586e-13 -1.44635e-13 7.46479e-14 0 0 6.81425e-13 -1.25001e-12 6.08831e-13 -2.97644e-13 0 0 -1.52352e-13 -9.802e-14 -2.18541e-13 4.8668e-14 0 0 -4.85397e-13 2.22338e-13 -3.76574e-13 1.01877e-13 0 0 -7.84601e-13 2.85855e-13 -5.82046e-13 4.33349e-13 0 0 -1.59905e-13 -7.97804e-13 1.08835e-13 1.99391e-13 0 0 4.67803e-13 -1.49121e-12 7.14824e-13 -7.24721e-14 0 0 -4.06182e-13 -1.33058e-13 -3.50043e-13 3.3359e-13 0 0 -7.11075e-13 5.6575e-13 -4.90187e-13 9.93932e-14 0 0 -6.565e-13 7.30524e-13 -4.87727e-13 9.63752e-14 0 0 1.92877e-13 -5.27908e-13 4.32989e-13 -3.95079e-13 0 0 6.13939e-13 -1.22928e-12 1.00246e-12 -6.61698e-13 0 0 -9.74755e-14 -2.75481e-13 2.97523e-13 -4.79535e-13 0 0 -9.11186e-13 7.32462e-13 -1.91849e-13 -4.71029e-13 0 0 -7.98429e-13 6.12033e-13 -1.0935e-13 -5.33814e-13 0 0 -1.57052e-13 8.63522e-14 -1.15098e-13 -5.41914e-13 0 0 1.75958e-13 9.03539e-15 -2.8234e-13 -4.23294e-13 0 0 1.42783e-13 2.02725e-13 -9.69504e-13 -3.77056e-15 0 0 -8.98656e-14 5.36247e-13 -1.51851e-12 1.72424e-13 0 0 -2.29595e-13 5.42187e-13 -1.48252e-12 1.3939e-13 0 0 -2.05969e-13 4.34314e-13 -1.30163e-12 5.09665e-14 0 0 -1.65912e-13 2.64699e-13 -1.12014e-12 -2.28519e-14 0 0 -5.50165e-14 -3.37487e-15 -9.38184e-13 -2.18726e-13 0 0 6.14846e-14 -3.92261e-13 -3.22328e-13 -2.62289e-13 0 0 -1.23872e-13 -4.28635e-13 3.64147e-13 -1.39451e-13 0 0 -2.45675e-13 -3.74219e-13 3.75681e-13 -1.04651e-13 0 0 -1.70118e-13 -2.90128e-13 1.92338e-13 -3.1169e-14 0 0 -2.66704e-13 2.78709e-14 -3.3732e-13 3.06594e-13 0 0 -4.29575e-13 3.11335e-13 -6.63685e-13 4.67645e-13 0 0 -1.12231e-13 -2.23982e-13 -1.71477e-13 1.10515e-13 0 0 1.88461e-13 -7.74168e-13 3.66046e-13 -2.77425e-13 0 0 -1.53816e-13 -2.59272e-13 -8.14024e-14 -1.05968e-13 0 0 -5.55817e-13 3.93221e-13 -7.26604e-13 2.28922e-13 0 0 -2.3775e-13 -1.02699e-13 -2.50597e-13 -7.9744e-14 0 0 -1.2421e-13 -2.19068e-13 -8.43192e-14 -2.83701e-13 0 0 -2.18736e-14 -2.27525e-13 -1.09462e-13 -3.05651e-13 0 0 -6.67353e-14 -1.69103e-13 -1.72709e-13 -1.40779e-13 0 0 -6.53883e-13 6.23176e-13 -8.46813e-13 3.99375e-13 0 0 -2.0722e-13 -1.52527e-13 -5.70265e-14 -2.65478e-14 0 0 -1.87365e-13 -1.89555e-13 3.40237e-14 -1.94885e-13 0 0 -2.14044e-14 -3.10827e-13 1.91009e-14 -2.6501e-13 0 0 -1.37229e-14 -3.62695e-13 -3.25224e-15 -2.20136e-13 0 0 -7.59077e-13 6.06978e-13 -7.92599e-13 3.29016e-13 0 0 -2.95652e-13 -1.80046e-13 4.80927e-14 -1.49186e-13 0 0 -2.62707e-13 -2.32181e-13 1.41197e-13 -3.35607e-13 0 0 -1.31873e-13 -2.56717e-13 -3.54447e-14 -2.61211e-13 0 0 -9.62876e-14 -2.97482e-13 -1.90495e-13 -4.28822e-14 0 0 -7.71096e-13 6.14208e-13 -1.0629e-12 5.95374e-13 0 0 -2.6427e-13 -2.00311e-13 -2.39988e-13 1.19967e-13 0 0 -3.33454e-13 -1.42199e-13 -1.33729e-13 -1.20122e-13 0 0 -1.32114e-13 -2.35872e-13 -1.70593e-13 -2.59644e-13 0 0 -4.61273e-14 -4.26808e-13 -6.04121e-14 -3.53646e-13 0 0 -9.40932e-13 6.28507e-13 -9.50492e-13 2.5599e-13 0 0 -2.25714e-13 -3.84033e-13 -2.11611e-13 3.08713e-14 0 0 -2.83024e-14 -5.54225e-13 1.50978e-14 -1.74867e-13 0 0 -3.46823e-13 -1.23055e-13 -2.28572e-13 -2.51582e-13 0 0 1.20534e-13 -1.05203e-12 5.73496e-13 -6.70505e-13 0 0 -9.33427e-13 3.38071e-13 -5.7314e-13 1.28031e-13 0 0 -1.13452e-12 7.2992e-13 -8.32043e-13 3.70452e-13 0 0 2.22115e-13 -9.34341e-13 7.97303e-13 -5.97186e-13 0 0 -2.19138e-13 -1.77971e-13 4.07708e-13 -4.91737e-13 0 0 -2.50185e-13 -2.18002e-13 3.776e-13 -2.96541e-13 0 0 -6.27821e-13 2.39021e-13 -4.06129e-13 5.96023e-13 0 0 -9.92513e-13 5.74064e-13 -7.05731e-13 8.13052e-13 0 0 -1.56234e-14 -8.47923e-13 8.73781e-13 -4.24418e-13 0 0 -4.93499e-13 -4.12628e-15 3.40006e-13 -2.61327e-13 0 0 -3.03324e-13 -2.42017e-13 2.84573e-13 1.89675e-13 0 0 -6.16607e-13 1.29989e-13 -4.07982e-13 1.02421e-12 0 0 -8.16819e-13 2.22601e-13 -3.8077e-13 8.53497e-13 0 0 -4.70356e-13 -3.33097e-13 3.01835e-13 -8.16961e-14 0 0 -2.12523e-13 -3.50151e-13 -3.61991e-14 -2.046e-13 0 0 2.78764e-14 -5.13229e-13 -3.90128e-13 -9.12273e-14 0 0 -7.43885e-13 4.05259e-13 -1.1127e-12 1.19269e-13 0 0 -5.68881e-13 -1.88911e-13 -2.03891e-13 -4.89017e-13 0 0 -2.80158e-13 -7.96273e-13 5.12517e-13 -1.04287e-12 0 0 1.10491e-13 -1.08294e-12 4.98751e-13 -1.17635e-12 0 0 -2.655e-13 -1.41521e-13 -9.55863e-13 -4.67831e-14 0 0 -8.84319e-13 8.94456e-13 -2.14541e-12 8.65055e-13 0 0 -2.63572e-13 -3.64847e-13 -6.31899e-13 -1.65743e-13 0 0 3.23138e-14 -1.11871e-12 4.05369e-13 -1.00786e-12 0 0 -1.37119e-13 -7.82316e-13 1.21379e-13 -1.13062e-12 0 0 -6.00736e-13 -2.03613e-14 -8.28515e-13 -3.59988e-13 0 0 -8.32048e-13 4.51395e-13 -1.83285e-12 1.00388e-12 0 0 5.91509e-14 -8.0562e-13 -1.03275e-12 9.19942e-13 0 0 -2.65164e-13 -3.85532e-13 -1.05794e-12 4.61776e-13 0 0 -6.72808e-13 1.37697e-13 -9.79069e-13 -2.77416e-13 0 0 -9.08448e-14 -9.43044e-13 3.01605e-13 -1.08072e-12 0 0 -7.28708e-13 -1.61345e-13 -4.07503e-13 -5.58853e-13 0 0 -5.59213e-13 -2.27138e-13 -6.01898e-13 -5.91995e-13 0 0 -5.03191e-13 -4.11853e-14 -9.71568e-13 -5.34561e-13 0 0 -3.95058e-13 -1.4627e-13 -1.00683e-12 -3.69653e-13 0 0 1.1319e-13 -1.20813e-12 3.69761e-13 -1.06165e-12 0 0 -7.08121e-13 -2.87962e-13 -4.07912e-14 -7.1059e-13 0 0 -4.51433e-13 -4.65069e-13 -2.89401e-13 -3.28813e-13 0 0 -3.94341e-13 -1.80047e-13 -1.12331e-12 8.49114e-14 0 0 -6.22356e-13 1.6877e-13 -1.37127e-12 5.35807e-14 0 0 -4.33447e-15 -1.1162e-12 2.01188e-13 -6.54277e-13 0 0 -5.07925e-13 -5.90916e-13 -2.51533e-14 -4.1505e-13 0 0 -4.44957e-13 -4.91326e-13 -3.08711e-13 -3.9094e-13 0 0 -4.08495e-13 -3.24598e-13 -7.69766e-13 -2.17756e-13 0 0 -5.87892e-13 -8.26402e-14 -8.84114e-13 -5.10445e-13 0 0 -3.73541e-14 -1.23095e-12 3.57109e-13 -1.23209e-12 0 0 -6.15927e-13 -4.51971e-13 -2.08103e-13 -6.83113e-13 0 0 -5.58709e-13 -2.13307e-13 -4.52366e-13 -5.73216e-13 0 0 -9.53535e-13 2.67343e-13 -6.80935e-13 -5.90018e-13 0 0 -1.11653e-12 2.66752e-13 -6.48114e-13 -5.73747e-13 0 0 2.83771e-13 -2.06642e-12 1.44016e-12 -1.55593e-12 0 0 -1.23683e-12 2.28388e-13 -6.6542e-13 -3.19821e-13 0 0 -1.84664e-12 1.54964e-12 -1.8843e-12 1.07642e-13 0 0 -2.18205e-13 -5.71844e-13 2.5915e-13 -1.43363e-12 0 0 -1.4484e-13 -7.32275e-13 5.22787e-13 -1.64978e-12 0 0 2.40253e-14 -1.15355e-12 8.10712e-13 -1.72679e-12 0 0 -1.31798e-12 1.0777e-12 -1.68965e-12 3.45723e-14 0 0 -1.3019e-12 1.15583e-12 -1.72136e-12 1.25019e-13 0 0 6.13503e-14 -1.21008e-12 1.09545e-12 -1.6879e-12 0 0 -2.55916e-13 -9.78286e-13 1.21265e-12 -1.74661e-12 0
				</DataArray>
				<DataArray Name="VitesseY" type="Float32" format="ascii">