<?xml version="1.0"?>
<VTKFile type="PolyData">
	<PolyData>
		<Piece NumberOfPoints="1206" NumberOfPolys="1000">
			<Points>
				<DataArray type="Float32" NumberOfComponents="3" format="ascii">
 0 0 0 0.02 0 0 0.04 0 0 0.06 0 0 0.08 0 0 0.1 0 0 0 0.005 0 0.02 0.005 0 0.04 0.005 0 0.06 0.005 0 0.08 0.005 0 0.1 0.005 0 0 0.01 0 0.02 0.01 0 0.04 0.01 0 0.06 0.01 0 0.08 0.01 0 0.1 0.01 0 0 0.015 0 0.02 0.015 0 0.04 0.015 0 0.06 0.015 0 0.08 0.015 0 0.1 0.015 0 0 0.02 0 0.02 0.02 0 0.04 0.02 0 0.06 0.02 0 0.08 0.02 0 0.1 0.02 0 0 0.025 0 0.02 0.025 0 0.04 0.025 0 0.06 0.025 0 0.08 0.025 0 0.1 0.025 0 0 0.03 0 0.02 0.03 0 0.04 0.03 0 0.06 0.03 0 0.08 0.03 0 0.1 0.03 0 0 0.035 0 0.02 0.035 0 0.04 0.035 0 0.06 0.035 0 0.08 0.035 0 0.1 0.035 0 0 0.04 0 0.02 0.04 0 0.04 0.04 0 0.06 0.04 0 0.08 0.04 0 0.1 0.04 0 0 0.045 0 0.02 0.045 0 0.04 0.045 0 0.06 0.045 0 0.08 0.045 0 0.1 0.045 0 0 0.05 0 0.02 0.05 0 0.04 0.05 0 0.06 0.05 0 0.08 0.05 0 0.1 0.05 0 0 0.055 0 0.02 0.055 0 0.04 0.055 0 0.06 0.055 0 0.08 0.055 0 0.1 0.055 0 0 0.06 0 0.02 0.06 0 0.04 0.06 0 0.06 0.06 0 0.08 0.06 0 0.1 0.06 0 0 0.065 0 0.02 0.065 0 0.04 0.065 0 0.06 0.065 0 0.08 0.065 0 0.1 0.065 0 0 0.07 0 0.02 0.07 0 0.04 0.07 0 0.06 0.07 0 0.08 0.07 0 0.1 0.07 0 0 0.075 0 0.02 0.075 0 0.04 0.075 0 0.06 0.075 0 0.08 0.075 0 0.1 0.075 0 0 0.08 0 0.02 0.08 0 0.04 0.08 0 0.06 0.08 0 0.08 0.08 0 0.1 0.08 0 0 0.085 0 0.02 0.085 0 0.04 0.085 0 0.06 0.085 0 0.08 0.085 0 0.1 0.085 0 0 0.09 0 0.02 0.09 0 0.04 0.09 0 0.06 0.09 0 0.08 0.09 0 0.1 0.09 0 0 0.095 0 0.02 0.095 0 0.04 0.095 0 0.06 0.095 0 0.08 0.095 0 0.1 0.095 0 0 0.1 0 0.02 0.1 0 0.04 0.1 0 0.06 0.1 0 0.08 0.1 0 0.1 0.1 0 0 0.105 0 0.02 0.105 0 0.04 0.105 0 0.06 0.105 0 0.08 0.105 0 0.1 0.105 0 0 0.11 0 0.02 0.11 0 0.04 0.11 0 0.06 0.11 0 0.08 0.11 0 0.1 0.11 0 0 0.115 0 0.02 0.115 0 0.04 0.115 0 0.06 0.115 0 0.08 0.115 0 0.1 0.115 0 0 0.12 0 0.02 0.12 0 0.04 0.12 0 0.06 0.12 0 0.08 0.12 0 0.1 0.12 0 0 0.125 0 0.02 0.125 0 0.04 0.125 0 0.06 0.125 0 0.08 0.125 0 0.1 0.125 0 0 0.13 0 0.02 0.13 0 0.04 0.13 0 0.06 0.13 0 0.08 0.13 0 0.1 0.13 0 0 0.135 0 0.02 0.135 0 0.04 0.135 0 0.06 0.135 0 0.08 0.135 0 0.1 0.135 0 0 0.14 0 0.02 0.14 0 0.04 0.14 0 0.06 0.14 0 0.08 0.14 0 0.1 0.14 0 0 0.145 0 0.02 0.145 0 0.04 0.145 0 0.06 0.145 0 0.08 0.145 0 0.1 0.145 0 0 0.15 0 0.02 0.15 0 0.04 0.15 0 0.06 0.15 0 0.08 0.15 0 0.1 0.15 0 0 0.155 0 0.02 0.155 0 0.04 0.155 0 0.06 0.155 0 0.08 0.155 0 0.1 0.155 0 0 0.16 0 0.02 0.16 0 0.04 0.16 0 0.06 0.16 0 0.08 0.16 0 0.1 0.16 0 0 0.165 0 0.02 0.165 0 0.04 0.165 0 0.06 0.165 0 0.08 0.165 0 0.1 0.165 0 0 0.17 0 0.02 0.17 0 0.04 0.17 0 0.06 0.17 0 0.08 0.17 0 0.1 0.17 0 0 0.175 0 0.02 0.175 0 0.04 0.175 0 0.06 0.175 0 0.08 0.175 0 0.1 0.175 0 0 0.18 0 0.02 0.18 0 0.04 0.18 0 0.06 0.18 0 0.08 0.18 0 0.1 0.18 0 0 0.185 0 0.02 0.185 0 0.04 0.185 0 0.06 0.185 0 0.08 0.185 0 0.1 0.185 0 0 0.19 0 0.02 0.19 0 0.04 0.19 0 0.06 0.19 0 0.08 0.19 0 0.1 0.19 0 0 0.195 0 0.02 0.195 0 0.04 0.195 0 0.06 0.195 0 0.08 0.195 0 0.1 0.195 0 0 0.2 0 0.02 0.2 0 0.04 0.2 0 0.06 0.2 0 0.08 0.2 0 0.1 0.2 0 0 0.205 0 0.02 0.205 0 0.04 0.205 0 0.06 0.205 0 0.08 0.205 0 0.1 0.205 0 0 0.21 0 0.02 0.21 0 0.04 0.21 0 0.06 0.21 0 0.08 0.21 0 0.1 0.21 0 0 0.215 0 0.02 0.215 0 0.04 0.215 0 0.06 0.215 0 0.08 0.215 0 0.1 0.215 0 0 0.22 0 0.02 0.22 0 0.04 0.22 0 0.06 0.22 0 0.08 0.22 0 0.1 0.22 0 0 0.225 0 0.02 0.225 0 0.04 0.225 0 0.06 0.225 0 0.08 0.225 0 0.1 0.225 0 0 0.23 0 0.02 0.23 0 0.04 0.23 0 0.06 0.23 0 0.08 0.23 0 0.1 0.23 0 0 0.235 0 0.02 0.235 0 0.04 0.235 0 0.06 0.235 0 0.08 0.235 0 0.1 0.235 0 0 0.24 0 0.02 0.24 0 0.04 0.24 0 0.06 0.24 0 0.08 0.24 0 0.1 0.24 0 0 0.245 0 0.02 0.245 0 0.04 0.245 0 0.06 0.245 0 0.08 0.245 0 0.1 0.245 0 0 0.25 0 0.02 0.25 0 0.04 0.25 0 0.06 0.25 0 0.08 0.25 0 0.1 0.25 0 0 0.255 0 0.02 0.255 0 0.04 0.255 0 0.06 0.255 0 0.08 0.255 0 0.1 0.255 0 0 0.26 0 0.02 0.26 0 0.04 0.26 0 0.06 0.26 0 0.08 0.26 0 0.1 0.26 0 0 0.265 0 0.02 0.265 0 0.04 0.265 0 0.06 0.265 0 0.08 0.265 0 0.1 0.265 0 0 0.27 0 0.02 0.27 0 0.04 0.27 0 0.06 0.27 0 0.08 0.27 0 0.1 0.27 0 0 0.275 0 0.02 0.275 0 0.04 0.275 0 0.06 0.275 0 0.08 0.275 0 0.1 0.275 0 0 0.28 0 0.02 0.28 0 0.04 0.28 0 0.06 0.28 0 0.08 0.28 0 0.1 0.28 0 0 0.285 0 0.02 0.285 0 0.04 0.285 0 0.06 0.285 0 0.08 0.285 0 0.1 0.285 0 0 0.29 0 0.02 0.29 0 0.04 0.29 0 0.06 0.29 0 0.08 0.29 0 0.1 0.29 0 0 0.295 0 0.02 0.295 0 0.04 0.295 0 0.06 0.295 0 0.08 0.295 0 0.1 0.295 0 0 0.3 0 0.02 0.3 0 0.04 0.3 0 0.06 0.3 0 0.08 0.3 0 0.1 0.3 0 0 0.305 0 0.02 0.305 0 0.04 0.305 0 0.06 0.305 0 0.08 0.305 0 0.1 0.305 0 0 0.31 0 0.02 0.31 0 0.04 0.31 0 0.06 0.31 0 0.08 0.31 0 0.1 0.31 0 0 0.315 0 0.02 0.315 0 0.04 0.315 0 0.06 0.315 0 0.08 0.315 0 0.1 0.315 0 0 0.32 0 0.02 0.32 0 0.04 0.32 0 0.06 0.32 0 0.08 0.32 0 0.1 0.32 0 0 0.325 0 0.02 0.325 0 0.04 0.325 0 0.06 0.325 0 0.08 0.325 0 0.1 0.325 0 0 0.33 0 0.02 0.33 0 0.04 0.33 0 0.06 0.33 0 0.08 0.33 0 0.1 0.33 0 0 0.335 0 0.02 0.335 0 0.04 0.335 0 0.06 0.335 0 0.08 0.335 0 0.1 0.335 0 0 0.34 0 0.02 0.34 0 0.04 0.34 0 0.06 0.34 0 0.08 0.34 0 0.1 0.34 0 0 0.345 0 0.02 0.345 0 0.04 0.345 0 0.06 0.345 0 0.08 0.345 0 0.1 0.345 0 0 0.35 0 0.02 0.35 0 0.04 0.35 0 0.06 0.35 0 0.08 0.35 0 0.1 0.35 0 0 0.355 0 0.02 0.355 0 0.04 0.355 0 0.06 0.355 0 0.08 0.355 0 0.1 0.355 0 0 0.36 0 0.02 0.36 0 0.04 0.36 0 0.06 0.36 0 0.08 0.36 0 0.1 0.36 0 0 0.365 0 0.02 0.365 0 0.04 0.365 0 0.06 0.365 0 0.08 0.365 0 0.1 0.365 0 0 0.37 0 0.02 0.37 0 0.04 0.37 0 0.06 0.37 0 0.08 0.37 0 0.1 0.37 0 0 0.375 0 0.02 0.375 0 0.04 0.375 0 0.06 0.375 0 0.08 0.375 0 0.1 0.375 0 0 0.38 0 0.02 0.38 0 0.04 0.38 0 0.06 0.38 0 0.08 0.38 0 0.1 0.38 0 0 0.385 0 0.02 0.385 0 0.04 0.385 0 0.06 0.385 0 0.08 0.385 0 0.1 0.385 0 0 0.39 0 0.02 0.39 0 0.04 0.39 0 0.06 0.39 0 0.08 0.39 0 0.1 0.39 0 0 0.395 0 0.02 0.395 0 0.04 0.395 0 0.06 0.395 0 0.08 0.395 0 0.1 0.395 0 0 0.4 0 0.02 0.4 0 0.04 0.4 0 0.06 0.4 0 0.08 0.4 0 0.1 0.4 0 0 0.405 0 0.02 0.405 0 0.04 0.405 0 0.06 0.405 0 0.08 0.405 0 0.1 0.405 0 0 0.41 0 0.02 0.41 0 0.04 0.41 0 0.06 0.41 0 0.08 0.41 0 0.1 0.41 0 0 0.415 0 0.02 0.415 0 0.04 0.415 0 0.06 0.415 0 0.08 0.415 0 0.1 0.415 0 0 0.42 0 0.02 0.42 0 0.04 0.42 0 0.06 0.42 0 0.08 0.42 0 0.1 0.42 0 0 0.425 0 0.02 0.425 0 0.04 0.425 0 0.06 0.425 0 0.08 0.425 0 0.1 0.425 0 0 0.43 0 0.02 0.43 0 0.04 0.43 0 0.06 0.43 0 0.08 0.43 0 0.1 0.43 0 0 0.435 0 0.02 0.435 0 0.04 0.435 0 0.06 0.435 0 0.08 0.435 0 0.1 0.435 0 0 0.44 0 0.02 0.44 0 0.04 0.44 0 0.06 0.44 0 0.08 0.44 0 0.1 0.44 0 0 0.445 0 0.02 0.445 0 0.04 0.445 0 0.06 0.445 0 0.08 0.445 0 0.1 0.445 0 0 0.45 0 0.02 0.45 0 0.04 0.45 0 0.06 0.45 0 0.08 0.45 0 0.1 0.45 0 0 0.455 0 0.02 0.455 0 0.04 0.455 0 0.06 0.455 0 0.08 0.455 0 0.1 0.455 0 0 0.46 0 0.02 0.46 0 0.04 0.46 0 0.06 0.46 0 0.08 0.46 0 0.1 0.46 0 0 0.465 0 0.02 0.465 0 0.04 0.465 0 0.06 0.465 0 0.08 0.465 0 0.1 0.465 0 0 0.47 0 0.02 0.47 0 0.04 0.47 0 0.06 0.47 0 0.08 0.47 0 0.1 0.47 0 0 0.475 0 0.02 0.475 0 0.04 0.475 0 0.06 0.475 0 0.08 0.475 0 0.1 0.475 0 0 0.48 0 0.02 0.48 0 0.04 0.48 0 0.06 0.48 0 0.08 0.48 0 0.1 0.48 0 0 0.485 0 0.02 0.485 0 0.04 0.485 0 0.06 0.485 0 0.08 0.485 0 0.1 0.485 0 0 0.49 0 0.02 0.49 0 0.04 0.49 0 0.06 0.49 0 0.08 0.49 0 0.1 0.49 0 0 0.495 0 0.02 0.495 0 0.04 0.495 0 0.06 0.495 0 0.08 0.495 0 0.1 0.495 0 0 0.5 0 0.02 0.5 0 0.04 0.5 0 0.06 0.5 0 0.08 0.5 0 0.1 0.5 0 0 0.505 0 0.02 0.505 0 0.04 0.505 0 0.06 0.505 0 0.08 0.505 0 0.1 0.505 0 0 0.51 0 0.02 0.51 0 0.04 0.51 0 0.06 0.51 0 0.08 0.51 0 0.1 0.51 0 0 0.515 0 0.02 0.515 0 0.04 0.515 0 0.06 0.515 0 0.08 0.515 0 0.1 0.515 0 0 0.52 0 0.02 0.52 0 0.04 0.52 0 0.06 0.52 0 0.08 0.52 0 0.1 0.52 0 0 0.525 0 0.02 0.525 0 0.04 0.525 0 0.06 0.525 0 0.08 0.525 0 0.1 0.525 0 0 0.53 0 0.02 0.53 0 0.04 0.53 0 0.06 0.53 0 0.08 0.53 0 0.1 0.53 0 0 0.535 0 0.02 0.535 0 0.04 0.535 0 0.06 0.535 0 0.08 0.535 0 0.1 0.535 0 0 0.54 0 0.02 0.54 0 0.04 0.54 0 0.06 0.54 0 0.08 0.54 0 0.1 0.54 0 0 0.545 0 0.02 0.545 0 0.04 0.545 0 0.06 0.545 0 0.08 0.545 0 0.1 0.545 0 0 0.55 0 0.02 0.55 0 0.04 0.55 0 0.06 0.55 0 0.08 0.55 0 0.1 0.55 0 0 0.555 0 0.02 0.555 0 0.04 0.555 0 0.06 0.555 0 0.08 0.555 0 0.1 0.555 0 0 0.56 0 0.02 0.56 0 0.04 0.56 0 0.06 0.56 0 0.08 0.56 0 0.1 0.56 0 0 0.565 0 0.02 0.565 0 0.04 0.565 0 0.06 0.565 0 0.08 0.565 0 0.1 0.565 0 0 0.57 0 0.02 0.57 0 0.04 0.57 0 0.06 0.57 0 0.08 0.57 0 0.1 0.57 0 0 0.575 0 0.02 0.575 0 0.04 0.575 0 0.06 0.575 0 0.08 0.575 0 0.1 0.575 0 0 0.58 0 0.02 0.58 0 0.04 0.58 0 0.06 0.58 0 0.08 0.58 0 0.1 0.58 0 0 0.585 0 0.02 0.585 0 0.04 0.585 0 0.06 0.585 0 0.08 0.585 0 0.1 0.585 0 0 0.59 0 0.02 0.59 0 0.04 0.59 0 0.06 0.59 0 0.08 0.59 0 0.1 0.59 0 0 0.595 0 0.02 0.595 0 0.04 0.595 0 0.06 0.595 0 0.08 0.595 0 0.1 0.595 0 0 0.6 0 0.02 0.6 0 0.04 0.6 0 0.06 0.6 0 0.08 0.6 0 0.1 0.6 0 0 0.605 0 0.02 0.605 0 0.04 0.605 0 0.06 0.605 0 0.08 0.605 0 0.1 0.605 0 0 0.61 0 0.02 0.61 0 0.04 0.61 0 0.06 0.61 0 0.08 0.61 0 0.1 0.61 0 0 0.615 0 0.02 0.615 0 0.04 0.615 0 0.06 0.615 0 0.08 0.615 0 0.1 0.615 0 0 0.62 0 0.02 0.62 0 0.04 0.62 0 0.06 0.62 0 0.08 0.62 0 0.1 0.62 0 0 0.625 0 0.02 0.625 0 0.04 0.625 0 0.06 0.625 0 0.08 0.625 0 0.1 0.625 0 0 0.63 0 0.02 0.63 0 0.04 0.63 0 0.06 0.63 0 0.08 0.63 0 0.1 0.63 0 0 0.635 0 0.02 0.635 0 0.04 0.635 0 0.06 0.635 0 0.08 0.635 0 0.1 0.635 0 0 0.64 0 0.02 0.64 0 0.04 0.64 0 0.06 0.64 0 0.08 0.64 0 0.1 0.64 0 0 0.645 0 0.02 0.645 0 0.04 0.645 0 0.06 0.645 0 0.08 0.645 0 0.1 0.645 0 0 0.65 0 0.02 0.65 0 0.04 0.65 0 0.06 0.65 0 0.08 0.65 0 0.1 0.65 0 0 0.655 0 0.02 0.655 0 0.04 0.655 0 0.06 0.655 0 0.08 0.655 0 0.1 0.655 0 0 0.66 0 0.02 0.66 0 0.04 0.66 0 0.06 0.66 0 0.08 0.66 0 0.1 0.66 0 0 0.665 0 0.02 0.665 0 0.04 0.665 0 0.06 0.665 0 0.08 0.665 0 0.1 0.665 0 0 0.67 0 0.02 0.67 0 0.04 0.67 0 0.06 0.67 0 0.08 0.67 0 0.1 0.67 0 0 0.675 0 0.02 0.675 0 0.04 0.675 0 0.06 0.675 0 0.08 0.675 0 0.1 0.675 0 0 0.68 0 0.02 0.68 0 0.04 0.68 0 0.06 0.68 0 0.08 0.68 0 0.1 0.68 0 0 0.685 0 0.02 0.685 0 0.04 0.685 0 0.06 0.685 0 0.08 0.685 0 0.1 0.685 0 0 0.69 0 0.02 0.69 0 0.04 0.69 0 0.06 0.69 0 0.08 0.69 0 0.1 
[...]
			<PointData Scalars="VitesseX">
				<DataArray Name="VitesseX" type="Float32" format="ascii">
 0 -4.88809e-15 -6.92824e-15 1.29783e-14 2.63974e-14 0 0 -8.26832e-15 -2.48729e-15 1.12756e-14 2.61745e-14 0 0 -9.13296e-15 -1.40571e-15 1.47585e-14 2.20519e-14 0 0 -1.26474e-14 8.72502e-15 9.48574e-15 2.10822e-14 0 0 -1.08031e-14 1.28299e-14 1.30103e-14 1.36828e-14 0 0 -1.50599e-15 -1.88108e-15 3.83402e-14 -2.73953e-15 0 0 7.04178e-15 -2.00318e-14 6.28966e-14 -1.17347e-14 0 0 8.3237e-15 -1.4171e-14 6.2143e-14 -5.3739e-15 0 0 5.84333e-15 3.88159e-15 4.61646e-14 9.17828e-15 0 0 7.71947e-15 1.35662e-14 2.70027e-14 3.27573e-14 0 0 -4.8842e-15 4.17149e-14 -1.11982e-14 6.36914e-14 0 0 4.32724e-15 1.56885e-14 2.59136e-14 3.92207e-14 0 0 -5.88719e-15 1.58467e-14 5.36418e-14 1.00354e-14 0 0 -1.58451e-14 3.34018e-14 4.4501e-14 -6.16336e-16 0 0 6.17278e-15 2.08624e-14 3.54511e-14 -1.7378e-15 0 0 5.77464e-15 3.21126e-14 1.7784e-14 2.87915e-15 0 0 5.58118e-15 2.80879e-14 2.13014e-14 -8.56611e-15 0 0 -4.55692e-15 2.19074e-14 2.22039e-14 -4.53197e-15 0 0 -6.82937e-16 -3.56704e-15 4.01522e-14 -1.57046e-14 0 0 -1.07836e-14 2.66338e-14 -1.25073e-15 -6.71374e-15 0 0 5.91493e-15 3.4368e-15 2.4616e-14 -3.41669e-14 0 0 3.61196e-14 -5.98251e-14 8.32702e-14 -6.87421e-14 0 0 2.99963e-15 -1.68106e-14 5.15691e-15 1.8683e-14 0 0 -3.03785e-14 4.7377e-14 -9.54658e-14 1.17999e-13 0 0 -1.21794e-14 1.96378e-14 -4.75768e-14 7.08387e-14 0 0 -8.77424e-15 9.31151e-15 9.73801e-15 -5.07335e-15 0 0 7.38132e-16 -8.75521e-15 4.71551e-14 -2.51264e-14 0 0 -4.93316e-15 -4.39556e-15 3.46333e-14 1.6443e-14 0 0 -2.91308e-14 2.47696e-14 2.96028e-14 3.10973e-14 0 0 -1.31312e-14 1.94753e-14 3.74648e-14 3.34224e-14 0 0 -3.23536e-14 6.14816e-14 -1.28292e-14 6.12534e-14 0 0 9.176e-15 1.90999e-14 2.48528e-14 5.04752e-14 0 0 5.27877e-14 -1.20256e-14 3.00778e-14 7.28467e-14 0 0 5.16909e-14 -2.78272e-14 3.7045e-14 8.15058e-14 0 0 -5.01215e-15 4.80787e-14 -2.68268e-14 1.29741e-13 0 0 2.01979e-15 9.15268e-15 3.84872e-14 7.84433e-14 0 0 1.52559e-14 -4.28494e-14 8.71025e-14 7.00889e-14 0 0 -4.85793e-14 5.30842e-14 -1.54409e-14 1.45825e-13 0 0 -6.5471e-14 8.76567e-14 -4.43722e-14 1.56076e-13 0 0 -2.43577e-14 5.59245e-14 -1.97907e-14 1.45386e-13 0 0 4.39927e-14 -4.61064e-14 9.88672e-14 2.94876e-14 0 0 -4.60051e-15 5.22532e-14 1.0549e-14 3.80927e-14 0 0 4.18477e-14 1.59791e-14 -4.06457e-15 5.87877e-14 0 0 8.33884e-14 -5.72854e-14 5.03442e-14 1.55665e-14 0 0 5.09961e-14 1.12216e-15 7.28739e-15 3.76726e-15 0 0 7.00777e-14 1.65134e-14 -4.47426e-14 3.08823e-14 0 0 3.28364e-14 1.03547e-13 -1.87294e-13 1.35412e-13 0 0 1.78516e-15 1.12469e-13 -1.87717e-13 1.56662e-13 0 0 7.98238e-14 -4.31815e-14 -3.64227e-15 4.49905e-14 0 0 2.23187e-13 -2.47182e-13 1.83103e-13 -5.39513e-14 0 0 2.89546e-13 -3.13687e-13 2.36736e-13 -8.47659e-14 0 0 2.33008e-13 -1.78269e-13 1.27269e-13 -6.32088e-14 0 0 1.58621e-13 -1.08477e-14 -3.07965e-14 1.32107e-14 0 0 5.65318e-14 1.4345e-13 -1.2038e-13 5.37608e-14 0 0 9.3949e-14 5.00871e-14 6.4279e-15 1.08628e-14 0 0 1.95282e-13 -1.15953e-13 1.99346e-13 -7.64028e-14 0 0 1.59542e-13 4.84673e-14 6.99709e-14 -1.23953e-14 0 0 1.25774e-13 1.67245e-13 -4.55521e-14 1.04224e-13 0 0 1.27678e-13 1.20363e-13 3.11631e-15 1.61517e-13 0 0 2.01799e-13 -3.45708e-14 1.74339e-13 1.06751e-13 0 0 1.11303e-13 2.91568e-14 2.08255e-13 5.9315e-14 0 0 -6.14325e-14 2.4038e-13 7.67095e-14 9.6758e-14 0 0 6.94706e-14 8.83266e-14 2.39434e-13 -1.80142e-14 0 0 2.24883e-13 -5.52504e-14 2.4188e-13 1.52098e-14 0 0 1.25017e-13 2.00678e-14 1.49344e-13 5.31966e-14 0 0 -4.97248e-14 1.237e-13 1.79691e-13 4.61092e-14 0 0 -1.84466e-13 2.50543e-13 1.30721e-13 1.34875e-13 0 0 -9.72036e-14 1.34699e-13 2.76033e-13 3.74882e-14 0 0 1.71949e-14 4.81225e-14 1.92125e-13 1.162e-13 0 0 1.19678e-13 -2.77762e-14 8.83003e-14 1.80758e-13 0 0 3.22506e-13 -1.36042e-13 1.08747e-13 8.66834e-14 0 0 3.6219e-13 -1.16522e-14 -9.15328e-14 2.05514e-13 0 0 2.15491e-13 1.09131e-13 -7.25993e-14 1.62767e-13 0 0 5.75706e-14 1.99569e-13 -4.65998e-14 1.11613e-13 0 0 2.62648e-13 -2.0767e-14 5.15216e-14 1.77301e-13 0 0 4.66613e-13 -1.77228e-13 1.77835e-13 1.70085e-13 0 0 2.73694e-13 1.51378e-13 -3.4457e-14 1.50071e-13 0 0 2.38145e-13 2.22837e-13 -1.05876e-13 1.07178e-13 0 0 3.62181e-13 1.38341e-15 -2.67956e-14 -2.86891e-14 0 0 4.90706e-13 -2.14861e-13 7.41591e-14 -7.22507e-14 0 0 5.31198e-13 -3.88904e-13 1.93913e-13 -8.79446e-14 0 0 3.60138e-13 -2.00152e-13 -1.47942e-14 5.808e-14 0 0 5.95169e-14 2.21467e-13 -3.80877e-13 2.05547e-13 0 0 -1.52737e-13 2.09989e-13 -3.13854e-13 1.66699e-13 0 0 -1.50401e-13 1.09329e-13 -1.27663e-13 1.11925e-13 0 0 -1.66318e-13 -4.07704e-14 7.10004e-14 1.03914e-13 0 0 -1.81348e-13 -1.58249e-13 2.57467e-13 8.55149e-14 0 0 -1.41248e-13 -2.65841e-13 2.28894e-13 1.34513e-13 0 0 -7.61645e-14 -3.76573e-13 1.79366e-13 2.47332e-13 0 0 -9.61906e-14 -4.56604e-13 4.35527e-14 3.62902e-13 0 0 -3.54639e-13 -8.53661e-13 -4.30728e-13 1.35385e-13 0 0 -1.69985e-12 -2.88692e-12 -2.55659e-12 -1.17457e-12 0 0 -7.88558e-12 -1.2698e-11 -1.25249e-11 -7.40959e-12 0 0 -3.49705e-11 -5.66237e-11 -5.68669e-11 -3.51027e-11 0 0 -1.46025e-10 -2.3797e-10 -2.40204e-10 -1.49602e-10 0 0 -5.68084e-10 -9.29728e-10 -9.42497e-10 -5.89179e-10 0 0 -2.05112e-09 -3.37108e-09 -3.43497e-09 -2.15541e-09 0 0 -6.86804e-09 -1.13477e-08 -1.16372e-08 -7.33751e-09 0 0 -2.13355e-08 -3.54936e-08 -3.66943e-08 -2.32791e-08 0 0 -6.15449e-08 -1.03287e-07 -1.07866e-07 -6.89532e-08 0 0 -1.65049e-07 -2.80073e-07 -2.96151e-07 -1.91064e-07 0 0 -4.12053e-07 -7.08872e-07 -7.60899e-07 -4.96234e-07 0 0 -9.58972e-07 -1.67752e-06 -1.8326e-06 -1.2099e-06 0 0 -2.08397e-06 -3.72771e-06 -4.14186e-06 -2.77129e-06 0 0 -4.3205e-06 -7.71398e-06 -8.94566e-06 -6.03247e-06 0 0 -8.42272e-06 -1.58939e-05 -1.74369e-05 -1.19921e-05 0 0 -1.48165e-05 -2.76805e-05 -3.57062e-05 -2.496e-05 0 0 -2.41351e-05 -4.77438e-05 -5.46032e-05 -3.83607e-05 0 0 -3.56383e-05 -6.89192e-05 -8.25397e-05 -5.76227e-05 0 0 -4.7723e-05 -9.64465e-05 -0.000122385 -8.68849e-05 0 0 -6.12442e-05 -0.000127486 -0.000162609 -0.00011773 0 0 -7.53408e-05 -0.000161554 -0.000202521 -0.000145991 0 0 -8.92712e-05 -0.000195049 -0.000249864 -0.00017845 0 0 -0.000102361 -0.000226437 -0.000297209 -0.000215057 0 0 -0.000113687 -0.000252746 -0.000340668 -0.000250675 0 0 -0.000124526 -0.000268717 -0.000374659 -0.000280882 0 0 -0.000134196 -0.000287464 -0.000393599 -0.000299742 0 0 -0.000134715 -0.000317016 -0.000404743 -0.000308689 0 0 -0.000127237 -0.000338057 -0.000442021 -0.00033457 0 0 -7.91902e-05 -0.000334542 -0.000579913 -0.00043536 0 0 -7.30956e-05 -0.000277294 -0.000826651 -0.000700034 0 0 -8.99327e-05 -0.000184059 -0.00100934 -0.000941215 0 0 -0.00011441 -0.000174362 -0.000987204 -0.000938564 0 0 -0.000115094 -0.000175348 -0.000855046 -0.000862368 0 0 -0.000101136 -0.000182462 -0.000621037 -0.000634405 0 0 -3.57105e-05 -0.000177886 -0.000465334 -0.000400368 0 0 6.53047e-05 -0.000237193 -0.000372243 -0.000242052 0 0 -5.59981e-06 -0.000386762 5.40344e-06 8.67545e-05 0 0 -0.000363678 -0.000254009 0.000987484 0.000813614 0 0 -0.000405886 0.000128158 0.00122001 0.00107091 0 0 -0.000316277 0.000360556 0.00117258 0.00103345 0 0 -0.000116242 0.000386618 0.000991206 0.000882909 0 0 5.73395e-05 0.000401104 0.000798924 0.000698166 0 0 0.000126468 0.000406632 0.000658635 0.000547107 0 0 0.000143505 0.000398115 0.000566199 0.000440297 0 0 0.000149933 0.000367997 0.000498897 0.000370079 0 0 0.000152986 0.000337477 0.000443179 0.000320025 0 0 0.000153481 0.000309737 0.0003894 0.000274769 0 0 0.000149641 0.000279588 0.000335335 0.000231842 0 0 0.000134805 0.000246515 0.000284934 0.000194677 0 0 0.000117228 0.000212541 0.000240564 0.000163331 0 0 0.000100332 0.000179074 0.000200084 0.000134656 0 0 8.34408e-05 0.000146431 0.000161214 0.000107113 0 0 6.6072e-05 0.000114441 0.000123939 8.13316e-05 0 0 4.89268e-05 8.37819e-05 8.94938e-05 5.81783e-05 0 0 3.31846e-05 5.62581e-05 5.94287e-05 3.83257e-05 0 0 2.01712e-05 3.38706e-05 3.53988e-05 2.2643e-05 0 0 1.06901e-05 1.77885e-05 1.83962e-05 1.1673e-05 0 0 4.79352e-06 7.91354e-06 8.10799e-06 5.10816e-06 0 0 1.80041e-06 2.95435e-06 3.0054e-06 1.883e-06 0 0 5.78228e-07 9.44265e-07 9.54982e-07 5.95567e-07 0 0 1.66002e-07 2.7021e-07 2.72203e-07 1.69227e-07 0 0 4.4687e-08 7.25838e-08 7.29291e-08 4.52447e-08 0 0 1.15796e-08 1.87823e-08 1.884e-08 1.16722e-08 0 0 2.92335e-09 4.73767e-09 4.74709e-09 2.93856e-09 0 0 7.22526e-10 1.17036e-09 1.17198e-09 7.2514e-10 0 0 1.75188e-10 2.83726e-10 2.84158e-10 1.75627e-10 0 0 4.17619e-11 6.76527e-11 6.78545e-11 4.19269e-11 0 0 9.93083e-12 1.59478e-11 1.61688e-11 9.9693e-12 0 0 2.44371e-12 3.92565e-12 4.04388e-12 2.38351e-12 0 0 6.83297e-13 1.29556e-12 1.16013e-12 6.74417e-13 0 0 4.50255e-13 4.7481e-13 7.03072e-13 2.02091e-13 0 0 4.47487e-13 2.83821e-13 5.60815e-13 1.99949e-13 0 0 2.19643e-13 6.92737e-13 1.22078e-13 3.8377e-13 0 0 1.58869e-13 7.73282e-13 1.36715e-13 3.6367e-13 0 0 2.43896e-13 6.26109e-13 2.9562e-13 3.27653e-13 0 0 3.96887e-13 4.26894e-13 5.46134e-13 1.55411e-13 0 0 4.76321e-13 3.94351e-13 6.37619e-13 3.82278e-14 0 0 5.14352e-13 5.06817e-13 4.07965e-13 2.84622e-13 0 0 5.38608e-13 6.2221e-13 2.27383e-13 4.85363e-13 0 0 4.6063e-13 7.111e-13 2.87461e-13 3.94743e-13 0 0 4.1617e-13 6.29347e-13 4.71315e-13 2.77247e-13 0 0 2.91057e-13 6.7578e-13 4.45689e-13 2.07623e-13 0 0 3.52136e-13 5.67231e-13 5.3026e-13 2.27052e-13 0 0 2.68774e-13 8.05948e-13 2.81112e-13 4.89401e-13 0 0 1.66624e-13 1.00343e-12 1.44711e-13 3.93849e-13 0 0 3.23124e-13 7.65588e-13 3.5103e-13 1.78823e-13 0 0 3.88055e-13 6.75544e-13 3.55376e-13 2.54434e-13 0 0 5.02058e-13 4.99613e-13 4.48562e-13 2.71962e-13 0 0 5.3075e-13 4.69051e-13 3.9322e-13 4.10958e-13 0 0 4.52614e-13 6.29909e-13 1.73471e-13 6.75757e-13 0 0 3.15321e-13 7.07216e-13 1.43394e-13 7.37265e-13 0 0 2.304e-13 5.25867e-13 4.86675e-13 3.96295e-13 0 0 2.04083e-13 5.27196e-13 4.54988e-13 4.22443e-13 0 0 4.16531e-13 4.5451e-13 2.59668e-13 7.13513e-13 0 0 5.83153e-13 2.6229e-13 5.8081e-13 4.26501e-13 0 0 2.99445e-13 5.84827e-13 4.56662e-13 3.91153e-13 0 0 1.75417e-13 6.71788e-13 3.1626e-13 5.09578e-13 0 0 2.77614e-13 4.30149e-13 6.16492e-13 3.08414e-13 0 0 4.30344e-13 2.03185e-13 9.33083e-13 8.13504e-15 0 0 3.03149e-13 3.00399e-13 9.48019e-13 -1.01401e-13 0 0 2.49499e-14 6.48503e-13 4.64954e-13 3.84153e-13 0 0 2.13244e-13 3.45815e-13 6.09551e-13 4.53482e-13 0 0 3.07134e-13 1.61916e-13 1.06016e-12 -3.02656e-14 0 0 5.29193e-14 4.72645e-13 8.36117e-13 8.29512e-15 0 0 3.58172e-14 5.76984e-13 5.90573e-13 1.21874e-13 0 0 1.73617e-13 5.60392e-13 5.99033e-13 2.42786e-14 0 0 3.69978e-13 2.43937e-13 8.75159e-13 -1.42976e-13 0 0 1.71287e-13 5.48641e-13 4.80415e-13 9.84207e-14 0 0 -2.81805e-13 1.21127e-12 1.04697e-14 2.853e-13 0 0 -3.565e-13 1.26071e-12 1.98194e-13 7.23252e-14 0
				</DataArray>
				<DataArray Name="VitesseY" type="Float32" format="ascii">