<?xml version="1.0"?>
<VTKFile type="PolyData">
	<PolyData>
		<Piece NumberOfPoints="1206" NumberOfPolys="1000">
			<Points>
				<DataArray type="Float32" NumberOfComponents="3" format="ascii">
 0 0 0 0.02 0 0 0.04 0 0 0.06 0 0 0.08 0 0 0.1 0 0 0 0.005 0 0.02 0.005 0 0.04 0.005 0 0.06 0.005 0 0.08 0.005 0 0.1 0.005 0 0 0.01 0 0.02 0.01 0 0.04 0.01 0 0.06 0.01 0 0.08 0.01 0 0.1 0.01 0 0 0.015 0 0.02 0.015 0 0.04 0.015 0 0.06 0.015 0 0.08 0.015 0 0.1 0.015 0 0 0.02 0 0.02 0.02 0 0.04 0.02 0 0.06 0.02 0 0.08 0.02 0 0.1 0.02 0 0 0.025 0 0.02 0.025 0 0.04 0.025 0 0.06 0.025 0 0.08 0.025 0 0.1 0.025 0 0 0.03 0 0.02 0.03 0 0.04 0.03 0 0.06 0.03 0 0.08 0.03 0 0.1 0.03 0 0 0.035 0 0.02 0.035 0 0.04 0.035 0 0.06 0.035 0 0.08 0.035 0 0.1 0.035 0 0 0.04 0 0.02 0.04 0 0.04 0.04 0 0.06 0.04 0 0.08 0.04 0 0.1 0.04 0 0 0.045 0 0.02 0.045 0 0.04 0.045 0 0.06 0.045 0 0.08 0.045 0 0.1 0.045 0 0 0.05 0 0.02 0.05 0 0.04 0.05 0 0.06 0.05 0 0.08 0.05 0 0.1 0.05 0 0 0.055 0 0.02 0.055 0 0.04 0.055 0 0.06 0.055 0 0.08 0.055 0 0.1 0.055 0 0 0.06 0 0.02 0.06 0 0.04 0.06 0 0.06 0.06 0 0.08 0.06 0 0.1 0.06 0 0 0.065 0 0.02 0.065 0 0.04 0.065 0 0.06 0.065 0 0.08 0.065 0 0.1 0.065 0 0 0.07 0 0.02 0.07 0 0.04 0.07 0 0.06 0.07 0 0.08 0.07 0 0.1 0.07 0 0 0.075 0 0.02 0.075 0 0.04 0.075 0 0.06 0.075 0 0.08 0.075 0 0.1 0.075 0 0 0.08 0 0.02 0.08 0 0.04 0.08 0 0.06 0.08 0 0.08 0.08 0 0.1 0.08 0 0 0.085 0 0.02 0.085 0 0.04 0.085 0 0.06 0.085 0 0.08 0.085 0 0.1 0.085 0 0 0.09 0 0.02 0.09 0 0.04 0.09 0 0.06 0.09 0 0.08 0.09 0 0.1 0.09 0 0 0.095 0 0.02 0.095 0 0.04 0.095 0 0.06 0.095 0 0.08 0.095 0 0.1 0.095 0 0 0.1 0 0.02 0.1 0 0.04 0.1 0 0.06 0.1 0 0.08 0.1 0 0.1 0.1 0 0 0.105 0 0.02 0.105 0 0.04 0.105 0 0.06 0.105 0 0.08 0.105 0 0.1 0.105 0 0 0.11 0 0.02 0.11 0 0.04 0.11 0 0.06 0.11 0 0.08 0.11 0 0.1 0.11 0 0 0.115 0 0.02 0.115 0 0.04 0.115 0 0.06 0.115 0 0.08 0.115 0 0.1 0.115 0 0 0.12 0 0.02 0.12 0 0.04 0.12 0 0.06 0.12 0 0.08 0.12 0 0.1 0.12 0 0 0.125 0 0.02 0.125 0 0.04 0.125 0 0.06 0.125 0 0.08 0.125 0 0.1 0.125 0 0 0.13 0 0.02 0.13 0 0.04 0.13 0 0.06 0.13 0 0.08 0.13 0 0.1 0.13 0 0 0.135 0 0.02 0.135 0 0.04 0.135 0 0.06 0.135 0 0.08 0.135 0 0.1 0.135 0 0 0.14 0 0.02 0.14 0 0.04 0.14 0 0.06 0.14 0 0.08 0.14 0 0.1 0.14 0 0 0.145 0 0.02 0.145 0 0.04 0.145 0 0.06 0.145 0 0.08 0.145 0 0.1 0.145 0 0 0.15 0 0.02 0.15 0 0.04 0.15 0 0.06 0.15 0 0.08 0.15 0 0.1 0.15 0 0 0.155 0 0.02 0.155 0 0.04 0.155 0 0.06 0.155 0 0.08 0.155 0 0.1 0.155 0 0 0.16 0 0.02 0.16 0 0.04 0.16 0 0.06 0.16 0 0.08 0.16 0 0.1 0.16 0 0 0.165 0 0.02 0.165 0 0.04 0.165 0 0.06 0.165 0 0.08 0.165 0 0.1 0.165 0 0 0.17 0 0.02 0.17 0 0.04 0.17 0 0.06 0.17 0 0.08 0.17 0 0.1 0.17 0 0 0.175 0 0.02 0.175 0 0.04 0.175 0 0.06 0.175 0 0.08 0.175 0 0.1 0.175 0 0 0.18 0 0.02 0.18 0 0.04 0.18 0 0.06 0.18 0 0.08 0.18 0 0.1 0.18 0 0 0.185 0 0.02 0.185 0 0.04 0.185 0 0.06 0.185 0 0.08 0.185 0 0.1 0.185 0 0 0.19 0 0.02 0.19 0 0.04 0.19 0 0.06 0.19 0 0.08 0.19 0 0.1 0.19 0 0 0.195 0 0.02 0.195 0 0.04 0.195 0 0.06 0.195 0 0.08 0.195 0 0.1 0.195 0 0 0.2 0 0.02 0.2 0 0.04 0.2 0 0.06 0.2 0 0.08 0.2 0 0.1 0.2 0 0 0.205 0 0.02 0.205 0 0.04 0.205 0 0.06 0.205 0 0.08 0.205 0 0.1 0.205 0 0 0.21 0 0.02 0.21 0 0.04 0.21 0 0.06 0.21 0 0.08 0.21 0 0.1 0.21 0 0 0.215 0 0.02 0.215 0 0.04 0.215 0 0.06 0.215 0 0.08 0.215 0 0.1 0.215 0 0 0.22 0 0.02 0.22 0 0.04 0.22 0 0.06 0.22 0 0.08 0.22 0 0.1 0.22 0 0 0.225 0 0.02 0.225 0 0.04 0.225 0 0.06 0.225 0 0.08 0.225 0 0.1 0.225 0 0 0.23 0 0.02 0.23 0 0.04 0.23 0 0.06 0.23 0 0.08 0.23 0 0.1 0.23 0 0 0.235 0 0.02 0.235 0 0.04 0.235 0 0.06 0.235 0 0.08 0.235 0 0.1 0.235 0 0 0.24 0 0.02 0.24 0 0.04 0.24 0 0.06 0.24 0 0.08 0.24 0 0.1 0.24 0 0 0.245 0 0.02 0.245 0 0.04 0.245 0 0.06 0.245 0 0.08 0.245 0 0.1 0.245 0 0 0.25 0 0.02 0.25 0 0.04 0.25 0 0.06 0.25 0 0.08 0.25 0 0.1 0.25 0 0 0.255 0 0.02 0.255 0 0.04 0.255 0 0.06 0.255 0 0.08 0.255 0 0.1 0.255 0 0 0.26 0 0.02 0.26 0 0.04 0.26 0 0.06 0.26 0 0.08 0.26 0 0.1 0.26 0 0 0.265 0 0.02 0.265 0 0.04 0.265 0 0.06 0.265 0 0.08 0.265 0 0.1 0.265 0 0 0.27 0 0.02 0.27 0 0.04 0.27 0 0.06 0.27 0 0.08 0.27 0 0.1 0.27 0 0 0.275 0 0.02 0.275 0 0.04 0.275 0 0.06 0.275 0 0.08 0.275 0 0.1 0.275 0 0 0.28 0 0.02 0.28 0 0.04 0.28 0 0.06 0.28 0 0.08 0.28 0 0.1 0.28 0 0 0.285 0 0.02 0.285 0 0.04 0.285 0 0.06 0.285 0 0.08 0.285 0 0.1 0.285 0 0 0.29 0 0.02 0.29 0 0.04 0.29 0 0.06 0.29 0 0.08 0.29 0 0.1 0.29 0 0 0.295 0 0.02 0.295 0 0.04 0.295 0 0.06 0.295 0 0.08 0.295 0 0.1 0.295 0 0 0.3 0 0.02 0.3 0 0.04 0.3 0 0.06 0.3 0 0.08 0.3 0 0.1 0.3 0 0 0.305 0 0.02 0.305 0 0.04 0.305 0 0.06 0.305 0 0.08 0.305 0 0.1 0.305 0 0 0.31 0 0.02 0.31 0 0.04 0.31 0 0.06 0.31 0 0.08 0.31 0 0.1 0.31 0 0 0.315 0 0.02 0.315 0 0.04 0.315 0 0.06 0.315 0 0.08 0.315 0 0.1 0.315 0 0 0.32 0 0.02 0.32 0 0.04 0.32 0 0.06 0.32 0 0.08 0.32 0 0.1 0.32 0 0 0.325 0 0.02 0.325 0 0.04 0.325 0 0.06 0.325 0 0.08 0.325 0 0.1 0.325 0 0 0.33 0 0.02 0.33 0 0.04 0.33 0 0.06 0.33 0 0.08 0.33 0 0.1 0.33 0 0 0.335 0 0.02 0.335 0 0.04 0.335 0 0.06 0.335 0 0.08 0.335 0 0.1 0.335 0 0 0.34 0 0.02 0.34 0 0.04 0.34 0 0.06 0.34 0 0.08 0.34 0 0.1 0.34 0 0 0.345 0 0.02 0.345 0 0.04 0.345 0 0.06 0.345 0 0.08 0.345 0 0.1 0.345 0 0 0.35 0 0.02 0.35 0 0.04 0.35 0 0.06 0.35 0 0.08 0.35 0 0.1 0.35 0 0 0.355 0 0.02 0.355 0 0.04 0.355 0 0.06 0.355 0 0.08 0.355 0 0.1 0.355 0 0 0.36 0 0.02 0.36 0 0.04 0.36 0 0.06 0.36 0 0.08 0.36 0 0.1 0.36 0 0 0.365 0 0.02 0.365 0 0.04 0.365 0 0.06 0.365 0 0.08 0.365 0 0.1 0.365 0 0 0.37 0 0.02 0.37 0 0.04 0.37 0 0.06 0.37 0 0.08 0.37 0 0.1 0.37 0 0 0.375 0 0.02 0.375 0 0.04 0.375 0 0.06 0.375 0 0.08 0.375 0 0.1 0.375 0 0 0.38 0 0.02 0.38 0 0.04 0.38 0 0.06 0.38 0 0.08 0.38 0 0.1 0.38 0 0 0.385 0 0.02 0.385 0 0.04 0.385 0 0.06 0.385 0 0.08 0.385 0 0.1 0.385 0 0 0.39 0 0.02 0.39 0 0.04 0.39 0 0.06 0.39 0 0.08 0.39 0 0.1 0.39 0 0 0.395 0 0.02 0.395 0 0.04 0.395 0 0.06 0.395 0 0.08 0.395 0 0.1 0.395 0 0 0.4 0 0.02 0.4 0 0.04 0.4 0 0.06 0.4 0 0.08 0.4 0 0.1 0.4 0 0 0.405 0 0.02 0.405 0 0.04 0.405 0 0.06 0.405 0 0.08 0.405 0 0.1 0.405 0 0 0.41 0 0.02 0.41 0 0.04 0.41 0 0.06 0.41 0 0.08 0.41 0 0.1 0.41 0 0 0.415 0 0.02 0.415 0 0.04 0.415 0 0.06 0.415 0 0.08 0.415 0 0.1 0.415 0 0 0.42 0 0.02 0.42 0 0.04 0.42 0 0.06 0.42 0 0.08 0.42 0 0.1 0.42 0 0 0.425 0 0.02 0.425 0 0.04 0.425 0 0.06 0.425 0 0.08 0.425 0 0.1 0.425 0 0 0.43 0 0.02 0.43 0 0.04 0.43 0 0.06 0.43 0 0.08 0.43 0 0.1 0.43 0 0 0.435 0 0.02 0.435 0 0.04 0.435 0 0.06 0.435 0 0.08 0.435 0 0.1 0.435 0 0 0.44 0 0.02 0.44 0 0.04 0.44 0 0.06 0.44 0 0.08 0.44 0 0.1 0.44 0 0 0.445 0 0.02 0.445 0 0.04 0.445 0 0.06 0.445 0 0.08 0.445 0 0.1 0.445 0 0 0.45 0 0.02 0.45 0 0.04 0.45 0 0.06 0.45 0 0.08 0.45 0 0.1 0.45 0 0 0.455 0 0.02 0.455 0 0.04 0.455 0 0.06 0.455 0 0.08 0.455 0 0.1 0.455 0 0 0.46 0 0.02 0.46 0 0.04 0.46 0 0.06 0.46 0 0.08 0.46 0 0.1 0.46 0 0 0.465 0 0.02 0.465 0 0.04 0.465 0 0.06 0.465 0 0.08 0.465 0 0.1 0.465 0 0 0.47 0 0.02 0.47 0 0.04 0.47 0 0.06 0.47 0 0.08 0.47 0 0.1 0.47 0 0 0.475 0 0.02 0.475 0 0.04 0.475 0 0.06 0.475 0 0.08 0.475 0 0.1 0.475 0 0 0.48 0 0.02 0.48 0 0.04 0.48 0 0.06 0.48 0 0.08 0.48 0 0.1 0.48 0 0 0.485 0 0.02 0.485 0 0.04 0.485 0 0.06 0.485 0 0.08 0.485 0 0.1 0.485 0 0 0.49 0 0.02 0.49 0 0.04 0.49 0 0.06 0.49 0 0.08 0.49 0 0.1 0.49 0 0 0.495 0 0.02 0.495 0 0.04 0.495 0 0.06 0.495 0 0.08 0.495 0 0.1 0.495 0 0 0.5 0 0.02 0.5 0 0.04 0.5 0 0.06 0.5 0 0.08 0.5 0 0.1 0.5 0 0 0.505 0 0.02 0.505 0 0.04 0.505 0 0.06 0.505 0 0.08 0.505 0 0.1 0.505 0 0 0.51 0 0.02 0.51 0 0.04 0.51 0 0.06 0.51 0 0.08 0.51 0 0.1 0.51 0 0 0.515 0 0.02 0.515 0 0.04 0.515 0 0.06 0.515 0 0.08 0.515 0 0.1 0.515 0 0 0.52 0 0.02 0.52 0 0.04 0.52 0 0.06 0.52 0 0.08 0.52 0 0.1 0.52 0 0 0.525 0 0.02 0.525 0 0.04 0.525 0 0.06 0.525 0 0.08 0.525 0 0.1 0.525 0 0 0.53 0 0.02 0.53 0 0.04 0.53 0 0.06 0.53 0 0.08 0.53 0 0.1 0.53 0 0 0.535 0 0.02 0.535 0 0.04 0.535 0 0.06 0.535 0 0.08 0.535 0 0.1 0.535 0 0 0.54 0 0.02 0.54 0 0.04 0.54 0 0.06 0.54 0 0.08 0.54 0 0.1 0.54 0 0 0.545 0 0.02 0.545 0 0.04 0.545 0 0.06 0.545 0 0.08 0.545 0 0.1 0.545 0 0 0.55 0 0.02 0.55 0 0.04 0.55 0 0.06 0.55 0 0.08 0.55 0 0.1 0.55 0 0 0.555 0 0.02 0.555 0 0.04 0.555 0 0.06 0.555 0 0.08 0.555 0 0.1 0.555 0 0 0.56 0 0.02 0.56 0 0.04 0.56 0 0.06 0.56 0 0.08 0.56 0 0.1 0.56 0 0 0.565 0 0.02 0.565 0 0.04 0.565 0 0.06 0.565 0 0.08 0.565 0 0.1 0.565 0 0 0.57 0 0.02 0.57 0 0.04 0.57 0 0.06 0.57 0 0.08 0.57 0 0.1 0.57 0 0 0.575 0 0.02 0.575 0 0.04 0.575 0 0.06 0.575 0 0.08 0.575 0 0.1 0.575 0 0 0.58 0 0.02 0.58 0 0.04 0.58 0 0.06 0.58 0 0.08 0.58 0 0.1 0.58 0 0 0.585 0 0.02 0.585 0 0.04 0.585 0 0.06 0.585 0 0.08 0.585 0 0.1 0.585 0 0 0.59 0 0.02 0.59 0 0.04 0.59 0 0.06 0.59 0 0.08 0.59 0 0.1 0.59 0 0 0.595 0 0.02 0.595 0 0.04 0.595 0 0.06 0.595 0 0.08 0.595 0 0.1 0.595 0 0 0.6 0 0.02 0.6 0 0.04 0.6 0 0.06 0.6 0 0.08 0.6 0 0.1 0.6 0 0 0.605 0 0.02 0.605 0 0.04 0.605 0 0.06 0.605 0 0.08 0.605 0 0.1 0.605 0 0 0.61 0 0.02 0.61 0 0.04 0.61 0 0.06 0.61 0 0.08 0.61 0 0.1 0.61 0 0 0.615 0 0.02 0.615 0 0.04 0.615 0 0.06 0.615 0 0.08 0.615 0 0.1 0.615 0 0 0.62 0 0.02 0.62 0 0.04 0.62 0 0.06 0.62 0 0.08 0.62 0 0.1 0.62 0 0 0.625 0 0.02 0.625 0 0.04 0.625 0 0.06 0.625 0 0.08 0.625 0 0.1 0.625 0 0 0.63 0 0.02 0.63 0 0.04 0.63 0 0.06 0.63 0 0.08 0.63 0 0.1 0.63 0 0 0.635 0 0.02 0.635 0 0.04 0.635 0 0.06 0.635 0 0.08 0.635 0 0.1 0.635 0 0 0.64 0 0.02 0.64 0 0.04 0.64 0 0.06 0.64 0 0.08 0.64 0 0.1 0.64 0 0 0.645 0 0.02 0.645 0 0.04 0.645 0 0.06 0.645 0 0.08 0.645 0 0.1 0.645 0 0 0.65 0 0.02 0.65 0 0.04 0.65 0 0.06 0.65 0 0.08 0.65 0 0.1 0.65 0 0 0.655 0 0.02 0.655 0 0.04 0.655 0 0.06 0.655 0 0.08 0.655 0 0.1 0.655 0 0 0.66 0 0.02 0.66 0 0.04 0.66 0 0.06 0.66 0 0.08 0.66 0 0.1 0.66 0 0 0.665 0 0.02 0.665 0 0.04 0.665 0 0.06 0.665 0 0.08 0.665 0 0.1 0.665 0 0 0.67 0 0.02 0.67 0 0.04 0.67 0 0.06 0.67 0 0.08 0.67 0 0.1 0.67 0 0 0.675 0 0.02 0.675 0 0.04 0.675 0 0.06 0.675 0 0.08 0.675 0 0.1 0.675 0 0 0.68 0 0.02 0.68 0 0.04 0.68 0 0.06 0.68 0 0.08 0.68 0 0.1 0.68 0 0 0.685 0 0.02 0.685 0 0.04 0.685 0 0.06 0.685 0 0.08 0.685 0 0.1 0.685 0 0 0.69 0 0.02 0.69 0 0.04 0.69 0 0.06 0.69 0 0.08 0.69 0 0.1 
[...]
			<PointData Scalars="VitesseX">
				<DataArray Name="VitesseX" type="Float32" format="ascii">
 0 9.87809e-15 -8.84086e-15 2.21028e-14 2.84218e-14 0 0 3.39991e-15 5.05424e-16 1.70158e-14 3.07092e-14 0 0 -4.18609e-15 9.85524e-15 1.87398e-14 2.7291e-14 0 0 -9.60556e-15 1.53156e-14 2.6848e-14 2.04611e-14 0 0 -1.2677e-14 2.09774e-14 3.14884e-14 1.73481e-14 0 0 -7.74839e-15 1.92894e-14 3.47914e-14 1.55751e-14 0 0 1.35085e-14 -9.09311e-15 6.32495e-14 -4.68154e-15 0 0 9.0843e-15 -7.7973e-15 6.69211e-14 -7.0774e-15 0 0 -7.91064e-15 1.56484e-14 3.49982e-14 2.02728e-14 0 0 8.21783e-15 -7.80961e-17 2.27759e-14 4.27284e-14 0 0 2.81786e-15 7.01286e-15 1.2123e-14 5.19819e-14 0 0 2.27807e-15 -2.06593e-15 3.78498e-14 3.21516e-14 0 0 1.74705e-14 -2.70787e-14 7.28413e-14 8.8011e-15 0 0 2.21765e-14 -1.7399e-14 5.74849e-14 1.57114e-14 0 0 1.10725e-14 6.93048e-15 4.75157e-14 1.19496e-14 0 0 -1.20782e-14 5.29697e-14 2.34022e-14 7.80903e-15 0 0 1.21676e-14 2.76627e-14 4.95985e-14 -2.01428e-14 0 0 1.92626e-14 1.57078e-14 6.73825e-14 -3.53912e-14 0 0 1.08044e-14 4.83123e-14 1.58275e-14 1.14655e-14 0 0 -2.84227e-15 5.96957e-14 -4.54337e-15 3.0672e-14 0 0 -2.3824e-15 3.10604e-14 4.42215e-14 -1.87602e-14 0 0 3.87201e-14 -1.94245e-14 8.74612e-14 -5.73841e-14 0 0 4.14739e-14 1.78995e-15 3.55705e-14 -2.43252e-14 0 0 -2.86789e-14 1.08176e-13 -8.56185e-14 6.12098e-14 0 0 3.35353e-16 2.76744e-14 4.85359e-15 2.06737e-14 0 0 6.39397e-14 -8.12311e-14 9.23781e-14 -1.12665e-14 0 0 1.52231e-14 -5.20601e-15 -3.34134e-15 7.19777e-14 0 0 -1.55701e-14 2.40728e-14 -1.78148e-15 7.49614e-14 0 0 3.10632e-14 -4.04158e-14 7.45899e-14 3.73863e-14 0 0 2.64648e-14 -1.29593e-14 5.07351e-14 6.45385e-14 0 0 -9.58868e-15 6.5847e-14 -2.04397e-14 9.5066e-14 0 0 -8.58415e-15 6.75353e-14 1.90943e-14 3.8361e-14 0 0 -3.02319e-14 1.15354e-13 2.01688e-14 1.78688e-14 0 0 -4.11055e-15 1.15426e-13 2.82078e-14 1.67803e-15 0 0 1.38067e-14 7.18797e-14 9.27575e-14 -3.84612e-14 0 0 6.70987e-14 -2.46221e-14 1.90764e-13 -8.06815e-14 0 0 4.94923e-14 3.44203e-14 1.07918e-13 -2.15373e-14 0 0 -1.40098e-14 9.86592e-14 5.21532e-14 3.21849e-14 0 0 -2.53354e-14 6.22184e-14 6.41588e-14 8.77543e-14 0 0 -9.62414e-15 -9.2747e-15 1.07543e-13 1.03642e-13 0 0 -3.70864e-15 -4.73681e-14 1.15247e-13 1.08536e-13 0 0 -7.84518e-14 6.79044e-14 -3.90606e-15 1.47655e-13 0 0 -1.06288e-13 8.05787e-14 3.33891e-14 8.63964e-14 0 0 -2.4224e-14 -2.31675e-14 1.55693e-13 -3.83037e-15 0 0 -3.54798e-14 -5.26138e-15 1.65316e-13 -3.59556e-14 0 0 -1.60995e-13 1.84847e-13 -5.16752e-14 1.01712e-13 0 0 -1.32205e-13 2.04338e-13 -1.18981e-13 1.47038e-13 0 0 -7.2214e-15 4.8171e-14 7.62066e-14 -3.50917e-14 0 0 5.64756e-14 7.49696e-15 1.00458e-13 -6.00742e-14 0 0 1.2028e-13 -5.56093e-14 1.43928e-13 -2.35778e-14 0 0 1.98539e-13 -2.21545e-13 3.67974e-13 -1.36827e-13 0 0 1.1503e-13 -6.6262e-14 2.63575e-13 -9.0101e-14 0 0 -3.78039e-14 2.51897e-13 -2.63116e-14 6.51037e-14 0 0 -9.30527e-14 3.72694e-13 -1.17259e-13 1.03219e-13 0 0 1.04975e-13 7.04001e-14 1.92973e-13 -8.91077e-14 0 0 2.3923e-13 -1.06733e-13 3.31628e-13 -1.47615e-13 0 0 4.43257e-14 1.87352e-13 6.88816e-14 1.40408e-14 0 0 4.21364e-14 1.15941e-13 1.56475e-13 -1.4619e-15 0 0 5.03486e-14 5.40103e-14 2.37311e-13 -1.10881e-14 0 0 -1.13669e-14 1.66033e-13 1.1818e-13 1.24052e-13 0 0 7.56013e-14 1.06651e-13 1.30544e-13 2.00913e-13 0 0 6.46756e-14 5.40278e-14 2.64684e-13 1.4081e-13 0 0 -3.90019e-14 1.04466e-13 3.23522e-13 1.14462e-13 0 0 -1.123e-13 1.9253e-13 3.07126e-13 9.80894e-14 0 0 -7.1589e-14 2.42637e-13 2.22571e-13 1.2343e-13 0 0 3.49545e-14 1.42984e-13 2.59314e-13 6.09925e-14 0 0 -1.06128e-13 2.32961e-13 2.17626e-13 3.40498e-14 0 0 -1.73257e-13 1.63835e-13 3.49403e-13 -6.59061e-15 0 0 -9.67365e-14 -1.35688e-15 5.63003e-13 -7.11276e-14 0 0 -7.77583e-14 1.35144e-13 3.47153e-13 1.14431e-13 0 0 9.94826e-15 7.38531e-14 2.45857e-13 2.25036e-13 0 0 6.45829e-14 4.38798e-14 1.99955e-13 2.16725e-13 0 0 3.49171e-13 -2.97858e-13 4.49403e-13 1.28016e-14 0 0 3.01655e-13 -2.2238e-13 4.17335e-13 -1.23703e-14 0 0 4.2374e-14 9.65634e-14 2.52775e-13 6.47351e-14 0 0 4.10036e-15 1.32685e-13 1.74171e-13 2.25935e-13 0 0 8.20511e-15 1.90773e-13 8.50869e-14 2.9969e-13 0 0 2.69611e-13 -2.46556e-13 7.08506e-13 -2.57114e-13 0 0 2.17653e-13 -1.21431e-13 6.37009e-13 -4.12979e-13 0 0 2.01738e-13 1.23483e-13 2.00463e-13 -1.88546e-13 0 0 4.5146e-13 -2.21503e-13 3.20879e-13 -1.31624e-13 0 0 3.90256e-13 -1.01719e-13 4.45473e-14 1.2953e-13 0 0 1.99268e-13 1.06185e-13 -1.07156e-13 2.02469e-13 0 0 7.62779e-14 1.83582e-13 -1.491e-13 2.72674e-13 0 0 1.01199e-13 7.81139e-14 -5.74389e-15 2.0554e-13 0 0 1.77059e-13 -2.46594e-13 3.90327e-13 1.71791e-14 0 0 2.0087e-13 -4.21739e-13 6.43272e-13 -1.62406e-13 0 0 9.88951e-14 -3.80005e-13 5.72158e-13 -8.26351e-14 0 0 -1.65298e-13 -8.28087e-14 3.25898e-13 1.24598e-13 0 0 -2.90964e-13 2.61647e-13 -1.11589e-13 3.03096e-13 0 0 -2.88969e-13 2.72581e-13 -2.40623e-13 3.72648e-13 0 0 -1.63906e-13 4.83197e-14 -3.68207e-13 2.60146e-13 0 0 -6.33372e-13 -1.18922e-12 -1.31872e-12 -4.16834e-13 0 0 -4.18049e-12 -7.52751e-12 -7.34101e-12 -4.28717e-12 0 0 -2.40078e-11 -4.02545e-11 -4.0177e-11 -2.4896e-11 0 0 -1.20883e-10 -1.98967e-10 -2.01372e-10 -1.25869e-10 0 0 -5.48281e-10 -9.0265e-10 -9.20802e-10 -5.78277e-10 0 0 -2.25765e-09 -3.73785e-09 -3.84281e-09 -2.42735e-09 0 0 -8.44612e-09 -1.41006e-08 -1.46384e-08 -9.31564e-09 0 0 -2.86882e-08 -4.84254e-08 -5.09066e-08 -3.27019e-08 0 0 -8.83987e-08 -1.51375e-07 -1.61681e-07 -1.05074e-07 0 0 -2.46911e-07 -4.30714e-07 -4.69233e-07 -3.09234e-07 0 0 -6.24549e-07 -1.11562e-06 -1.24503e-06 -8.34004e-07 0 0 -1.44301e-06 -2.63028e-06 -3.0205e-06 -2.0612e-06 0 0 -3.01053e-06 -5.71598e-06 -6.79695e-06 -4.71025e-06 0 0 -5.73745e-06 -1.14669e-05 -1.38957e-05 -9.69552e-06 0 0 -1.04252e-05 -2.10075e-05 -2.57206e-05 -1.89965e-05 0 0 -1.52981e-05 -3.2598e-05 -4.41982e-05 -3.26188e-05 0 0 -2.00038e-05 -4.64187e-05 -6.27635e-05 -4.62021e-05 0 0 -2.46918e-05 -6.03209e-05 -8.24994e-05 -6.29251e-05 0 0 -2.90716e-05 -7.40303e-05 -0.000106208 -8.10106e-05 0 0 -3.26613e-05 -8.7344e-05 -0.000129213 -9.72554e-05 0 0 -3.78075e-05 -0.000101836 -0.000148486 -0.000111851 0 0 -4.75558e-05 -0.000121371 -0.00015985 -0.000109871 0 0 -6.78979e-05 -0.000143751 -0.000158501 -0.000102116 0 0 -9.00031e-05 -0.000163484 -0.000162743 -9.09278e-05 0 0 -0.000111136 -0.000198245 -0.000186908 -7.67058e-05 0 0 -0.000133131 -0.000251882 -0.000200439 -4.84028e-05 0 0 -0.000164013 -0.000313675 -0.000196007 1.20411e-05 0 0 -0.000204617 -0.00035458 -0.000177315 7.75315e-05 0 0 -0.00024683 -0.000350896 -0.000161258 9.10525e-05 0 0 -0.000246363 -0.000334482 -0.000121553 8.8522e-05 0 0 -0.000231183 -0.000290644 -8.39158e-05 7.65897e-05 0 0 -0.000193707 -0.000254444 -9.65662e-05 5.1397e-05 0 0 -0.000141631 -0.000212444 -0.000120702 -2.10734e-05 0 0 -4.40909e-05 -3.1549e-05 -9.02633e-05 -0.000189305 0 0 -6.23439e-06 0.000242823 0.000165457 -0.000129981 0 0 -1.9818e-05 0.000269113 0.000405866 0.000133609 0 0 -2.2708e-05 0.000250685 0.000411874 0.000260003 0 0 -1.10428e-05 0.00020944 0.000377377 0.000261404 0 0 1.39825e-05 0.000175731 0.000314308 0.000248816 0 0 3.47763e-05 0.000155817 0.000259939 0.000209943 0 0 4.83518e-05 0.000146833 0.000220834 0.000173393 0 0 5.62643e-05 0.000141513 0.000196347 0.000146953 0 0 6.15921e-05 0.000135282 0.000178821 0.000128604 0 0 6.27123e-05 0.000126931 0.000161532 0.000114322 0 0 6.10111e-05 0.000116005 0.00014186 0.000100508 0 0 5.50057e-05 0.000102587 0.000121295 8.47851e-05 0 0 4.77674e-05 8.73511e-05 0.000100377 6.88162e-05 0 0 3.95839e-05 7.09211e-05 7.95433e-05 5.34565e-05 0 0 3.07351e-05 5.40848e-05 5.94085e-05 3.93491e-05 0 0 2.1908e-05 3.79008e-05 4.09491e-05 2.68411e-05 0 0 1.40027e-05 2.38978e-05 2.54453e-05 1.65064e-05 0 0 7.85233e-06 1.3237e-05 1.38946e-05 8.91643e-06 0 0 3.74552e-06 6.24305e-06 6.46853e-06 4.11033e-06 0 0 1.48448e-06 2.45211e-06 2.51421e-06 1.58496e-06 0 0 4.93549e-07 8.09685e-07 8.23404e-07 5.15748e-07 0 0 1.42363e-07 2.32403e-07 2.34942e-07 1.46471e-07 0 0 3.76032e-08 6.11902e-08 6.16193e-08 3.8297e-08 0 0 9.41411e-09 1.52878e-08 1.53561e-08 9.5248e-09 0 0 2.27266e-09 3.68577e-09 3.69649e-09 2.28976e-09 0 0 5.32963e-10 8.6367e-10 8.6557e-10 5.35567e-10 0 0 1.21802e-10 1.9741e-10 1.97896e-10 1.22346e-10 0 0 2.72282e-11 4.42223e-11 4.4512e-11 2.7477e-11 0 0 6.02146e-12 9.93703e-12 1.00779e-11 6.26482e-12 0 0 1.42917e-12 2.41023e-12 2.51241e-12 1.6496e-12 0 0 5.14637e-13 7.95597e-13 8.15471e-13 7.80805e-13 0 0 4.32871e-13 3.98717e-13 5.40872e-13 5.64512e-13 0 0 4.66932e-13 2.84426e-13 5.98928e-13 3.81038e-13 0 0 3.9721e-13 3.95253e-13 6.11721e-13 2.9276e-13 0 0 1.27208e-13 8.55568e-13 3.39244e-13 3.33604e-13 0 0 2.32452e-13 7.89796e-13 4.03222e-13 2.33508e-13 0 0 4.87912e-13 5.15127e-13 6.63813e-13 9.51999e-14 0 0 4.58377e-13 6.67561e-13 4.97009e-13 2.37757e-13 0 0 5.38125e-13 6.02689e-13 5.1794e-13 2.41231e-13 0 0 3.88367e-13 7.88581e-13 4.05493e-13 3.15457e-13 0 0 3.61467e-13 7.90246e-13 3.95941e-13 4.17936e-13 0 0 6.02187e-13 5.17858e-13 5.67806e-13 4.45775e-13 0 0 3.81541e-13 9.26563e-13 2.66482e-13 5.52144e-13 0 0 4.04904e-13 8.75006e-13 4.66924e-13 2.51146e-13 0 0 6.23391e-13 6.53062e-13 5.41061e-13 2.08433e-13 0 0 7.32746e-13 6.02588e-13 4.86707e-13 2.35404e-13 0 0 8.77492e-13 3.0687e-13 9.02553e-13 -1.04996e-13 0 0 5.29753e-13 7.85406e-13 5.13027e-13 1.73026e-13 0 0 4.21176e-13 9.21177e-13 3.1907e-13 4.42724e-13 0 0 3.64298e-13 9.33638e-13 2.97554e-13 4.39128e-13 0 0 3.55186e-13 8.4182e-13 4.63178e-13 2.71711e-13 0 0 5.309e-13 5.90853e-13 7.00772e-13 1.85618e-13 0 0 4.62778e-13 7.96967e-13 4.50495e-13 4.47496e-13 0 0 4.88337e-13 6.49473e-13 6.15338e-13 3.6262e-13 0 0 3.81746e-13 7.35532e-13 4.57189e-13 4.09151e-13 0 0 4.79016e-13 6.32377e-13 4.77589e-13 3.73137e-13 0 0 4.93778e-13 4.83881e-13 6.93985e-13 1.59201e-13 0 0 4.04494e-13 4.58558e-13 7.44451e-13 1.06311e-13 0 0 4.56267e-13 3.79012e-13 6.47013e-13 2.27095e-13 0 0 3.40455e-13 4.75979e-13 5.89291e-13 2.19701e-13 0 0 2.4389e-13 5.19834e-13 7.20648e-13 9.99097e-14 0 0 2.43957e-13 6.15377e-13 5.44516e-13 2.71493e-13 0 0 1.5027e-13 7.40803e-13 4.8904e-13 2.91229e-13 0 0 8.38787e-14 6.68818e-13 7.94812e-13 5.16958e-15 0 0 2.22232e-13 4.46979e-13 9.32312e-13 -4.82654e-14 0 0 1.30216e-13 6.57653e-13 6.14181e-13 1.1859e-13 0 0 1.85571e-13 5.77728e-13 7.13052e-13 4.24288e-14 0 0 3.29965e-13 3.04202e-13 8.54605e-13 1.10177e-13 0 0 1.71243e-13 5.51971e-13 7.77191e-13 5.74627e-15 0 0 6.27136e-14 7.26331e-13 8.54222e-13 -2.08339e-13 0 0 1.17024e-13 5.6814e-13 9.47893e-13 -2.08928e-13 0 0 3.88432e-13 1.44217e-13 1.34122e-12 -4.27911e-13 0 0 2.7345e-13 3.86474e-13 1.15103e-12 -3.52271e-13 0 0 -5.64132e-14 8.45132e-13 9.26939e-13 -3.43781e-13 0 0 -6.67707e-14 7.77778e-13 1.20815e-12 -6.02512e-13 0
				</DataArray>
				<DataArray Name="VitesseY" type="Float32" format="ascii">