<?xml version="1.0"?>
<VTKFile type="PolyData">
	<PolyData>
		<Piece NumberOfPoints="1206" NumberOfPolys="1000">
			<Points>
				<DataArray type="Float32" NumberOfComponents="3" format="ascii">
 0 0 0 0.005 0 0 0.01 0 0 0.015 0 0 0.02 0 0 0.025 0 0 0.03 0 0 0.035 0 0 0.04 0 0 0.045 0 0 0.05 0 0 0.055 0 0 0.06 0 0 0.065 0 0 0.07 0 0 0.075 0 0 0.08 0 0 0.085 0 0 0.09 0 0 0.095 0 0 0.1 0 0 0.105 0 0 0.11 0 0 0.115 0 0 0.12 0 0 0.125 0 0 0.13 0 0 0.135 0 0 0.14 0 0 0.145 0 0 0.15 0 0 0.155 0 0 0.16 0 0 0.165 0 0 0.17 0 0 0.175 0 0 0.18 0 0 0.185 0 0 0.19 0 0 0.195 0 0 0.2 0 0 0.205 0 0 0.21 0 0 0.215 0 0 0.22 0 0 0.225 0 0 0.23 0 0 0.235 0 0 0.24 0 0 0.245 0 0 0.25 0 0 0.255 0 0 0.26 0 0 0.265 0 0 0.27 0 0 0.275 0 0 0.28 0 0 0.285 0 0 0.29 0 0 0.295 0 0 0.3 0 0 0.305 0 0 0.31 0 0 0.315 0 0 0.32 0 0 0.325 0 0 0.33 0 0 0.335 0 0 0.34 0 0 0.345 0 0 0.35 0 0 0.355 0 0 0.36 0 0 0.365 0 0 0.37 0 0 0.375 0 0 0.38 0 0 0.385 0 0 0.39 0 0 0.395 0 0 0.4 0 0 0.405 0 0 0.41 0 0 0.415 0 0 0.42 0 0 0.425 0 0 0.43 0 0 0.435 0 0 0.44 0 0 0.445 0 0 0.45 0 0 0.455 0 0 0.46 0 0 0.465 0 0 0.47 0 0 0.475 0 0 0.48 0 0 0.485 0 0 0.49 0 0 0.495 0 0 0.5 0 0 0.505 0 0 0.51 0 0 0.515 0 0 0.52 0 0 0.525 0 0 0.53 0 0 0.535 0 0 0.54 0 0 0.545 0 0 0.55 0 0 0.555 0 0 0.56 0 0 0.565 0 0 0.57 0 0 0.575 0 0 0.58 0 0 0.585 0 0 0.59 0 0 0.595 0 0 0.6 0 0 0.605 0 0 0.61 0 0 0.615 0 0 0.62 0 0 0.625 0 0 0.63 0 0 0.635 0 0 0.64 0 0 0.645 0 0 0.65 0 0 0.655 0 0 0.66 0 0 0.665 0 0 0.67 0 0 0.675 0 0 0.68 0 0 0.685 0 0 0.69 0 0 0.695 0 0 0.7 0 0 0.705 0 0 0.71 0 0 0.715 0 0 0.72 0 0 0.725 0 0 0.73 0 0 0.735 0 0 0.74 0 0 0.745 0 0 0.75 0 0 0.755 0 0 0.76 0 0 0.765 0 0 0.77 0 0 0.775 0 0 0.78 0 0 0.785 0 0 0.79 0 0 0.795 0 0 0.8 0 0 0.805 0 0 0.81 0 0 0.815 0 0 0.82 0 0 0.825 0 0 0.83 0 0 0.835 0 0 0.84 0 0 0.845 0 0 0.85 0 0 0.855 0 0 0.86 0 0 0.865 0 0 0.87 0 0 0.875 0 0 0.88 0 0 0.885 0 0 0.89 0 0 0.895 0 0 0.9 0 0 0.905 0 0 0.91 0 0 0.915 0 0 0.92 0 0 0.925 0 0 0.93 0 0 0.935 0 0 0.94 0 0 0.945 0 0 0.95 0 0 0.955 0 0 0.96 0 0 0.965 0 0 0.97 0 0 0.975 0 0 0.98 0 0 0.985 0 0 0.99 0 0 0.995 0 0 1 0 0 0 0.02 0 0.005 0.02 0 0.01 0.02 0 0.015 0.02 0 0.02 0.02 0 0.025 0.02 0 0.03 0.02 0 0.035 0.02 0 0.04 0.02 0 0.045 0.02 0 0.05 0.02 0 0.055 0.02 0 0.06 0.02 0 0.065 0.02 0 0.07 0.02 0 0.075 0.02 0 0.08 0.02 0 0.085 0.02 0 0.09 0.02 0 0.095 0.02 0 0.1 0.02 0 0.105 0.02 0 0.11 0.02 0 0.115 0.02 0 0.12 0.02 0 0.125 0.02 0 0.13 0.02 0 0.135 0.02 0 0.14 0.02 0 0.145 0.02 0 0.15 0.02 0 0.155 0.02 0 0.16 0.02 0 0.165 0.02 0 0.17 0.02 0 0.175 0.02 0 0.18 0.02 0 0.185 0.02 0 0.19 0.02 0 0.195 0.02 0 0.2 0.02 0 0.205 0.02 0 0.21 0.02 0 0.215 0.02 0 0.22 0.02 0 0.225 0.02 0 0.23 0.02 0 0.235 0.02 0 0.24 0.02 0 0.245 0.02 0 0.25 0.02 0 0.255 0.02 0 0.26 0.02 0 0.265 0.02 0 0.27 0.02 0 0.275 0.02 0 0.28 0.02 0 0.285 0.02 0 0.29 0.02 0 0.295 0.02 0 0.3 0.02 0 0.305 0.02 0 0.31 0.02 0 0.315 0.02 0 0.32 0.02 0 0.325 0.02 0 0.33 0.02 0 0.335 0.02 0 0.34 0.02 0 0.345 0.02 0 0.35 0.02 0 0.355 0.02 0 0.36 0.02 0 0.365 0.02 0 0.37 0.02 0 0.375 0.02 0 0.38 0.02 0 0.385 0.02 0 0.39 0.02 0 0.395 0.02 0 0.4 0.02 0 0.405 0.02 0 0.41 0.02 0 0.415 0.02 0 0.42 0.02 0 0.425 0.02 0 0.43 0.02 0 0.435 0.02 0 0.44 0.02 0 0.445 0.02 0 0.45 0.02 0 0.455 0.02 0 0.46 0.02 0 0.465 0.02 0 0.47 0.02 0 0.475 0.02 0 0.48 0.02 0 0.485 0.02 0 0.49 0.02 0 0.495 0.02 0 0.5 0.02 0 0.505 0.02 0 0.51 0.02 0 0.515 0.02 0 0.52 0.02 0 0.525 0.02 0 0.53 0.02 0 0.535 0.02 0 0.54 0.02 0 0.545 0.02 0 0.55 0.02 0 0.555 0.02 0 0.56 0.02 0 0.565 0.02 0 0.57 0.02 0 0.575 0.02 0 0.58 0.02 0 0.585 0.02 0 0.59 0.02 0 0.595 0.02 0 0.6 0.02 0 0.605 0.02 0 0.61 0.02 0 0.615 0.02 0 0.62 0.02 0 0.625 0.02 0 0.63 0.02 0 0.635 0.02 0 0.64 0.02 0 0.645 0.02 0 0.65 0.02 0 0.655 0.02 0 0.66 0.02 0 0.665 0.02 0 0.67 0.02 0 0.675 0.02 0 0.68 0.02 0 0.685 0.02 0 0.69 0.02 0 0.695 0.02 0 0.7 0.02 0 0.705 0.02 0 0.71 0.02 0 0.715 0.02 0 0.72 0.02 0 0.725 0.02 0 0.73 0.02 0 0.735 0.02 0 0.74 0.02 0 0.745 0.02 0 0.75 0.02 0 0.755 0.02 0 0.76 0.02 0 0.765 0.02 0 0.77 0.02 0 0.775 0.02 0 0.78 0.02 0 0.785 0.02 0 0.79 0.02 0 0.795 0.02 0 0.8 0.02 0 0.805 0.02 0 0.81 0.02 0 0.815 0.02 0 0.82 0.02 0 0.825 0.02 0 0.83 0.02 0 0.835 0.02 0 0.84 0.02 0 0.845 0.02 0 0.85 0.02 0 0.855 0.02 0 0.86 0.02 0 0.865 0.02 0 0.87 0.02 0 0.875 0.02 0 0.88 0.02 0 0.885 0.02 0 0.89 0.02 0 0.895 0.02 0 0.9 0.02 0 0.905 0.02 0 0.91 0.02 0 0.915 0.02 0 0.92 0.02 0 0.925 0.02 0 0.93 0.02 0 0.935 0.02 0 0.94 0.02 0 0.945 0.02 0 0.95 0.02 0 0.955 0.02 0 0.96 0.02 0 0.965 0.02 0 0.97 0.02 0 0.975 0.02 0 0.98 0.02 0 0.985 0.02 0 0.99 0.02 0 0.995 0.02 0 1 0.02 0 0 0.04 0 0.005 0.04 0 0.01 0.04 0 0.015 0.04 0 0.02 0.04 0 0.025 0.04 0 0.03 0.04 0 0.035 0.04 0 0.04 0.04 0 0.045 0.04 0 0.05 0.04 0 0.055 0.04 0 0.06 0.04 0 0.065 0.04 0 0.07 0.04 0 0.075 0.04 0 0.08 0.04 0 0.085 0.04 0 0.09 0.04 0 0.095 0.04 0 0.1 0.04 0 0.105 0.04 0 0.11 0.04 0 0.115 0.04 0 0.12 0.04 0 0.125 0.04 0 0.13 0.04 0 0.135 0.04 0 0.14 0.04 0 0.145 0.04 0 0.15 0.04 0 0.155 0.04 0 0.16 0.04 0 0.165 0.04 0 0.17 0.04 0 0.175 0.04 0 0.18 0.04 0 0.185 0.04 0 0.19 0.04 0 0.195 0.04 0 0.2 0.04 0 0.205 0.04 0 0.21 0.04 0 0.215 0.04 0 0.22 0.04 0 0.225 0.04 0 0.23 0.04 0 0.235 0.04 0 0.24 0.04 0 0.245 0.04 0 0.25 0.04 0 0.255 0.04 0 0.26 0.04 0 0.265 0.04 0 0.27 0.04 0 0.275 0.04 0 0.28 0.04 0 0.285 0.04 0 0.29 0.04 0 0.295 0.04 0 0.3 0.04 0 0.305 0.04 0 0.31 0.04 0 0.315 0.04 0 0.32 0.04 0 0.325 0.04 0 0.33 0.04 0 0.335 0.04 0 0.34 0.04 0 0.345 0.04 0 0.35 0.04 0 0.355 0.04 0 0.36 0.04 0 0.365 0.04 0 0.37 0.04 0 0.375 0.04 0 0.38 0.04 0 0.385 0.04 0 0.39 0.04 0 0.395 0.04 0 0.4 0.04 0 0.405 0.04 0 0.41 0.04 0 0.415 0.04 0 0.42 0.04 0 0.425 0.04 0 0.43 0.04 0 0.435 0.04 0 0.44 0.04 0 0.445 0.04 0 0.45 0.04 0 0.455 0.04 0 0.46 0.04 0 0.465 0.04 0 0.47 0.04 0 0.475 0.04 0 0.48 0.04 0 0.485 0.04 0 0.49 0.04 0 0.495 0.04 0 0.5 0.04 0 0.505 0.04 0 0.51 0.04 0 0.515 0.04 0 0.52 0.04 0 0.525 0.04 0 0.53 0.04 0 0.535 0.04 0 0.54 0.04 0 0.545 0.04 0 0.55 0.04 0 0.555 0.04 0 0.56 0.04 0 0.565 0.04 0 0.57 0.04 0 0.575 0.04 0 0.58 0.04 0 0.585 0.04 0 0.59 0.04 0 0.595 0.04 0 0.6 0.04 0 0.605 0.04 0 0.61 0.04 0 0.615 0.04 0 0.62 0.04 0 0.625 0.04 0 0.63 0.04 0 0.635 0.04 0 0.64 0.04 0 0.645 0.04 0 0.65 0.04 0 0.655 0.04 0 0.66 0.04 0 0.665 0.04 0 0.67 0.04 0 0.675 0.04 0 0.68 0.04 0 0.685 0.04 0 0.69 0.04 0 0.695 0.04 0 0.7 0.04 0 0.705 0.04 0 0.71 0.04 0 0.715 0.04 0 0.72 0.04 0 0.725 0.04 0 0.73 0.04 0 0.735 0.04 0 0.74 0.04 0 0.745 0.04 0 0.75 0.04 0 0.755 0.04 0 0.76 0.04 0 0.765 0.04 0 0.77 0.04 0 0.775 0.04 0 0.78 0.04 0 0.785 0.04 0 0.79 0.04 0 0.795 0.04 0 0.8 0.04 0 0.805 0.04 0 0.81 0.04 0 0.815 0.04 0 0.82 0.04 0 0.825 0.04 0 0.83 0.04 0 0.835 0.04 0 0.84 0.04 0 0.845 0.04 0 0.85 0.04 0 0.855 0.04 0 0.86 0.04 0 0.865 0.04 0 0.87 0.04 0 0.875 0.04 0 0.88 0.04 0 0.885 0.04 0 0.89 0.04 0 0.895 0.04 0 0.9 0.04 0 0.905 0.04 0 0.91 0.04 0 0.915 0.04 0 0.92 0.04 0 0.925 0.04 0 0.93 0.04 0 0.935 0.04 0 0.94 0.04 0 0.945 0.04 0 0.95 0.04 0 0.955 0.04 0 0.96 0.04 0 0.965 0.04 0 0.97 0.04 0 0.975 0.04 0 0.98 0.04 0 0.985 0.04 0 0.99 0.04 0 0.995 0.04 0 1 0.04 0 0 0.06 0 0.005 0.06 0 0.01 0.06 0 0.015 0.06 0 0.02 0.06 0 0.025 0.06 0 0.03 0.06 0 0.035 0.06 0 0.04 0.06 0 0.045 0.06 0 0.05 0.06 0 0.055 0.06 0 0.06 0.06 0 0.065 0.06 0 0.07 0.06 0 0.075 0.06 0 0.08 0.06 0 0.085 0.06 0 0.09 0.06 0 0.095 0.06 0 0.1 0.06 0 0.105 0.06 0 0.11 0.06 0 0.115 0.06 0 0.12 0.06 0 0.125 0.06 0 0.13 0.06 0 0.135 0.06 0 0.14 0.06 0 0.145 0.06 0 0.15 0.06 0 0.155 0.06 0 0.16 0.06 0 0.165 0.06 0 0.17 0.06 0 0.175 0.06 0 0.18 0.06 0 0.185 0.06 0 0.19 0.06 0 0.195 0.06 0 0.2 0.06 0 0.205 0.06 0 0.21 0.06 0 0.215 0.06 0 0.22 0.06 0 0.225 0.06 0 0.23 0.06 0 0.235 0.06 0 0.24 0.06 0 0.245 0.06 0 0.25 0.06 0 0.255 0.06 0 0.26 0.06 0 0.265 0.06 0 0.27 0.06 0 0.275 0.06 0 0.28 0.06 0 0.285 0.06 0 0.29 0.06 0 0.295 0.06 0 0.3 0.06 0 0.305 0.06 0 0.31 0.06 0 0.315 0.06 0 0.32 0.06 0 0.325 0.06 0 0.33 0.06 0 0.335 0.06 0 0.34 0.06 0 0.345 0.06 0 0.35 0.06 0 0.355 0.06 0 0.36 0.06 0 0.365 0.06 0 0.37 0.06 0 0.375 0.06 0 0.38 0.06 0 0.385 0.06 0 0.39 0.06 0 0.395 0.06 0 0.4 0.06 0 0.405 0.06 0 0.41 0.06 0 0.415 0.06 0 0.42 0.06 0 0.425 0.06 0 0.43 0.06 0 0.435 0.06 0 0.44 0.06 0 0.445 0.06 0 0.45 0.06 0 0.455 0.06 0 0.46 0.06 0 0.465 0.06 0 0.47 0.06 0 0.475 0.06 0 0.48 0.06 0 0.485 0.06 0 0.49 0.06 0 0.495 0.06 0 0.5 0.06 0 0.505 0.06 0 0.51 0.06 0 0.515 0.06 0 0.52 0.06 0 0.525 0.06 0 0.53 0.06 0 0.535 0.06 0 0.54 0.06 0 0.545 0.06 0 0.55 0.06 0 0.555 0.06 0 0.56 0.06 0 0.565 0.06 0 0.57 0.06 0 0.575 0.06 0 0.58 0.06 0 0.585 0.06 0 0.59 0.06 0 0.595 0.06 0 0.6 0.06 0 0.605 0.06 0 0.61 0.06 0 0.615 0.06 0 0.62 0.06 0 0.625 0.06 0 0.63 0.06 0 0.635 0.06 0 0.64 0.06 0 0.645 0.06 0 0.65 0.06 0 0.655 0.06 0 0.66 0.06 0 0.665 0.06 0 0.67 0.06 0 0.675 0.06 0 0.68 0.06 0 0.685 0.06 0 0.69 0.06 0 0.695 0.06 0 0.7 0.06 0 0.705 0.06 0 0.71 0.06 0 0.715 0.06 0 0.72 0.06 0 0.725 0.06 0 0.73 0.06 0 0.735 0.06 0 0.74 0.06 0 0.745 0.06 0 0.75 0.06 0 0.755 0.06 0 0.76 0.06 0 0.765 0.06 0 0.77 0.06 0 0.775 0.06 0 0.78 0.06 0 0.785 0.06 0 0.79 0.06 0 0.795 0.06 0 0.8 0.06 0 0.805 0.06 0 0.81 0.06 0 0.815 0.06 0 0.82 0.06 0 0.825 0.06 0 0.83 0.06 0 0.835 0.06 0 0.84 0.06 0 0.845 0.06 0 0.85 0.06 0 0.855 0.06 0 0.86 0.06 0 0.865 0.06 0 0.87 0.06 0 0.875 0.06 0 0.88 0.06 0 0.885 0.06 0 0.89 0.06 0 0.895 0.06 0 0.9 0.06 0 0.905 0.06 0 0.91 0.06 0 0.915 0.06 0 0.92 0.06 0 0.925 0.06 0 0.93 0.06 0 0.935 0.06 0 0.94 0.06 0 0.945 0.06 0 0.95 0.06 0 0.955 0.06 0 0.96 0.06 0 0.965 0.06 0 0.97 0.06 0 0.975 0.06 0 0.98 0.06 0 0.985 0.06 0 0.99 0.06 0 0.995 0.06 0 1 0.06 0 0 0.08 0 0.005 0.08 0 0.01 0.08 0 0.015 0.08 0 0.02 0.08 0 0.025 0.08 0 0.03 0.08 0 0.035 0.08 0 0.04 0.08 0 0.045 0.08 0 0.05 0.08 0 0.055 0.08 0 0.06 0.08 0 0.065 0.08 0 0.07 0.08 0 0.075 0.08 0 0.08 0.08 0 0.085 0.08 0 0.09 0.08 0 0.095 0.08 0 0.1 0.08 0 0.105 0.08 0 0.11 0.08 0 0.115 0.08 0 0.12 0.08 0 0.125 0.08 0 0.13 0.08 0 0.135 0.08 0 0.14 0.08 0 0.145 0.08 0 0.15 0.08 0 0.155 0.08 0 0.16 0.08 0 0.165 0.08 0
[...]
			<PointData Scalars="VitesseX">
				<DataArray Name="VitesseX" type="Float32" format="ascii">
 0 -4.6942e-15 3.47075e-16 3.50159e-16 -2.61075e-14 -1.4973e-14 1.529e-14 -7.34593e-14 -3.01089e-14 -5.25063e-14 -2.14055e-14 -7.52645e-14 -1.05481e-13 -2.92767e-14 -5.21476e-14 4.1922e-15 -3.99499e-14 -9.578e-15 -6.84261e-15 9.30015e-15 -5.04782e-14 -4.543e-15 2.83535e-14 -8.67407e-15 4.06074e-14 -3.29129e-14 -1.69998e-13 3.37961e-14 -6.08215e-14 -1.55048e-13 5.67759e-14 -3.59209e-14 5.46596e-14 -1.59011e-13 7.71243e-14 6.0987e-14 -8.12353e-15 2.32434e-13 5.96016e-13 3.3495e-12 1.93454e-11 1.11037e-10 6.02898e-10 3.11698e-09 1.52797e-08 7.08802e-08 3.10339e-07 1.2788e-06 4.94325e-06 1.78578e-05 6.00263e-05 0.000186771 0.000534697 0.00139879 0.00331977 0.00710192 0.0136453 0.0235826 0.0369582 0.0532458 0.0716739 0.091542 0.112346 0.133769 0.15562 0.177758 0.200096 0.222585 0.245192 0.267897 0.290687 0.313553 0.336493 0.359507 0.382597 0.405769 0.429023 0.452241 0.475192 0.498144 0.520817 0.543492 0.565946 0.588358 0.610612 0.63272 0.654693 0.676422 0.698123 0.719609 0.740968 0.7623 0.783185 0.804057 0.824344 0.843904 0.862878 0.879926 0.895256 0.908246 0.917691 0.924698 0.92899 0.930861 0.931825 0.932012 0.931956 0.931817 0.931607 0.931337 0.931015 0.930655 0.930282 0.92993 0.929621 0.929353 0.929123 0.928928 0.928765 0.928628 0.928521 0.928436 0.928348 0.928269 0.928205 0.928153 0.92811 0.928071 0.928036 0.928004 0.927974 0.927948 0.927924 0.927902 0.927882 0.927865 0.927848 0.927831 0.927815 0.9278 0.927786 0.927772 0.927759 0.927746 0.927733 0.927722 0.927712 0.927704 0.927695 0.92768 0.927657 0.927616 0.927531 0.927351 0.926976 0.926202 0.924631 0.921492 0.915328 0.903512 0.88166 0.843351 0.781003 0.688894 0.567817 0.429746 0.293539 0.178029 0.0944494 0.0440123 0.0185616 0.0073798 0.00285179 0.00108837 0.000413062 0.000156309 5.90307e-05 2.2253e-05 8.37305e-06 3.14399e-06 1.1778e-06 4.40086e-07 1.63963e-07 6.08916e-08 2.25341e-08 8.30638e-09 3.04946e-09 1.11408e-09 4.04688e-10 1.4642e-10 5.25964e-11 1.8306e-11 6.56506e-12 2.31689e-12 4.05435e-13 3.14638e-13 -2.50281e-13 5.90209e-13 -1.87141e-13 6.63563e-13 0 0 2.55422e-15 -1.37622e-14 -1.63443e-14 2.53285e-15 -2.46596e-14 -5.19845e-14 -1.30693e-14 -6.6088e-14 -2.01877e-14 -5.87471e-14 -7.12646e-14 -2.41522e-14 -9.21803e-14 -9.71669e-15 -3.00314e-14 -1.65736e-14 -2.56592e-14 5.27527e-14 -3.06801e-14 3.04624e-14 1.46846e-14 2.08656e-14 -7.90485e-14 -4.95179e-14 -8.58136e-15 1.83289e-14 -1.75558e-13 -7.82808e-14 1.1039e-14 -6.40326e-14 -5.76895e-14 -1.88164e-14 7.94296e-14 -8.23658e-14 3.5405e-14 1.63311e-13 1.20673e-13 5.84337e-13 3.30164e-12 1.94069e-11 1.1086e-10 6.03023e-10 3.11684e-09 1.52797e-08 7.08805e-08 3.10339e-07 1.2788e-06 4.94325e-06 1.78578e-05 6.00263e-05 0.000186771 0.000534697 0.00139879 0.00331977 0.00710192 0.0136453 0.0235826 0.0369582 0.0532458 0.0716739 0.091542 0.112346 0.133769 0.15562 0.177758 0.200096 0.222585 0.245192 0.267897 0.290687 0.313553 0.336493 0.359507 0.382597 0.405769 0.429023 0.452241 0.475192 0.498144 0.520817 0.543492 0.565946 0.588358 0.610612 0.63272 0.654693 0.676422 0.698123 0.719609 0.740968 0.7623 0.783185 0.804057 0.824344 0.843904 0.862878 0.879926 0.895256 0.908246 0.917691 0.924698 0.92899 0.930861 0.931825 0.932012 0.931956 0.931817 0.931607 0.931337 0.931015 0.930655 0.930282 0.92993 0.929621 0.929353 0.929123 0.928928 0.928765 0.928628 0.928521 0.928436 0.928348 0.928269 0.928205 0.928153 0.92811 0.928071 0.928036 0.928004 0.927974 0.927948 0.927924 0.927902 0.927882 0.927865 0.927848 0.927831 0.927815 0.9278 0.927786 0.927772 0.927759 0.927746 0.927733 0.927722 0.927712 0.927704 0.927695 0.92768 0.927657 0.927616 0.927531 0.927351 0.926976 0.926202 0.924631 0.921492 0.915328 0.903512 0.88166 0.843351 0.781003 0.688894 0.567817 0.429746 0.293539 0.178029 0.0944494 0.0440123 0.0185616 0.0073798 0.00285179 0.00108837 0.000413062 0.000156309 5.90307e-05 2.2253e-05 8.37305e-06 3.14399e-06 1.1778e-06 4.40086e-07 1.63963e-07 6.08917e-08 2.25338e-08 8.30691e-09 3.04894e-09 1.11412e-09 4.05154e-10 1.4625e-10 5.24999e-11 1.87027e-11 6.1965e-12 1.99137e-12 8.38814e-13 -1.40424e-13 4.6714e-13 4.6266e-14 2.18936e-13 -5.74704e-13 0 0 -1.18127e-14 -9.49655e-15 -1.39397e-14 -3.79646e-14 -3.26172e-14 -5.30698e-14 -2.98051e-14 -5.15361e-14 -4.77298e-14 -7.33085e-14 -1.96978e-14 -4.61933e-14 3.96711e-16 -7.6559e-14 -1.54397e-15 -7.81143e-16 -1.60957e-14 -5.51706e-15 3.1592e-14 4.31443e-14 3.57992e-15 -7.8766e-14 4.62558e-15 -7.29646e-14 -8.81437e-14 2.76483e-14 -1.67358e-13 -3.18985e-14 2.40582e-14 -7.59347e-15 -5.44045e-14 -1.28571e-14 -6.33152e-14 5.14245e-14 6.1038e-14 6.41564e-15 2.03658e-13 5.99101e-13 3.19779e-12 1.94484e-11 1.10855e-10 6.03001e-10 3.11676e-09 1.52797e-08 7.08805e-08 3.10339e-07 1.2788e-06 4.94325e-06 1.78578e-05 6.00263e-05 0.000186771 0.000534697 0.00139879 0.00331977 0.00710192 0.0136453 0.0235826 0.0369582 0.0532458 0.0716739 0.091542 0.112346 0.133769 0.15562 0.177758 0.200096 0.222585 0.245192 0.267897 0.290687 0.313553 0.336493 0.359507 0.382597 0.405769 0.429023 0.452241 0.475192 0.498144 0.520817 0.543492 0.565946 0.588358 0.610612 0.63272 0.654693 0.676422 0.698123 0.719609 0.740968 0.7623 0.783185 0.804057 0.824344 0.843904 0.862878 0.879926 0.895256 0.908246 0.917691 0.924698 0.92899 0.930861 0.931825 0.932012 0.931956 0.931817 0.931607 0.931337 0.931015 0.930655 0.930282 0.92993 0.929621 0.929353 0.929123 0.928928 0.928765 0.928628 0.928521 0.928436 0.928348 0.928269 0.928205 0.928153 0.92811 0.928071 0.928036 0.928004 0.927974 0.927948 0.927924 0.927902 0.927882 0.927865 0.927848 0.927831 0.927815 0.9278 0.927786 0.927772 0.927759 0.927746 0.927733 0.927722 0.927712 0.927704 0.927695 0.92768 0.927657 0.927616 0.927531 0.927351 0.926976 0.926202 0.924631 0.921492 0.915328 0.903512 0.88166 0.843351 0.781003 0.688894 0.567817 0.429746 0.293539 0.178029 0.0944494 0.0440123 0.0185616 0.0073798 0.00285179 0.00108837 0.000413062 0.000156309 5.90307e-05 2.2253e-05 8.37305e-06 3.14399e-06 1.1778e-06 4.40086e-07 1.63963e-07 6.08918e-08 2.25338e-08 8.30689e-09 3.04922e-09 1.1143e-09 4.04786e-10 1.46278e-10 5.22346e-11 1.83179e-11 6.56406e-12 2.13363e-12 8.66401e-13 2.14013e-13 -3.41949e-13 -2.51097e-14 7.11528e-13 2.26315e-14 0 0 -1.11652e-14 -1.29307e-14 -2.54199e-14 -3.76757e-14 -5.27818e-14 -3.26795e-14 -5.74844e-14 -5.26583e-14 -5.74371e-14 -4.13211e-14 -6.58775e-14 -7.60769e-16 2.27336e-14 -5.47992e-14 2.91135e-14 -2.36084e-14 -6.50279e-14 -7.87148e-14 6.94965e-14 -4.59898e-14 1.58114e-14 -1.00794e-13 -1.86234e-14 1.79179e-14 -7.85023e-14 -1.35259e-13 -4.22631e-14 6.6713e-14 -1.46508e-14 5.27095e-14 -4.44052e-14 -1.20575e-14 -6.64332e-14 -1.00061e-14 -1.77602e-14 -6.45438e-15 2.20953e-13 6.53517e-13 3.37911e-12 1.94341e-11 1.10853e-10 6.02942e-10 3.1167e-09 1.52798e-08 7.08803e-08 3.10339e-07 1.2788e-06 4.94325e-06 1.78578e-05 6.00263e-05 0.000186771 0.000534697 0.00139879 0.00331977 0.00710192 0.0136453 0.0235826 0.0369582 0.0532458 0.0716739 0.091542 0.112346 0.133769 0.15562 0.177758 0.200096 0.222585 0.245192 0.267897 0.290687 0.313553 0.336493 0.359507 0.382597 0.405769 0.429023 0.452241 0.475192 0.498144 0.520817 0.543492 0.565946 0.588358 0.610612 0.63272 0.654693 0.676422 0.698123 0.719609 0.740968 0.7623 0.783185 0.804057 0.824344 0.843904 0.862878 0.879926 0.895256 0.908246 0.917691 0.924698 0.92899 0.930861 0.931825 0.932012 0.931956 0.931817 0.931607 0.931337 0.931015 0.930655 0.930282 0.92993 0.929621 0.929353 0.929123 0.928928 0.928765 0.928628 0.928521 0.928436 0.928348 0.928269 0.928205 0.928153 0.92811 0.928071 0.928036 0.928004 0.927974 0.927948 0.927924 0.927902 0.927882 0.927865 0.927848 0.927831 0.927815 0.9278 0.927786 0.927772 0.927759 0.927746 0.927733 0.927722 0.927712 0.927704 0.927695 0.92768 0.927657 0.927616 0.927531 0.927351 0.926976 0.926202 0.924631 0.921492 0.915328 0.903512 0.88166 0.843351 0.781003 0.688894 0.567817 0.429746 0.293539 0.178029 0.0944494 0.0440123 0.0185616 0.0073798 0.00285179 0.00108837 0.000413062 0.000156309 5.90307e-05 2.2253e-05 8.37305e-06 3.14399e-06 1.1778e-06 4.40086e-07 1.63963e-07 6.08918e-08 2.25341e-08 8.30647e-09 3.04965e-09 1.11406e-09 4.04974e-10 1.46382e-10 5.23096e-11 1.79207e-11 6.77071e-12 2.46678e-12 6.3387e-13 2.75803e-13 -1.5071e-13 -1.2177e-13 6.04346e-14 4.20276e-13 0 0 -4.3063e-15 -2.67268e-14 -4.12393e-14 -1.71522e-14 -4.06507e-14 -3.53778e-14 -3.48196e-14 -4.48541e-14 -4.43577e-14 -5.75711e-14 -9.11361e-14 -2.14724e-15 -6.31365e-14 -7.8244e-15 -3.87289e-14 3.24884e-15 -2.00178e-14 2.42296e-14 -4.19377e-14 -4.32884e-14 7.94162e-15 -3.25162e-15 -1.14855e-13 -1.85252e-14 -3.58958e-14 -8.55072e-14 -5.96884e-14 1.89475e-14 6.09364e-15 -1.21749e-13 -4.17457e-14 -6.15528e-14 1.25434e-13 -9.99795e-14 -2.84071e-14 2.49561e-13 2.06882e-13 6.37804e-13 3.2457e-12 1.94179e-11 1.10698e-10 6.03044e-10 3.11681e-09 1.52798e-08 7.08804e-08 3.10339e-07 1.2788e-06 4.94325e-06 1.78578e-05 6.00263e-05 0.000186771 0.000534697 0.00139879 0.00331977 0.00710192 0.0136453 0.0235826 0.0369582 0.0532458 0.0716739 0.091542 0.112346 0.133769 0.15562 0.177758 0.200096 0.222585 0.245192 0.267897 0.290687 0.313553 0.336493 0.359507 0.382597 0.405769 0.429023 0.452241 0.475192 0.498144 0.520817 0.543492 0.565946 0.588358 0.610612 0.63272 0.654693 0.676422 0.698123 0.719609 0.740968 0.7623 0.783185 0.804057 0.824344 0.843904 0.862878 0.879926 0.895256 0.908246 0.917691 0.924698 0.92899 0.930861 0.931825 0.932012 0.931956 0.931817 0.931607 0.931337 0.931015 0.930655 0.930282 0.92993 0.929621 0.929353 0.929123 0.928928 0.928765 0.928628 0.928521 0.928436 0.928348 0.928269 0.928205 0.928153 0.92811 0.928071 0.928036 0.928004 0.927974 0.927948 0.927924 0.927902 0.927882 0.927865 0.927848 0.927831 0.927815 0.9278 0.927786 0.927772 0.927759 0.927746 0.927733 0.927722 0.927712 0.927704 0.927695 0.92768 0.927657 0.927616 0.927531 0.927351 0.926976 0.926202 0.924631 0.921492 0.915328 0.903512 0.88166 0.843351 0.781003 0.688894 0.567817 0.429746 0.293539 0.178029 0.0944494 0.0440123 0.0185616 0.0073798 0.00285179 0.00108837 0.000413062 0.000156309 5.90307e-05 2.2253e-05 8.37305e-06 3.14399e-06 1.1778e-06 4.40086e-07 1.63963e-07 6.0892e-08 2.25342e-08 8.30675e-09 3.04939e-09 1.11404e-09 4.05408e-10 1.46042e-10 5.23151e-11 1.84579e-11 6.21675e-12 2.2817e-12 7.47158e-13 -1.18362e-13 7.84273e-13 -2.11783e-13 -2.4903e-13 -6.32982e-13 0 0 -1.97103e-14 -1.87138e-14 -2.64795e-14 -6.60555e-14 -6.62588e-15 7.72297e-15 -6.16014e-14 1.46034e-14 -8.14316e-14 -8.30284e-14 -2.2648e-14 -1.52336e-13 -1.5863e-14 -9.18825e-14 -7.45179e-14 4.53494e-14 9.95692e-14 8.25066e-14 -8.9024e-14 -1.97115e-14 -4.24919e-14 2.41757e-14 -3.37884e-14 -7.91723e-14 -1.06825e-13 -5.18558e-14 1.53449e-14 -6.35878e-14 -8.75203e-14 -1.79263e-13 -2.4032e-14 -3.24124e-14 -6.07656e-14 1.64758e-13 9.09594e-14 1.90118e-13 3.7026e-13 5.94119e-13 2.875e-12 1.93958e-11 1.10717e-10 6.03057e-10 3.11705e-09 1.52798e-08 7.08805e-08 3.10339e-07 1.2788e-06 4.94325e-06 1.78578e-05 6.00263e-05 0.000186771 0.000534697 0.00139879 0.00331977 0.00710192 0.0136453 0.0235826 0.0369582 0.0532458 0.0716739 0.091542 0.112346 0.133769 0.15562 0.177758 0.200096 0.222585 0.245192 0.267897 0.290687 0.313553 0.336493 0.359507 0.382597 0.405769 0.429023 0.452241 0.475192 0.498144 0.520817 0.543492 0.565946 0.588358 0.610612 0.63272 0.654693 0.676422 0.698123 0.719609 0.740968 0.7623 0.783185 0.804057 0.824344 0.843904 0.862878 0.879926 0.895256 0.908246 0.917691 0.924698 0.92899 0.930861 0.931825 0.932012 0.931956 0.931817 0.931607 0.931337 0.931015 0.930655 0.930282 0.92993 0.929621 0.929353 0.929123 0.928928 0.928765 0.928628 0.928521 0.928436 0.928348 0.928269 0.928205 0.928153 0.92811 0.928071 0.928036 0.928004 0.927974 0.927948 0.927924 0.927902 0.927882 0.927865 0.927848 0.927831 0.927815 0.9278 0.927786 0.927772 0.927759 0.927746 0.927733 0.927722 0.927712 0.927704 0.927695 0.92768 0.927657 0.927616 0.927531 0.927351 0.926976 0.926202 0.924631 0.921492 0.915328 0.903512 0.88166 0.843351 0.781003 0.688894 0.567817 0.429746 0.293539 0.178029 0.0944494 0.0440123 0.0185616 0.0073798 0.00285179 0.00108837 0.000413062 0.000156309 5.90307e-05 2.2253e-05 8.37305e-06 3.14399e-06 1.1778e-06 4.40086e-07 1.63963e-07 6.08921e-08 2.25341e-08 8.30691e-09 3.0495e-09 1.1144e-09 4.0482e-10 1.45797e-10 5.20768e-11 1.86109e-11 6.19224e-12 2.23125e-12 6.87185e-13 2.35182e-13 1.50703e-15 2.67432e-13 1.79113e-13 -2.48283e-13 0
				</DataArray>
				<DataArray Name="VitesseY" type="Float32" format="ascii">