<?xml version="1.0"?>
<VTKFile type="PolyData">
	<PolyData>
		<Piece NumberOfPoints="1206" NumberOfPolys="1000">
			<Points>
				<DataArray type="Float32" NumberOfComponents="3" format="ascii">
 0 0 0 0.005 0 0 0.01 0 0 0.015 0 0 0.02 0 0 0.025 0 0 0.03 0 0 0.035 0 0 0.04 0 0 0.045 0 0 0.05 0 0 0.055 0 0 0.06 0 0 0.065 0 0 0.07 0 0 0.075 0 0 0.08 0 0 0.085 0 0 0.09 0 0 0.095 0 0 0.1 0 0 0.105 0 0 0.11 0 0 0.115 0 0 0.12 0 0 0.125 0 0 0.13 0 0 0.135 0 0 0.14 0 0 0.145 0 0 0.15 0 0 0.155 0 0 0.16 0 0 0.165 0 0 0.17 0 0 0.175 0 0 0.18 0 0 0.185 0 0 0.19 0 0 0.195 0 0 0.2 0 0 0.205 0 0 0.21 0 0 0.215 0 0 0.22 0 0 0.225 0 0 0.23 0 0 0.235 0 0 0.24 0 0 0.245 0 0 0.25 0 0 0.255 0 0 0.26 0 0 0.265 0 0 0.27 0 0 0.275 0 0 0.28 0 0 0.285 0 0 0.29 0 0 0.295 0 0 0.3 0 0 0.305 0 0 0.31 0 0 0.315 0 0 0.32 0 0 0.325 0 0 0.33 0 0 0.335 0 0 0.34 0 0 0.345 0 0 0.35 0 0 0.355 0 0 0.36 0 0 0.365 0 0 0.37 0 0 0.375 0 0 0.38 0 0 0.385 0 0 0.39 0 0 0.395 0 0 0.4 0 0 0.405 0 0 0.41 0 0 0.415 0 0 0.42 0 0 0.425 0 0 0.43 0 0 0.435 0 0 0.44 0 0 0.445 0 0 0.45 0 0 0.455 0 0 0.46 0 0 0.465 0 0 0.47 0 0 0.475 0 0 0.48 0 0 0.485 0 0 0.49 0 0 0.495 0 0 0.5 0 0 0.505 0 0 0.51 0 0 0.515 0 0 0.52 0 0 0.525 0 0 0.53 0 0 0.535 0 0 0.54 0 0 0.545 0 0 0.55 0 0 0.555 0 0 0.56 0 0 0.565 0 0 0.57 0 0 0.575 0 0 0.58 0 0 0.585 0 0 0.59 0 0 0.595 0 0 0.6 0 0 0.605 0 0 0.61 0 0 0.615 0 0 0.62 0 0 0.625 0 0 0.63 0 0 0.635 0 0 0.64 0 0 0.645 0 0 0.65 0 0 0.655 0 0 0.66 0 0 0.665 0 0 0.67 0 0 0.675 0 0 0.68 0 0 0.685 0 0 0.69 0 0 0.695 0 0 0.7 0 0 0.705 0 0 0.71 0 0 0.715 0 0 0.72 0 0 0.725 0 0 0.73 0 0 0.735 0 0 0.74 0 0 0.745 0 0 0.75 0 0 0.755 0 0 0.76 0 0 0.765 0 0 0.77 0 0 0.775 0 0 0.78 0 0 0.785 0 0 0.79 0 0 0.795 0 0 0.8 0 0 0.805 0 0 0.81 0 0 0.815 0 0 0.82 0 0 0.825 0 0 0.83 0 0 0.835 0 0 0.84 0 0 0.845 0 0 0.85 0 0 0.855 0 0 0.86 0 0 0.865 0 0 0.87 0 0 0.875 0 0 0.88 0 0 0.885 0 0 0.89 0 0 0.895 0 0 0.9 0 0 0.905 0 0 0.91 0 0 0.915 0 0 0.92 0 0 0.925 0 0 0.93 0 0 0.935 0 0 0.94 0 0 0.945 0 0 0.95 0 0 0.955 0 0 0.96 0 0 0.965 0 0 0.97 0 0 0.975 0 0 0.98 0 0 0.985 0 0 0.99 0 0 0.995 0 0 1 0 0 0 0.02 0 0.005 0.02 0 0.01 0.02 0 0.015 0.02 0 0.02 0.02 0 0.025 0.02 0 0.03 0.02 0 0.035 0.02 0 0.04 0.02 0 0.045 0.02 0 0.05 0.02 0 0.055 0.02 0 0.06 0.02 0 0.065 0.02 0 0.07 0.02 0 0.075 0.02 0 0.08 0.02 0 0.085 0.02 0 0.09 0.02 0 0.095 0.02 0 0.1 0.02 0 0.105 0.02 0 0.11 0.02 0 0.115 0.02 0 0.12 0.02 0 0.125 0.02 0 0.13 0.02 0 0.135 0.02 0 0.14 0.02 0 0.145 0.02 0 0.15 0.02 0 0.155 0.02 0 0.16 0.02 0 0.165 0.02 0 0.17 0.02 0 0.175 0.02 0 0.18 0.02 0 0.185 0.02 0 0.19 0.02 0 0.195 0.02 0 0.2 0.02 0 0.205 0.02 0 0.21 0.02 0 0.215 0.02 0 0.22 0.02 0 0.225 0.02 0 0.23 0.02 0 0.235 0.02 0 0.24 0.02 0 0.245 0.02 0 0.25 0.02 0 0.255 0.02 0 0.26 0.02 0 0.265 0.02 0 0.27 0.02 0 0.275 0.02 0 0.28 0.02 0 0.285 0.02 0 0.29 0.02 0 0.295 0.02 0 0.3 0.02 0 0.305 0.02 0 0.31 0.02 0 0.315 0.02 0 0.32 0.02 0 0.325 0.02 0 0.33 0.02 0 0.335 0.02 0 0.34 0.02 0 0.345 0.02 0 0.35 0.02 0 0.355 0.02 0 0.36 0.02 0 0.365 0.02 0 0.37 0.02 0 0.375 0.02 0 0.38 0.02 0 0.385 0.02 0 0.39 0.02 0 0.395 0.02 0 0.4 0.02 0 0.405 0.02 0 0.41 0.02 0 0.415 0.02 0 0.42 0.02 0 0.425 0.02 0 0.43 0.02 0 0.435 0.02 0 0.44 0.02 0 0.445 0.02 0 0.45 0.02 0 0.455 0.02 0 0.46 0.02 0 0.465 0.02 0 0.47 0.02 0 0.475 0.02 0 0.48 0.02 0 0.485 0.02 0 0.49 0.02 0 0.495 0.02 0 0.5 0.02 0 0.505 0.02 0 0.51 0.02 0 0.515 0.02 0 0.52 0.02 0 0.525 0.02 0 0.53 0.02 0 0.535 0.02 0 0.54 0.02 0 0.545 0.02 0 0.55 0.02 0 0.555 0.02 0 0.56 0.02 0 0.565 0.02 0 0.57 0.02 0 0.575 0.02 0 0.58 0.02 0 0.585 0.02 0 0.59 0.02 0 0.595 0.02 0 0.6 0.02 0 0.605 0.02 0 0.61 0.02 0 0.615 0.02 0 0.62 0.02 0 0.625 0.02 0 0.63 0.02 0 0.635 0.02 0 0.64 0.02 0 0.645 0.02 0 0.65 0.02 0 0.655 0.02 0 0.66 0.02 0 0.665 0.02 0 0.67 0.02 0 0.675 0.02 0 0.68 0.02 0 0.685 0.02 0 0.69 0.02 0 0.695 0.02 0 0.7 0.02 0 0.705 0.02 0 0.71 0.02 0 0.715 0.02 0 0.72 0.02 0 0.725 0.02 0 0.73 0.02 0 0.735 0.02 0 0.74 0.02 0 0.745 0.02 0 0.75 0.02 0 0.755 0.02 0 0.76 0.02 0 0.765 0.02 0 0.77 0.02 0 0.775 0.02 0 0.78 0.02 0 0.785 0.02 0 0.79 0.02 0 0.795 0.02 0 0.8 0.02 0 0.805 0.02 0 0.81 0.02 0 0.815 0.02 0 0.82 0.02 0 0.825 0.02 0 0.83 0.02 0 0.835 0.02 0 0.84 0.02 0 0.845 0.02 0 0.85 0.02 0 0.855 0.02 0 0.86 0.02 0 0.865 0.02 0 0.87 0.02 0 0.875 0.02 0 0.88 0.02 0 0.885 0.02 0 0.89 0.02 0 0.895 0.02 0 0.9 0.02 0 0.905 0.02 0 0.91 0.02 0 0.915 0.02 0 0.92 0.02 0 0.925 0.02 0 0.93 0.02 0 0.935 0.02 0 0.94 0.02 0 0.945 0.02 0 0.95 0.02 0 0.955 0.02 0 0.96 0.02 0 0.965 0.02 0 0.97 0.02 0 0.975 0.02 0 0.98 0.02 0 0.985 0.02 0 0.99 0.02 0 0.995 0.02 0 1 0.02 0 0 0.04 0 0.005 0.04 0 0.01 0.04 0 0.015 0.04 0 0.02 0.04 0 0.025 0.04 0 0.03 0.04 0 0.035 0.04 0 0.04 0.04 0 0.045 0.04 0 0.05 0.04 0 0.055 0.04 0 0.06 0.04 0 0.065 0.04 0 0.07 0.04 0 0.075 0.04 0 0.08 0.04 0 0.085 0.04 0 0.09 0.04 0 0.095 0.04 0 0.1 0.04 0 0.105 0.04 0 0.11 0.04 0 0.115 0.04 0 0.12 0.04 0 0.125 0.04 0 0.13 0.04 0 0.135 0.04 0 0.14 0.04 0 0.145 0.04 0 0.15 0.04 0 0.155 0.04 0 0.16 0.04 0 0.165 0.04 0 0.17 0.04 0 0.175 0.04 0 0.18 0.04 0 0.185 0.04 0 0.19 0.04 0 0.195 0.04 0 0.2 0.04 0 0.205 0.04 0 0.21 0.04 0 0.215 0.04 0 0.22 0.04 0 0.225 0.04 0 0.23 0.04 0 0.235 0.04 0 0.24 0.04 0 0.245 0.04 0 0.25 0.04 0 0.255 0.04 0 0.26 0.04 0 0.265 0.04 0 0.27 0.04 0 0.275 0.04 0 0.28 0.04 0 0.285 0.04 0 0.29 0.04 0 0.295 0.04 0 0.3 0.04 0 0.305 0.04 0 0.31 0.04 0 0.315 0.04 0 0.32 0.04 0 0.325 0.04 0 0.33 0.04 0 0.335 0.04 0 0.34 0.04 0 0.345 0.04 0 0.35 0.04 0 0.355 0.04 0 0.36 0.04 0 0.365 0.04 0 0.37 0.04 0 0.375 0.04 0 0.38 0.04 0 0.385 0.04 0 0.39 0.04 0 0.395 0.04 0 0.4 0.04 0 0.405 0.04 0 0.41 0.04 0 0.415 0.04 0 0.42 0.04 0 0.425 0.04 0 0.43 0.04 0 0.435 0.04 0 0.44 0.04 0 0.445 0.04 0 0.45 0.04 0 0.455 0.04 0 0.46 0.04 0 0.465 0.04 0 0.47 0.04 0 0.475 0.04 0 0.48 0.04 0 0.485 0.04 0 0.49 0.04 0 0.495 0.04 0 0.5 0.04 0 0.505 0.04 0 0.51 0.04 0 0.515 0.04 0 0.52 0.04 0 0.525 0.04 0 0.53 0.04 0 0.535 0.04 0 0.54 0.04 0 0.545 0.04 0 0.55 0.04 0 0.555 0.04 0 0.56 0.04 0 0.565 0.04 0 0.57 0.04 0 0.575 0.04 0 0.58 0.04 0 0.585 0.04 0 0.59 0.04 0 0.595 0.04 0 0.6 0.04 0 0.605 0.04 0 0.61 0.04 0 0.615 0.04 0 0.62 0.04 0 0.625 0.04 0 0.63 0.04 0 0.635 0.04 0 0.64 0.04 0 0.645 0.04 0 0.65 0.04 0 0.655 0.04 0 0.66 0.04 0 0.665 0.04 0 0.67 0.04 0 0.675 0.04 0 0.68 0.04 0 0.685 0.04 0 0.69 0.04 0 0.695 0.04 0 0.7 0.04 0 0.705 0.04 0 0.71 0.04 0 0.715 0.04 0 0.72 0.04 0 0.725 0.04 0 0.73 0.04 0 0.735 0.04 0 0.74 0.04 0 0.745 0.04 0 0.75 0.04 0 0.755 0.04 0 0.76 0.04 0 0.765 0.04 0 0.77 0.04 0 0.775 0.04 0 0.78 0.04 0 0.785 0.04 0 0.79 0.04 0 0.795 0.04 0 0.8 0.04 0 0.805 0.04 0 0.81 0.04 0 0.815 0.04 0 0.82 0.04 0 0.825 0.04 0 0.83 0.04 0 0.835 0.04 0 0.84 0.04 0 0.845 0.04 0 0.85 0.04 0 0.855 0.04 0 0.86 0.04 0 0.865 0.04 0 0.87 0.04 0 0.875 0.04 0 0.88 0.04 0 0.885 0.04 0 0.89 0.04 0 0.895 0.04 0 0.9 0.04 0 0.905 0.04 0 0.91 0.04 0 0.915 0.04 0 0.92 0.04 0 0.925 0.04 0 0.93 0.04 0 0.935 0.04 0 0.94 0.04 0 0.945 0.04 0 0.95 0.04 0 0.955 0.04 0 0.96 0.04 0 0.965 0.04 0 0.97 0.04 0 0.975 0.04 0 0.98 0.04 0 0.985 0.04 0 0.99 0.04 0 0.995 0.04 0 1 0.04 0 0 0.06 0 0.005 0.06 0 0.01 0.06 0 0.015 0.06 0 0.02 0.06 0 0.025 0.06 0 0.03 0.06 0 0.035 0.06 0 0.04 0.06 0 0.045 0.06 0 0.05 0.06 0 0.055 0.06 0 0.06 0.06 0 0.065 0.06 0 0.07 0.06 0 0.075 0.06 0 0.08 0.06 0 0.085 0.06 0 0.09 0.06 0 0.095 0.06 0 0.1 0.06 0 0.105 0.06 0 0.11 0.06 0 0.115 0.06 0 0.12 0.06 0 0.125 0.06 0 0.13 0.06 0 0.135 0.06 0 0.14 0.06 0 0.145 0.06 0 0.15 0.06 0 0.155 0.06 0 0.16 0.06 0 0.165 0.06 0 0.17 0.06 0 0.175 0.06 0 0.18 0.06 0 0.185 0.06 0 0.19 0.06 0 0.195 0.06 0 0.2 0.06 0 0.205 0.06 0 0.21 0.06 0 0.215 0.06 0 0.22 0.06 0 0.225 0.06 0 0.23 0.06 0 0.235 0.06 0 0.24 0.06 0 0.245 0.06 0 0.25 0.06 0 0.255 0.06 0 0.26 0.06 0 0.265 0.06 0 0.27 0.06 0 0.275 0.06 0 0.28 0.06 0 0.285 0.06 0 0.29 0.06 0 0.295 0.06 0 0.3 0.06 0 0.305 0.06 0 0.31 0.06 0 0.315 0.06 0 0.32 0.06 0 0.325 0.06 0 0.33 0.06 0 0.335 0.06 0 0.34 0.06 0 0.345 0.06 0 0.35 0.06 0 0.355 0.06 0 0.36 0.06 0 0.365 0.06 0 0.37 0.06 0 0.375 0.06 0 0.38 0.06 0 0.385 0.06 0 0.39 0.06 0 0.395 0.06 0 0.4 0.06 0 0.405 0.06 0 0.41 0.06 0 0.415 0.06 0 0.42 0.06 0 0.425 0.06 0 0.43 0.06 0 0.435 0.06 0 0.44 0.06 0 0.445 0.06 0 0.45 0.06 0 0.455 0.06 0 0.46 0.06 0 0.465 0.06 0 0.47 0.06 0 0.475 0.06 0 0.48 0.06 0 0.485 0.06 0 0.49 0.06 0 0.495 0.06 0 0.5 0.06 0 0.505 0.06 0 0.51 0.06 0 0.515 0.06 0 0.52 0.06 0 0.525 0.06 0 0.53 0.06 0 0.535 0.06 0 0.54 0.06 0 0.545 0.06 0 0.55 0.06 0 0.555 0.06 0 0.56 0.06 0 0.565 0.06 0 0.57 0.06 0 0.575 0.06 0 0.58 0.06 0 0.585 0.06 0 0.59 0.06 0 0.595 0.06 0 0.6 0.06 0 0.605 0.06 0 0.61 0.06 0 0.615 0.06 0 0.62 0.06 0 0.625 0.06 0 0.63 0.06 0 0.635 0.06 0 0.64 0.06 0 0.645 0.06 0 0.65 0.06 0 0.655 0.06 0 0.66 0.06 0 0.665 0.06 0 0.67 0.06 0 0.675 0.06 0 0.68 0.06 0 0.685 0.06 0 0.69 0.06 0 0.695 0.06 0 0.7 0.06 0 0.705 0.06 0 0.71 0.06 0 0.715 0.06 0 0.72 0.06 0 0.725 0.06 0 0.73 0.06 0 0.735 0.06 0 0.74 0.06 0 0.745 0.06 0 0.75 0.06 0 0.755 0.06 0 0.76 0.06 0 0.765 0.06 0 0.77 0.06 0 0.775 0.06 0 0.78 0.06 0 0.785 0.06 0 0.79 0.06 0 0.795 0.06 0 0.8 0.06 0 0.805 0.06 0 0.81 0.06 0 0.815 0.06 0 0.82 0.06 0 0.825 0.06 0 0.83 0.06 0 0.835 0.06 0 0.84 0.06 0 0.845 0.06 0 0.85 0.06 0 0.855 0.06 0 0.86 0.06 0 0.865 0.06 0 0.87 0.06 0 0.875 0.06 0 0.88 0.06 0 0.885 0.06 0 0.89 0.06 0 0.895 0.06 0 0.9 0.06 0 0.905 0.06 0 0.91 0.06 0 0.915 0.06 0 0.92 0.06 0 0.925 0.06 0 0.93 0.06 0 0.935 0.06 0 0.94 0.06 0 0.945 0.06 0 0.95 0.06 0 0.955 0.06 0 0.96 0.06 0 0.965 0.06 0 0.97 0.06 0 0.975 0.06 0 0.98 0.06 0 0.985 0.06 0 0.99 0.06 0 0.995 0.06 0 1 0.06 0 0 0.08 0 0.005 0.08 0 0.01 0.08 0 0.015 0.08 0 0.02 0.08 0 0.025 0.08 0 0.03 0.08 0 0.035 0.08 0 0.04 0.08 0 0.045 0.08 0 0.05 0.08 0 0.055 0.08 0 0.06 0.08 0 0.065 0.08 0 0.07 0.08 0 0.075 0.08 0 0.08 0.08 0 0.085 0.08 0 0.09 0.08 0 0.095 0.08 0 0.1 0.08 0 0.105 0.08 0 0.11 0.08 0 0.115 0.08 0 0.12 0.08 0 0.125 0.08 0 0.13 0.08 0 0.135 0.08 0 0.14 0.08 0 0.145 0.08 0 0.15 0.08 0 0.155 0.08 0 0.16 0.08 0 0.165 0.08 0
[...]
			<PointData Scalars="VitesseX">
				<DataArray Name="VitesseX" type="Float32" format="ascii">
 0 -3.90981e-14 -5.97531e-15 -3.64899e-14 4.51782e-14 5.22301e-15 5.4757e-15 -4.29508e-14 -2.88387e-14 -5.47073e-15 2.77391e-14 3.89832e-14 -6.99941e-14 1.23803e-13 -1.29282e-13 -2.98041e-14 -6.75536e-14 -5.54944e-14 -4.34241e-14 -6.38518e-14 -3.83745e-14 -5.0094e-14 -6.20466e-14 -9.97841e-14 2.58748e-14 -4.36263e-14 -1.92038e-13 -5.91772e-14 -1.12762e-13 -1.30134e-13 1.26496e-14 -6.36341e-14 -2.07677e-13 -4.2488e-14 -1.9816e-13 -6.50803e-14 -2.81456e-13 -8.80329e-14 -1.20367e-13 2.36627e-13 1.29224e-14 1.79862e-13 -5.60674e-14 1.65983e-13 -5.8698e-14 -2.16663e-13 -2.50618e-13 -7.26082e-14 -4.49244e-14 -7.41871e-15 -6.08992e-14 -2.77664e-13 -2.09275e-13 -2.16244e-13 3.56444e-13 -2.45006e-13 -1.46724e-13 -1.15235e-13 -1.56151e-13 -1.39398e-13 -9.131e-14 -9.10971e-14 2.15688e-13 -5.87663e-14 3.93426e-12 3.42981e-11 2.97492e-10 2.38584e-09 1.76857e-08 1.20637e-07 7.53203e-07 4.27933e-06 2.19704e-05 0.000101073 0.000412362 0.00147337 0.00454405 0.0119264 0.0264136 0.0495907 0.0806323 0.117257 0.157383 0.199712 0.243471 0.288113 0.333415 0.379318 0.425871 0.472594 0.517048 0.561859 0.604558 0.647331 0.688463 0.728331 0.768095 0.804449 0.840345 0.871069 0.894369 0.914719 0.925295 0.930033 0.933756 0.934147 0.933798 0.933245 0.932686 0.932176 0.931547 0.930864 0.930261 0.929799 0.929483 0.929271 0.929113 0.92898 0.928876 0.9288 0.928751 0.928801 0.928828 0.928601 0.927557 0.925387 0.921395 0.913196 0.896737 0.865948 0.81297 0.730446 0.616138 0.478768 0.336419 0.210164 0.114505 0.0541395 0.0227235 0.00882574 0.00328638 0.00119606 0.000428868 0.0001519 5.31683e-05 1.83855e-05 6.27747e-06 2.11507e-06 7.02843e-07 2.30234e-07 7.43156e-08 2.36281e-08 7.39733e-09 2.27946e-09 6.91267e-10 2.06574e-10 6.0464e-11 1.71847e-11 4.18842e-12 6.74855e-13 5.12288e-13 7.46982e-13 -2.65557e-13 -5.42459e-13 -3.47982e-13 4.55557e-13 -2.41279e-13 -2.69672e-13 -4.80629e-13 -1.44134e-14 -5.96362e-13 -2.30884e-13 -1.92155e-13 -1.60084e-14 -1.62223e-13 -7.36513e-14 -6.11911e-13 9.0313e-13 -1.35292e-13 5.82098e-15 -2.2313e-13 1.84505e-13 -5.05922e-13 7.53195e-14 -4.38099e-13 -1.8431e-13 -2.22992e-13 -8.6226e-14 -4.23813e-13 7.46738e-13 -7.64618e-13 2.51402e-13 9.67493e-13 -5.27583e-13 -4.03844e-13 -2.73963e-13 1.03006e-12 7.08481e-13 -7.95601e-13 -8.39991e-13 0 0 1.53024e-14 -7.56554e-15 3.5301e-14 -3.0236e-14 -2.27023e-14 -3.37709e-14 -1.02592e-14 -1.18831e-14 1.6375e-14 -3.55071e-15 -1.07037e-14 1.00122e-13 -1.3483e-13 3.95321e-14 -2.86208e-14 -3.33807e-14 -5.74065e-14 -8.42594e-14 -3.2071e-14 -3.90861e-14 -5.61646e-14 -4.56623e-14 -6.25529e-14 -1.31768e-13 -4.75709e-14 -7.25567e-15 -1.65078e-13 -1.21704e-13 4.55133e-14 -8.42607e-14 -1.62083e-13 -6.79323e-14 -2.1258e-13 -1.72129e-13 -1.78423e-13 -1.88827e-14 -1.04771e-13 -2.3641e-16 -1.29635e-13 1.17059e-13 2.47782e-14 9.02017e-14 -1.29583e-13 -1.52723e-14 8.13121e-14 -1.82514e-13 -2.08707e-13 -2.96458e-13 -2.46764e-13 -1.06162e-13 1.90854e-15 1.65042e-15 -1.95321e-14 -3.98726e-13 -3.35089e-14 1.2117e-13 -1.93262e-13 4.50964e-14 -1.19098e-13 -1.20217e-13 -6.52484e-14 -1.0617e-13 6.81457e-13 3.49739e-12 3.46958e-11 2.97493e-10 2.38525e-09 1.76863e-08 1.20636e-07 7.53203e-07 4.27933e-06 2.19704e-05 0.000101073 0.000412362 0.00147337 0.00454405 0.0119264 0.0264136 0.0495907 0.0806323 0.117257 0.157383 0.199712 0.243471 0.288113 0.333415 0.379318 0.425871 0.472594 0.517048 0.561859 0.604558 0.647331 0.688463 0.728331 0.768095 0.804449 0.840345 0.871069 0.894369 0.914719 0.925295 0.930033 0.933756 0.934147 0.933798 0.933245 0.932686 0.932176 0.931547 0.930864 0.930261 0.929799 0.929483 0.929271 0.929113 0.92898 0.928876 0.9288 0.928751 0.928801 0.928828 0.928601 0.927557 0.925387 0.921395 0.913196 0.896737 0.865948 0.81297 0.730446 0.616138 0.478768 0.336419 0.210164 0.114505 0.0541395 0.0227235 0.00882574 0.00328638 0.00119606 0.000428868 0.0001519 5.31683e-05 1.83855e-05 6.27747e-06 2.11507e-06 7.02843e-07 2.30235e-07 7.43152e-08 2.36277e-08 7.39734e-09 2.28008e-09 6.91503e-10 2.06004e-10 6.02638e-11 1.71137e-11 4.96974e-12 1.39505e-12 -2.17812e-14 -5.75892e-13 5.13847e-13 2.84349e-13 -3.06159e-13 -4.10084e-13 -2.42667e-13 -4.78592e-13 5.7838e-14 -7.06176e-13 6.70842e-14 -5.20227e-13 -2.65422e-13 -1.16068e-13 -1.15145e-13 -4.80047e-14 2.14088e-13 -2.97873e-13 1.46222e-13 2.10574e-13 9.08625e-14 -3.56712e-13 4.04138e-13 -1.68815e-13 -4.07897e-13 -1.72183e-13 -2.65842e-14 -4.51312e-13 -1.22679e-14 -5.3115e-13 5.779e-13 -1.93427e-13 -2.66169e-13 2.79214e-13 3.2935e-13 3.75477e-13 -4.69031e-13 -3.60301e-13 8.38694e-13 4.56871e-13 0 0 9.08802e-15 1.1343e-14 -2.08884e-14 -8.35098e-15 -3.53901e-14 -1.47733e-14 -3.16887e-14 8.27248e-15 -2.72785e-14 -1.16892e-14 1.96483e-14 -1.45627e-16 3.00444e-14 -2.84502e-14 9.19785e-15 -7.84208e-14 1.7671e-14 3.76364e-14 -4.4193e-14 -1.09624e-13 -4.62891e-14 -3.30396e-14 -9.70045e-14 -4.59517e-14 -5.69314e-14 -1.7147e-13 -1.70943e-13 -7.04074e-15 -6.75056e-14 3.24426e-14 -1.35594e-13 -1.31075e-13 -1.59559e-13 -1.9873e-13 -9.7378e-14 -8.75318e-14 7.44932e-15 1.8278e-14 -5.92839e-14 -4.60911e-14 -2.8995e-14 -1.47486e-13 -1.0399e-13 6.15101e-14 -2.16816e-13 -5.27487e-14 -1.84066e-13 -2.12965e-14 -8.89688e-14 -6.41323e-14 -1.10625e-13 -1.09641e-13 -3.40734e-13 5.43318e-14 -1.3435e-13 -2.14218e-14 4.33436e-14 -1.05242e-13 2.29995e-14 -9.8192e-14 -1.4735e-13 1.87925e-13 4.93562e-13 3.92353e-12 3.42837e-11 2.97429e-10 2.38574e-09 1.76863e-08 1.20636e-07 7.53203e-07 4.27933e-06 2.19704e-05 0.000101073 0.000412362 0.00147337 0.00454405 0.0119264 0.0264136 0.0495907 0.0806323 0.117257 0.157383 0.199712 0.243471 0.288113 0.333415 0.379318 0.425871 0.472594 0.517048 0.561859 0.604558 0.647331 0.688463 0.728331 0.768095 0.804449 0.840345 0.871069 0.894369 0.914719 0.925295 0.930033 0.933756 0.934147 0.933798 0.933245 0.932686 0.932176 0.931547 0.930864 0.930261 0.929799 0.929483 0.929271 0.929113 0.92898 0.928876 0.9288 0.928751 0.928801 0.928828 0.928601 0.927557 0.925387 0.921395 0.913196 0.896737 0.865948 0.81297 0.730446 0.616138 0.478768 0.336419 0.210164 0.114505 0.0541395 0.0227235 0.00882574 0.00328638 0.00119606 0.000428868 0.0001519 5.31683e-05 1.83855e-05 6.27747e-06 2.11507e-06 7.02843e-07 2.30234e-07 7.43154e-08 2.36278e-08 7.39769e-09 2.27984e-09 6.91544e-10 2.06012e-10 6.05309e-11 1.75184e-11 4.76928e-12 1.38634e-12 3.03696e-13 4.17203e-17 6.17847e-14 -2.33287e-13 -1.49527e-13 6.35397e-14 -4.57305e-13 -5.4515e-13 -4.26739e-13 -1.72822e-13 -2.28385e-13 -2.59853e-13 -2.87553e-13 -4.85719e-13 3.7485e-14 -3.16577e-13 2.74192e-13 1.71438e-13 -7.36374e-14 5.1232e-14 -9.46781e-14 1.72716e-13 -7.39967e-14 -2.30851e-13 -1.71531e-13 1.15434e-13 -2.38507e-13 1.38828e-13 -2.42085e-13 -2.31342e-13 -9.56629e-13 3.71673e-14 -1.39971e-13 6.42966e-13 4.99387e-13 -2.56583e-13 2.31783e-13 3.06458e-13 -5.23166e-13 -2.25161e-13 0 0 -2.68236e-14 -3.16557e-14 -5.39374e-14 -2.03662e-14 -4.36848e-14 -7.78816e-15 -1.60904e-14 -5.72578e-15 3.08607e-14 5.26073e-17 -1.55721e-14 9.04292e-15 2.77389e-14 -5.68125e-14 1.82534e-14 2.7735e-14 -1.268e-14 2.95227e-14 -7.86554e-15 -2.30529e-14 -6.60851e-14 7.08314e-15 -1.02964e-13 -4.82808e-14 -1.27388e-13 -1.97175e-13 -6.48868e-14 -1.01976e-13 -4.96771e-14 6.63611e-15 -5.69066e-14 -1.78534e-13 -7.11188e-14 -6.17676e-14 -2.00844e-13 -3.63884e-14 -5.86943e-14 -1.52919e-13 1.09721e-13 -4.49144e-14 -2.81666e-14 -2.46783e-14 -2.19065e-14 -2.97429e-14 -5.17278e-14 -1.52836e-14 -6.82059e-14 -1.07002e-13 -5.82264e-14 -1.70459e-13 -1.33329e-13 -3.35142e-13 -4.80776e-14 7.64231e-14 6.50009e-14 -1.90424e-13 -1.04744e-13 1.66502e-14 -1.1717e-13 -7.15029e-14 -8.07371e-14 3.85661e-14 5.04837e-13 3.7667e-12 3.43825e-11 2.97604e-10 2.38587e-09 1.76864e-08 1.20637e-07 7.53203e-07 4.27933e-06 2.19704e-05 0.000101073 0.000412362 0.00147337 0.00454405 0.0119264 0.0264136 0.0495907 0.0806323 0.117257 0.157383 0.199712 0.243471 0.288113 0.333415 0.379318 0.425871 0.472594 0.517048 0.561859 0.604558 0.647331 0.688463 0.728331 0.768095 0.804449 0.840345 0.871069 0.894369 0.914719 0.925295 0.930033 0.933756 0.934147 0.933798 0.933245 0.932686 0.932176 0.931547 0.930864 0.930261 0.929799 0.929483 0.929271 0.929113 0.92898 0.928876 0.9288 0.928751 0.928801 0.928828 0.928601 0.927557 0.925387 0.921395 0.913196 0.896737 0.865948 0.81297 0.730446 0.616138 0.478768 0.336419 0.210164 0.114505 0.0541395 0.0227235 0.00882574 0.00328638 0.00119606 0.000428868 0.0001519 5.31683e-05 1.83855e-05 6.27747e-06 2.11507e-06 7.02843e-07 2.30235e-07 7.43155e-08 2.36281e-08 7.39732e-09 2.27981e-09 6.91659e-10 2.06806e-10 6.04719e-11 1.77649e-11 4.68206e-12 5.35629e-13 7.98056e-13 4.67578e-13 -4.45906e-13 2.22281e-14 -4.91364e-13 2.34873e-13 -1.93e-13 -2.55702e-13 -7.0857e-13 -4.483e-13 -4.31599e-13 -4.25574e-14 -3.70892e-14 -1.05787e-14 -2.86827e-13 9.95416e-14 -2.75763e-13 5.00625e-13 -1.90982e-13 5.23062e-14 -2.78631e-13 -2.3842e-13 -4.25936e-13 1.19659e-14 1.1196e-13 -3.80078e-13 -2.63632e-13 -6.2636e-14 -8.02066e-14 -2.41713e-13 -8.55109e-13 -5.89799e-13 2.18973e-13 1.19023e-13 4.84655e-13 2.57177e-13 1.03364e-12 -6.98208e-13 -3.362e-13 -5.59258e-13 0 0 -8.27993e-15 -3.77424e-14 -1.16677e-14 -8.19778e-14 -5.0744e-14 -3.90492e-14 8.23871e-15 -1.92012e-14 5.07827e-14 -1.27604e-14 -5.06496e-14 1.21653e-13 -1.11444e-13 5.98297e-14 3.5455e-14 1.25246e-13 -2.73968e-14 -4.53358e-14 -3.57363e-15 -2.77849e-16 -3.10298e-14 -8.46762e-14 -1.07437e-13 -1.86763e-13 -1.5314e-13 1.36179e-14 -4.41963e-14 -1.82874e-13 3.68329e-14 -1.54834e-13 -9.48765e-14 1.41271e-14 -6.93532e-14 3.66372e-14 -1.74442e-13 -3.6867e-14 -5.56484e-14 -1.30626e-13 -8.78272e-14 1.06171e-14 -1.43707e-13 1.19067e-13 -1.61708e-14 -1.09435e-13 2.62643e-13 -2.98064e-14 -1.42666e-13 -3.3206e-13 -2.07764e-13 -1.93881e-13 5.90858e-14 -6.81552e-14 2.55548e-13 -4.27537e-13 1.57178e-13 -2.40054e-14 -2.11483e-13 6.47057e-14 -1.1744e-13 -1.30636e-13 5.98251e-14 -1.33202e-13 7.93052e-13 3.60038e-12 3.47767e-11 2.97465e-10 2.38548e-09 1.76866e-08 1.20637e-07 7.53203e-07 4.27933e-06 2.19704e-05 0.000101073 0.000412362 0.00147337 0.00454405 0.0119264 0.0264136 0.0495907 0.0806323 0.117257 0.157383 0.199712 0.243471 0.288113 0.333415 0.379318 0.425871 0.472594 0.517048 0.561859 0.604558 0.647331 0.688463 0.728331 0.768095 0.804449 0.840345 0.871069 0.894369 0.914719 0.925295 0.930033 0.933756 0.934147 0.933798 0.933245 0.932686 0.932176 0.931547 0.930864 0.930261 0.929799 0.929483 0.929271 0.929113 0.92898 0.928876 0.9288 0.928751 0.928801 0.928828 0.928601 0.927557 0.925387 0.921395 0.913196 0.896737 0.865948 0.81297 0.730446 0.616138 0.478768 0.336419 0.210164 0.114505 0.0541395 0.0227235 0.00882574 0.00328638 0.00119606 0.000428868 0.0001519 5.31683e-05 1.83855e-05 6.27747e-06 2.11507e-06 7.02843e-07 2.30235e-07 7.43152e-08 2.36278e-08 7.39742e-09 2.28014e-09 6.9191e-10 2.06593e-10 6.04555e-11 1.73826e-11 5.22574e-12 1.0745e-12 4.06677e-13 -1.47348e-14 -3.53684e-13 2.56269e-13 -2.48464e-13 -6.1143e-13 -2.50757e-13 -2.15363e-13 -4.03915e-13 -3.60326e-13 -1.07572e-13 -3.17689e-13 -3.72117e-14 2.10924e-13 -1.70251e-13 2.20628e-13 1.12218e-13 -4.46947e-13 3.37422e-14 -1.37191e-13 -9.39978e-14 -3.30702e-13 -4.90867e-14 -2.05014e-13 -2.5967e-13 -4.65495e-13 7.75529e-14 -6.91031e-13 1.34406e-13 -8.29074e-13 6.72811e-13 -3.18223e-13 -7.35585e-14 -1.817e-13 4.01458e-13 6.98694e-13 -2.53861e-13 -6.27455e-13 7.17459e-13 3.69621e-13 0 0 -1.44395e-14 1.96683e-14 -6.43291e-14 -3.4275e-14 -3.42712e-14 -1.90514e-14 -3.71513e-14 -1.54785e-14 -5.29338e-14 -1.41637e-14 2.95321e-14 -4.531e-14 1.75187e-13 -3.19626e-14 8.02365e-14 3.73878e-14 6.52268e-14 5.06507e-14 -7.95119e-14 -1.339e-13 3.97676e-14 -2.2032e-13 -1.77631e-13 -7.9456e-14 -1.1385e-13 -9.88796e-14 -2.95263e-14 -4.52315e-14 -1.83152e-13 -7.68834e-14 -8.65963e-14 5.13592e-14 6.70859e-14 -5.45523e-14 1.49814e-13 -4.19712e-13 1.42499e-13 -3.87508e-14 -1.77658e-14 -2.02314e-13 -1.58765e-13 -2.43953e-13 2.2864e-13 -6.45181e-14 -1.84176e-13 -2.01335e-14 -1.72246e-13 5.52822e-14 9.09768e-15 -2.36846e-14 -1.17901e-13 1.02116e-13 -2.51395e-13 2.54639e-13 -2.62335e-13 -9.90698e-14 1.44497e-13 -3.60717e-13 1.44257e-13 -1.65527e-13 2.58236e-14 4.60339e-13 1.41874e-13 4.45389e-12 3.42621e-11 2.97087e-10 2.38603e-09 1.7686e-08 1.20636e-07 7.53203e-07 4.27933e-06 2.19704e-05 0.000101073 0.000412362 0.00147337 0.00454405 0.0119264 0.0264136 0.0495907 0.0806323 0.117257 0.157383 0.199712 0.243471 0.288113 0.333415 0.379318 0.425871 0.472594 0.517048 0.561859 0.604558 0.647331 0.688463 0.728331 0.768095 0.804449 0.840345 0.871069 0.894369 0.914719 0.925295 0.930033 0.933756 0.934147 0.933798 0.933245 0.932686 0.932176 0.931547 0.930864 0.930261 0.929799 0.929483 0.929271 0.929113 0.92898 0.928876 0.9288 0.928751 0.928801 0.928828 0.928601 0.927557 0.925387 0.921395 0.913196 0.896737 0.865948 0.81297 0.730446 0.616138 0.478768 0.336419 0.210164 0.114505 0.0541395 0.0227235 0.00882574 0.00328638 0.00119606 0.000428868 0.0001519 5.31683e-05 1.83855e-05 6.27747e-06 2.11507e-06 7.02843e-07 2.30234e-07 7.43155e-08 2.36274e-08 7.39822e-09 2.27965e-09 6.91854e-10 2.06166e-10 6.09653e-11 1.72295e-11 4.87485e-12 1.73518e-12 3.80483e-13 9.34223e-13 -9.85238e-13 -1.10965e-12 4.51082e-13 -2.89801e-13 -7.86068e-13 -3.2211e-13 -8.40473e-13 1.22824e-12 -5.39248e-13 -2.60399e-13 -2.36662e-13 -3.12305e-13 3.76188e-13 -3.68622e-13 2.8426e-13 -5.33926e-14 -1.25562e-13 -6.91858e-13 -2.24944e-13 1.0588e-12 -7.08493e-13 -4.82713e-13 -7.08626e-13 2.20089e-13 3.55322e-14 -1.62735e-13 -4.54222e-13 1.71632e-13 -7.77835e-13 1.25574e-12 6.34826e-13 -4.01525e-13 -2.30164e-13 -6.5505e-13 -1.43309e-13 2.1835e-12 -1.412e-12 -3.46297e-13 0
				</DataArray>
				<DataArray Name="VitesseY" type="Float32" format="ascii">