<?xml version="1.0"?>
<VTKFile type="PolyData">
	<PolyData>
		<Piece NumberOfPoints="961" NumberOfPolys="900">
			<Points>
				<DataArray type="Float32" NumberOfComponents="3" format="ascii">
 0 0 0 0.04 0 0 0.08 0 0 0.12 0 0 0.16 0 0 0.2 0 0 0.24 0 0 0.28 0 0 0.32 0 0 0.36 0 0 0.4 0 0 0.44 0 0 0.48 0 0 0.52 0 0 0.56 0 0 0.6 0 0 0.64 0 0 0.68 0 0 0.72 0 0 0.76 0 0 0.8 0 0 0.84 0 0 0.88 0 0 0.92 0 0 0.96 0 0 1 0 0 1.04 0 0 1.08 0 0 1.12 0 0 1.16 0 0 1.2 0 0 0 0.04 0 0.04 0.04 0 0.08 0.04 0 0.12 0.04 0 0.16 0.04 0 0.2 0.04 0 0.24 0.04 0 0.28 0.04 0 0.32 0.04 0 0.36 0.04 0 0.4 0.04 0 0.44 0.04 0 0.48 0.04 0 0.52 0.04 0 0.56 0.04 0 0.6 0.04 0 0.64 0.04 0 0.68 0.04 0 0.72 0.04 0 0.76 0.04 0 0.8 0.04 0 0.84 0.04 0 0.88 0.04 0 0.92 0.04 0 0.96 0.04 0 1 0.04 0 1.04 0.04 0 1.08 0.04 0 1.12 0.04 0 1.16 0.04 0 1.2 0.04 0 0 0.08 0 0.04 0.08 0 0.08 0.08 0 0.12 0.08 0 0.16 0.08 0 0.2 0.08 0 0.24 0.08 0 0.28 0.08 0 0.32 0.08 0 0.36 0.08 0 0.4 0.08 0 0.44 0.08 0 0.48 0.08 0 0.52 0.08 0 0.56 0.08 0 0.6 0.08 0 0.64 0.08 0 0.68 0.08 0 0.72 0.08 0 0.76 0.08 0 0.8 0.08 0 0.84 0.08 0 0.88 0.08 0 0.92 0.08 0 0.96 0.08 0 1 0.08 0 1.04 0.08 0 1.08 0.08 0 1.12 0.08 0 1.16 0.08 0 1.2 0.08 0 0 0.12 0 0.04 0.12 0 0.08 0.12 0 0.12 0.12 0 0.16 0.12 0 0.2 0.12 0 0.24 0.12 0 0.28 0.12 0 0.32 0.12 0 0.36 0.12 0 0.4 0.12 0 0.44 0.12 0 0.48 0.12 0 0.52 0.12 0 0.56 0.12 0 0.6 0.12 0 0.64 0.12 0 0.68 0.12 0 0.72 0.12 0 0.76 0.12 0 0.8 0.12 0 0.84 0.12 0 0.88 0.12 0 0.92 0.12 0 0.96 0.12 0 1 0.12 0 1.04 0.12 0 1.08 0.12 0 1.12 0.12 0 1.16 0.12 0 1.2 0.12 0 0 0.16 0 0.04 0.16 0 0.08 0.16 0 0.12 0.16 0 0.16 0.16 0 0.2 0.16 0 0.24 0.16 0 0.28 0.16 0 0.32 0.16 0 0.36 0.16 0 0.4 0.16 0 0.44 0.16 0 0.48 0.16 0 0.52 0.16 0 0.56 0.16 0 0.6 0.16 0 0.64 0.16 0 0.68 0.16 0 0.72 0.16 0 0.76 0.16 0 0.8 0.16 0 0.84 0.16 0 0.88 0.16 0 0.92 0.16 0 0.96 0.16 0 1 0.16 0 1.04 0.16 0 1.08 0.16 0 1.12 0.16 0 1.16 0.16 0 1.2 0.16 0 0 0.2 0 0.04 0.2 0 0.08 0.2 0 0.12 0.2 0 0.16 0.2 0 0.2 0.2 0 0.24 0.2 0 0.28 0.2 0 0.32 0.2 0 0.36 0.2 0 0.4 0.2 0 0.44 0.2 0 0.48 0.2 0 0.52 0.2 0 0.56 0.2 0 0.6 0.2 0 0.64 0.2 0 0.68 0.2 0 0.72 0.2 0 0.76 0.2 0 0.8 0.2 0 0.84 0.2 0 0.88 0.2 0 0.92 0.2 0 0.96 0.2 0 1 0.2 0 1.04 0.2 0 1.08 0.2 0 1.12 0.2 0 1.16 0.2 0 1.2 0.2 0 0 0.24 0 0.04 0.24 0 0.08 0.24 0 0.12 0.24 0 0.16 0.24 0 0.2 0.24 0 0.24 0.24 0 0.28 0.24 0 0.32 0.24 0 0.36 0.24 0 0.4 0.24 0 0.44 0.24 0 0.48 0.24 0 0.52 0.24 0 0.56 0.24 0 0.6 0.24 0 0.64 0.24 0 0.68 0.24 0 0.72 0.24 0 0.76 0.24 0 0.8 0.24 0 0.84 0.24 0 0.88 0.24 0 0.92 0.24 0 0.96 0.24 0 1 0.24 0 1.04 0.24 0 1.08 0.24 0 1.12 0.24 0 1.16 0.24 0 1.2 0.24 0 0 0.28 0 0.04 0.28 0 0.08 0.28 0 0.12 0.28 0 0.16 0.28 0 0.2 0.28 0 0.24 0.28 0 0.28 0.28 0 0.32 0.28 0 0.36 0.28 0 0.4 0.28 0 0.44 0.28 0 0.48 0.28 0 0.52 0.28 0 0.56 0.28 0 0.6 0.28 0 0.64 0.28 0 0.68 0.28 0 0.72 0.28 0 0.76 0.28 0 0.8 0.28 0 0.84 0.28 0 0.88 0.28 0 0.92 0.28 0 0.96 0.28 0 1 0.28 0 1.04 0.28 0 1.08 0.28 0 1.12 0.28 0 1.16 0.28 0 1.2 0.28 0 0 0.32 0 0.04 0.32 0 0.08 0.32 0 0.12 0.32 0 0.16 0.32 0 0.2 0.32 0 0.24 0.32 0 0.28 0.32 0 0.32 0.32 0 0.36 0.32 0 0.4 0.32 0 0.44 0.32 0 0.48 0.32 0 0.52 0.32 0 0.56 0.32 0 0.6 0.32 0 0.64 0.32 0 0.68 0.32 0 0.72 0.32 0 0.76 0.32 0 0.8 0.32 0 0.84 0.32 0 0.88 0.32 0 0.92 0.32 0 0.96 0.32 0 1 0.32 0 1.04 0.32 0 1.08 0.32 0 1.12 0.32 0 1.16 0.32 0 1.2 0.32 0 0 0.36 0 0.04 0.36 0 0.08 0.36 0 0.12 0.36 0 0.16 0.36 0 0.2 0.36 0 0.24 0.36 0 0.28 0.36 0 0.32 0.36 0 0.36 0.36 0 0.4 0.36 0 0.44 0.36 0 0.48 0.36 0 0.52 0.36 0 0.56 0.36 0 0.6 0.36 0 0.64 0.36 0 0.68 0.36 0 0.72 0.36 0 0.76 0.36 0 0.8 0.36 0 0.84 0.36 0 0.88 0.36 0 0.92 0.36 0 0.96 0.36 0 1 0.36 0 1.04 0.36 0 1.08 0.36 0 1.12 0.36 0 1.16 0.36 0 1.2 0.36 0 0 0.4 0 0.04 0.4 0 0.08 0.4 0 0.12 0.4 0 0.16 0.4 0 0.2 0.4 0 0.24 0.4 0 0.28 0.4 0 0.32 0.4 0 0.36 0.4 0 0.4 0.4 0 0.44 0.4 0 0.48 0.4 0 0.52 0.4 0 0.56 0.4 0 0.6 0.4 0 0.64 0.4 0 0.68 0.4 0 0.72 0.4 0 0.76 0.4 0 0.8 0.4 0 0.84 0.4 0 0.88 0.4 0 0.92 0.4 0 0.96 0.4 0 1 0.4 0 1.04 0.4 0 1.08 0.4 0 1.12 0.4 0 1.16 0.4 0 1.2 0.4 0 0 0.44 0 0.04 0.44 0 0.08 0.44 0 0.12 0.44 0 0.16 0.44 0 0.2 0.44 0 0.24 0.44 0 0.28 0.44 0 0.32 0.44 0 0.36 0.44 0 0.4 0.44 0 0.44 0.44 0 0.48 0.44 0 0.52 0.44 0 0.56 0.44 0 0.6 0.44 0 0.64 0.44 0 0.68 0.44 0 0.72 0.44 0 0.76 0.44 0 0.8 0.44 0 0.84 0.44 0 0.88 0.44 0 0.92 0.44 0 0.96 0.44 0 1 0.44 0 1.04 0.44 0 1.08 0.44 0 1.12 0.44 0 1.16 0.44 0 1.2 0.44 0 0 0.48 0 0.04 0.48 0 0.08 0.48 0 0.12 0.48 0 0.16 0.48 0 0.2 0.48 0 0.24 0.48 0 0.28 0.48 0 0.32 0.48 0 0.36 0.48 0 0.4 0.48 0 0.44 0.48 0 0.48 0.48 0 0.52 0.48 0 0.56 0.48 0 0.6 0.48 0 0.64 0.48 0 0.68 0.48 0 0.72 0.48 0 0.76 0.48 0 0.8 0.48 0 0.84 0.48 0 0.88 0.48 0 0.92 0.48 0 0.96 0.48 0 1 0.48 0 1.04 0.48 0 1.08 0.48 0 1.12 0.48 0 1.16 0.48 0 1.2 0.48 0 0 0.52 0 0.04 0.52 0 0.08 0.52 0 0.12 0.52 0 0.16 0.52 0 0.2 0.52 0 0.24 0.52 0 0.28 0.52 0 0.32 0.52 0 0.36 0.52 0 0.4 0.52 0 0.44 0.52 0 0.48 0.52 0 0.52 0.52 0 0.56 0.52 0 0.6 0.52 0 0.64 0.52 0 0.68 0.52 0 0.72 0.52 0 0.76 0.52 0 0.8 0.52 0 0.84 0.52 0 0.88 0.52 0 0.92 0.52 0 0.96 0.52 0 1 0.52 0 1.04 0.52 0 1.08 0.52 0 1.12 0.52 0 1.16 0.52 0 1.2 0.52 0 0 0.56 0 0.04 0.56 0 0.08 0.56 0 0.12 0.56 0 0.16 0.56 0 0.2 0.56 0 0.24 0.56 0 0.28 0.56 0 0.32 0.56 0 0.36 0.56 0 0.4 0.56 0 0.44 0.56 0 0.48 0.56 0 0.52 0.56 0 0.56 0.56 0 0.6 0.56 0 0.64 0.56 0 0.68 0.56 0 0.72 0.56 0 0.76 0.56 0 0.8 0.56 0 0.84 0.56 0 0.88 0.56 0 0.92 0.56 0 0.96 0.56 0 1 0.56 0 1.04 0.56 0 1.08 0.56 0 1.12 0.56 0 1.16 0.56 0 1.2 0.56 0 0 0.6 0 0.04 0.6 0 0.08 0.6 0 0.12 0.6 0 0.16 0.6 0 0.2 0.6 0 0.24 0.6 0 0.28 0.6 0 0.32 0.6 0 0.36 0.6 0 0.4 0.6 0 0.44 0.6 0 0.48 0.6 0 0.52 0.6 0 0.56 0.6 0 0.6 0.6 0 0.64 0.6 0 0.68 0.6 0 0.72 0.6 0 0.76 0.6 0 0.8 0.6 0 0.84 0.6 0 0.88 0.6 0 0.92 0.6 0 0.96 0.6 0 1 0.6 0 1.04 0.6 0 1.08 0.6 0 1.12 0.6 0 1.16 0.6 0 1.2 0.6 0 0 0.64 0 0.04 0.64 0 0.08 0.64 0 0.12 0.64 0 0.16 0.64 0 0.2 0.64 0 0.24 0.64 0 0.28 0.64 0 0.32 0.64 0 0.36 0.64 0 0.4 0.64 0 0.44 0.64 0 0.48 0.64 0 0.52 0.64 0 0.56 0.64 0 0.6 0.64 0 0.64 0.64 0 0.68 0.64 0 0.72 0.64 0 0.76 0.64 0 0.8 0.64 0 0.84 0.64 0 0.88 0.64 0 0.92 0.64 0 0.96 0.64 0 1 0.64 0 1.04 0.64 0 1.08 0.64 0 1.12 0.64 0 1.16 0.64 0 1.2 0.64 0 0 0.68 0 0.04 0.68 0 0.08 0.68 0 0.12 0.68 0 0.16 0.68 0 0.2 0.68 0 0.24 0.68 0 0.28 0.68 0 0.32 0.68 0 0.36 0.68 0 0.4 0.68 0 0.44 0.68 0 0.48 0.68 0 0.52 0.68 0 0.56 0.68 0 0.6 0.68 0 0.64 0.68 0 0.68 0.68 0 0.72 0.68 0 0.76 0.68 0 0.8 0.68 0 0.84 0.68 0 0.88 0.68 0 0.92 0.68 0 0.96 0.68 0 1 0.68 0 1.04 0.68 0 1.08 0.68 0 1.12 0.68 0 1.16 0.68 0 1.2 0.68 0 0 0.72 0 0.04 0.72 0 0.08 0.72 0 0.12 0.72 0 0.16 0.72 0 0.2 0.72 0 0.24 0.72 0 0.28 0.72 0 0.32 0.72 0 0.36 0.72 0 0.4 0.72 0 0.44 0.72 0 0.48 0.72 0 0.52 0.72 0 0.56 0.72 0 0.6 0.72 0 0.64 0.72 0 0.68 0.72 0 0.72 0.72 0 0.76 0.72 0 0.8 0.72 0 0.84 0.72 0 0.88 0.72 0 0.92 0.72 0 0.96 0.72 0 1 0.72 0 1.04 0.72 0 1.08 0.72 0 1.12 0.72 0 1.16 0.72 0 1.2 0.72 0 0 0.76 0 0.04 0.76 0 0.08 0.76 0 0.12 0.76 0 0.16 0.76 0 0.2 0.76 0 0.24 0.76 0 0.28 0.76 0 0.32 0.76 0 0.36 0.76 0 0.4 0.76 0 0.44 0.76 0 0.48 0.76 0 0.52 0.76 0 0.56 0.76 0 0.6 0.76 0 0.64 0.76 0 0.68 0.76 0 0.72 0.76 0 0.76 0.76 0 0.8 0.76 0 0.84 0.76 0 0.88 0.76 0 0.92 0.76 0 0.96 0.76 0 1 0.76 0 1.04 0.76 0 1.08 0.76 0 1.12 0.76 0 1.16 0.76 0 1.2 0.76 0 0 0.8 0 0.04 0.8 0 0.08 0.8 0 0.12 0.8 0 0.16 0.8 0 0.2 0.8 0 0.24 0.8 0 0.28 0.8 0 0.32 0.8 0 0.36 0.8 0 0.4 0.8 0 0.44 0.8 0 0.48 0.8 0 0.52 0.8 0 0.56 0.8 0 0.6 0.8 0 0.64 0.8 0 0.68 0.8 0 0.72 0.8 0 0.76 0.8 0 0.8 0.8 0 0.84 0.8 0 0.88 0.8 0 0.92 0.8 0 0.96 0.8 0 1 0.8 0 1.04 0.8 0 1.08 0.8 0 1.12 0.8 0 1.16 0.8 0 1.2 0.8 0 0 0.84 0 0.04 0.84 0 0.08 0.84 0 0.12 0.84 0 0.16 0.84 0 0.2 0.84 0 0.24 0.84 0 0.28 0.84 0 0.32 0.84 0 0.36 0.84 0 0.4 0.84 0 0.44 0.84 0 0.48 0.84 0 0.52 0.84 0 0.56 0.84 0 0.6 0.84 0 0.64 0.84 0 0.68 0.84 0 0.72 0.84 0 0.76 0.84 0 0.8 0.84 0 0.84 0.84 0 0.88 0.84 0 0.92 0.84 0 0.96 0.84 0 1 0.84 0 1.04 0.84 0 1.08 0.84 0 1.12 0.84 0 1.16 0.84 0 1.2 0.84 0 0 0.88 0 0.04 0.88 0 0.08 0.88 0 0.12 0.88 0 0.16 0.88 0 0.2 0.88 0 0.24 0.88 0 0.28 0.88 0 0.32 0.88 0 0.36 0.88 0 0.4 0.88 0 0.44 0.88 0 0.48 0.88 0 0.52 0.88 0 0.56 0.88 0 0.6 0.88 0 0.64 0.88 0 0.68 0.88 0 0.72 0.88 0 0.76 0.88 0 0.8 0.88 0 0.84 0.88 0 0.88 0.88 0 0.92 0.88 0 0.96 0.88 0 1 0.88 0 1.04 0.88 0 1.08 0.88 0 1.12 0.88 0 1.16 0.88 0 1.2 0.88 0 0 0.92 0 0.04 0.92 0 0.08 0.92 0 0.12 0.92 0 0.16 0.92 0 0.2 0.92 0 0.24 0.92 0 0.28 0.92 0 0.32 0.92 0 0.36 0.92 0 0.4 0.92 0 0.44 0.92 0 0.48 0.92 0 0.52 0.92 0 0.56 0.92 0 0.6 0.92 0 0.64 0.92 0 0.68 0.92 0 0.72 0.92 0 0.76 0.92 0 0.8 0.92 0 0.84 0.92 0 0.88 0.92 0 0.92 0.92 0 0.96 0.92 0 1 0.92 0 1.04 0.92 0 1.08 0.92 0 1.12 0.92 0 1.16 0.92 0 1.2 0.92 0 0 0.96 0 0.04 0.96 0 0.08 0.96 0 0.12 0.96 0 0.16 0.96 0 0.2 0.96 0 0.24 0.96 0 0.28 0.96 0 0.32 0.96 0 0.36 0.96 0 0.4 0.96 0 0.44 0.96 0 0.48 0.96 0 0.52 0.96 0 0.56 0.96 0 0.6 0.96 0 0.64 0.96 0 0.68 0.96 0 0.72 0.96 0 0.76 0.96 0 0.8 0.96 0 0.84 0.96 0 0.88 0.96 0 0.92 0.96 0 0.96 0.96 0 1 0.96 0 1.04 0.96 0 1.08 0.96 0 1.12 0.96 0 1.16 0.96 0 1.2 0.96 0 0 1 0 0.04 1 0 0.08 1 0 0.12 1 0 0.16 1 0 0.2 1 0 0.24 1 0 0.28 1 0 0.32 1 0 0.36 1 0 0.4 1 0 0.44 1 0 0.48 1 0 0.52 1 0 0.56 1 0 0.6 1 0 0.64 1 0 0.68 1 0 0.72 1 0 0.76 1 0 0.8 1 0 0.84 1 0 0.88 1 0 0.92 1 0 0.96 1 0 1 1 0 1.04 1 0 1.08 1 0 1.12 1 0 1.16 1 0 1.2 1 0 0 1.04 0 0.04 1.04 0 0.08 1.04 0 0.12 1.04 0 0.16 1.04 0 0.2 1.04 0 0.24 1.04 0 0.28 1.04 0 0.32 1.04 0 0.36 1.04 0 0.4 1.04 0 0.44 1.04 0 0.48 1.04 0 0.52 1.04 0 0.56 1.04 0 0.6 1.04 0 0.64 1.04 0 0.68 1.04 0 0.72 1.04 0 0.76 1.04 0 0.8 1.04 0 0.84 1.04 0 0.88 1.04 0 0.92 1.04 0 0.96 1.04 0 1 1.04 0 1.04 1.04 0 1.08 1.04 0 1.12 1.04 0 1.16 1.04 0 1.2 1.04 0 0 1.08 0 0.04 1.08 0 0.08 1.08 0 0.12 1.08 0 0.16 1.08 0 0.2 1.08 0 0.24 1.08 0 0.28 1.08 0 0.32 1.08 0 0.36 1.08 0 0.4 1.08 0 0.44 1.08 0 0.48 1.08 0 0.52 1.08 0 0.56 1.08 0 0.6 1.08 0 0.64 1.08 0 0.68 1.08 0 0.72 1.08 0 0.76 1.08 0 0.8 1.08 0 0.84 1.08 0 0.88 1.08 0 0.92 1.08 0 0.96 1.08 0 1 1.08 0 1.04 1.08 0 1.08 1.08 0 1.12 1.08 0 1.16 1.08 0 1.2 1.08 0 0 1.12 0 
[...]
			<CellData Scalars="Density">
				<DataArray Name="Density" type="Float32" format="ascii">
 0.00566034 0.00580806 0.0062138 0.00699085 0.00820416 0.00998406 0.0125989 0.0164451 0.02178 0.0284781 0.0362949 0.0451989 0.0552665 0.0661575 0.0782199 0.0936637 0.116454 0.153001 0.212459 0.306441 0.445378 0.635127 0.876714 1.15883 1.40911 1.5791 1.66339 1.6707 1.72926 1.72276 0.00580635 0.00588476 0.00616795 0.00675372 0.00765818 0.0090185 0.0112098 0.0146788 0.019617 0.0263889 0.0356624 0.0506539 0.0727524 0.0921398 0.10281 0.112236 0.125449 0.150201 0.198921 0.285488 0.424103 0.626815 0.897975 1.22022 1.48317 1.64862 1.72591 1.73677 1.79224 1.76842 0.00620749 0.00616423 0.00628725 0.00670854 0.00744247 0.00858174 0.0105276 0.0142333 0.0208588 0.0317426 0.0535078 0.0960255 0.135537 0.168857 0.195608 0.209767 0.206864 0.205071 0.222446 0.279042 0.39137 0.573129 0.834932 1.16653 1.45972 1.65073 1.74846 1.77474 1.8444 1.8248 0.00697481 0.00674227 0.00670197 0.00706911 0.00780649 0.00900804 0.0112421 0.0163343 0.0281817 0.0533304 0.0941958 0.132391 0.166127 0.209789 0.261626 0.313163 0.346178 0.352245 0.362242 0.403971 0.50572 0.684044 0.94064 1.2574 1.52304 1.68229 1.76195 1.78948 1.86701 1.88076 0.00817156 0.0076334 0.00742608 0.00779433 0.00850406 0.00965444 0.012461 0.0202137 0.0392623 0.0720021 0.106758 0.136293 0.164474 0.214109 0.281565 0.360673 0.440657 0.497884 0.55123 0.62938 0.757483 0.944681 1.18643 1.43339 1.60141 1.70489 1.76014 1.79255 1.8817 1.92705 0.00992678 0.00897426 0.00854989 0.00896938 0.00960815 0.0102281 0.0121851 0.0196018 0.0381904 0.0689191 0.094756 0.107072 0.119669 0.172369 0.264655 0.366442 0.473814 0.581649 0.687562 0.808153 0.95461 1.1284 1.32477 1.49792 1.61506 1.6832 1.72528 1.77386 1.90301 1.98217 0.0125113 0.0111413 0.010471 0.0111564 0.0123314 0.0121101 0.0122921 0.0160064 0.030224 0.0541955 0.0730841 0.0710418 0.0778407 0.110624 0.184451 0.307956 0.45838 0.596122 0.728006 0.865898 1.01672 1.18285 1.36533 1.51667 1.62452 1.69534 1.74105 1.80244 1.9763 2.0398 0.0163197 0.0145722 0.0141157 0.0161792 0.0199746 0.0194201 0.0159621 0.0157464 0.0199575 0.0322961 0.0458527 0.0472479 0.0509182 0.0706613 0.121362 0.208421 0.345715 0.52298 0.688701 0.839822 0.990612 1.14722 1.31576 1.48592 1.63824 1.75919 1.83653 1.93274 2.15381 2.15617 0.0216047 0.0194567 0.0206622 0.0279027 0.0389331 0.0379427 0.0301678 0.0200176 0.0189118 0.0214841 0.0263438 0.030083 0.0350161 0.0483171 0.0811916 0.141376 0.232944 0.359302 0.510074 0.668269 0.826575 0.991901 1.17386 1.38334 1.6189 1.84015 1.99614 2.15207 2.42735 2.34688 0.0282578 0.0261623 0.0313746 0.0527187 0.0715561 0.0686823 0.0542223 0.0324986 0.0215494 0.0201873 0.0209556 0.0228237 0.026968 0.0371059 0.059958 0.101181 0.163081 0.246895 0.351754 0.474666 0.615064 0.777478 0.971576 1.21337 1.51717 1.86303 2.15289 2.39671 2.72929 2.59883 0.0360452 0.0353402 0.0527541 0.0935519 0.106459 0.094776 0.0733181 0.0462262 0.0264774 0.0209748 0.0206776 0.0215524 0.0247713 0.0334013 0.052286 0.0848956 0.131803 0.192758 0.268699 0.362074 0.477429 0.622634 0.810276 1.0588 1.39094 1.83099 2.27986 2.61295 2.95689 2.81294 0.044926 0.050111 0.0950468 0.131946 0.136133 0.10734 0.0712024 0.0474134 0.0301491 0.0228355 0.0215551 0.0224764 0.0260683 0.0349735 0.0531422 0.0838418 0.126604 0.180219 0.245013 0.323916 0.422354 0.551103 0.726026 0.97041 1.3158 1.79329 2.35534 2.75473 3.07032 2.9398 0.0549697 0.0719647 0.134703 0.165736 0.164334 0.119879 0.0779969 0.0509913 0.0350595 0.0270019 0.0248011 0.0260983 0.0310027 0.0430147 0.0654376 0.0984461 0.141293 0.193041 0.253516 0.326125 0.4176 0.538395 0.705525 0.946487 1.29698 1.78259 2.37891 2.79484 3.07531 2.97589 0.0658617 0.091315 0.167997 0.209331 0.213911 0.172793 0.111097 0.0710232 0.0485702 0.0373024 0.033556 0.0351057 0.0431232 0.0608269 0.0909075 0.133376 0.185823 0.244511 0.307271 0.376757 0.461382 0.573375 0.73173 0.96591 1.31146 1.77697 2.34481 2.73163 2.9681 2.93464 0.0779561 0.102015 0.194541 0.261004 0.28125 0.265027 0.185424 0.122313 0.0819608 0.0605093 0.0526827 0.0534698 0.0657155 0.0910716 0.132369 0.189313 0.257662 0.330726 0.404942 0.479966 0.565046 0.672023 0.821682 1.04328 1.36085 1.77362 2.25209 2.57339 2.73711 2.79004 0.0934613 0.111582 0.20843 0.31226 0.360254 0.366437 0.309237 0.209944 0.142727 0.102157 0.0855704 0.0844023 0.0988979 0.133648 0.189331 0.261832 0.345637 0.432315 0.516285 0.59922 0.689235 0.794831 0.934587 1.13197 1.39985 1.7488 2.10087 2.37519 2.54695 2.61665 0.116354 0.124957 0.205597 0.344934 0.439916 0.47356 0.458991 0.347997 0.23486 0.164483 0.132759 0.127374 0.141862 0.186044 0.257543 0.345493 0.439289 0.531534 0.620258 0.708209 0.801277 0.903459 1.0298 1.1984 1.41658 1.67844 1.94114 2.1994 2.39634 2.45422 0.15305 0.149907 0.204038 0.350808 0.496713 0.58113 0.596191 0.524846 0.361671 0.248711 0.193997 0.181167 0.193722 0.244752 0.33072 0.432121 0.531141 0.624872 0.714864 0.803104 0.893666 0.989909 1.09943 1.23765 1.40861 1.60265 1.8269 2.07977 2.2794 2.31791 0.212717 0.198843 0.221672 0.360705 0.549681 0.686778 0.727845 0.689957 0.512708 0.353911 0.270224 0.246135 0.25436 0.307662 0.404942 0.515742 0.619295 0.713882 0.800542 0.883394 0.964643 1.04887 1.14121 1.25028 1.38566 1.55111 1.76547 2.00634 2.19014 2.22158 0.306991 0.285611 0.278492 0.402362 0.627455 0.807265 0.865731 0.840913 0.670986 0.477117 0.363902 0.325226 0.32717 0.377296 0.479841 0.597929 0.706481 0.80172 0.882342 0.952644 1.01963 1.08657 1.16235 1.25205 1.36622 1.52504 1.74074 1.96695 2.13392 2.16785 0.446257 0.424404 0.390917 0.504038 0.755371 0.953792 1.01662 0.991705 0.829235 0.61772 0.479538 0.423901 0.418889 0.462113 0.564967 0.687721 0.798758 0.891553 0.963449 1.01843 1.06564 1.11368 1.17028 1.25336 1.35701 1.51549 1.73778 1.95364 2.10486 2.14419 0.636271 0.627241 0.572691 0.682315 0.942741 1.12779 1.18285 1.14838 0.994477 0.780228 0.624974 0.552923 0.539945 0.574313 0.671967 0.793383 0.900647 0.98615 1.0472 1.08837 1.1157 1.1599 1.20816 1.28445 1.38787 1.54092 1.77026 1.96282 2.09664 2.13594 0.878015 0.898421 0.834531 0.939036 1.18501 1.32447 1.3655 1.31696 1.17625 0.974292 0.812795 0.728124 0.707348 0.733061 0.822254 0.93414 1.02921 1.09881 1.13861 1.15905 1.17035 1.21345 1.26033 1.34469 1.45417 1.61565 1.82525 1.99603 2.11634 2.14887 1.16001 1.22055 1.16628 1.25618 1.43273 1.49775 1.51683 1.48683 1.38533 1.2159 1.06135 0.972663 0.948444 0.967665 1.04498 1.13293 1.19771 1.23647 1.25136 1.25239 1.24811 1.28678 1.34985 1.44044 1.55876 1.73558 1.9086 2.0466 2.15445 2.18743 1.40974 1.48322 1.45952 1.52252 1.6012 1.61512 1.62457 1.6387 1.62021 1.51922 1.39337 1.31804 1.29889 1.31299 1.36191 1.40067 1.41756 1.40685 1.38343 1.36774 1.36094 1.38757 1.45842 1.56478 1.70197 1.87413 2.01397 2.12536 2.20453 2.2222 1.5793 1.64845 1.65054 1.68217 1.70484 1.68339 1.69519 1.75913 1.84067 1.86433 1.83296 1.79515 1.78406 1.77811 1.77493 1.75009 1.67869 1.60309 1.55115 1.52344 1.51462 1.54224 1.61546 1.73874 1.87743 2.06371 2.20167 2.26503 2.30616 2.28346 1.66324 1.7256 1.74829 1.76189 1.76015 1.72545 1.74084 1.83625 1.99612 2.15339 2.28071 2.35612 2.37945 2.34495 2.25216 2.10065 1.9407 1.82678 1.76655 1.7429 1.73917 1.77127 1.82481 1.90973 2.01641 2.20456 2.39827 2.5058 2.51675 2.40896 1.67022 1.73615 1.77422 1.78908 1.79227 1.77376 1.802 1.93206 2.15123 2.39619 2.61275 2.75456 2.79466 2.73124 2.57244 2.37425 2.19911 2.08005 2.00684 1.96776 1.95442 1.96396 1.99713 2.04784 2.12656 2.26822 2.50973 2.73979 2.86745 2.71451 1.72799 1.79087 1.84315 1.86593 1.8808 1.90225 1.97537 2.15276 2.42605 2.72826 2.95621 3.06975 3.0748 2.96755 2.73656 2.54646 2.39592 2.27908 2.19007 2.1342 2.10545 2.09747 2.11707 2.15515 2.20501 2.30824 2.52076 2.86947 3.16706 3.20498 1.72048 1.76604 1.82247 1.87863 1.92515 1.98049 2.03835 2.15483 2.34543 2.59727 2.81148 2.93854 2.97496 2.93406 2.78966 2.61635 2.45392 2.31759 2.22139 2.16796 2.14457 2.13642 2.14956 2.18745 2.22075 2.28725 2.40826 2.71784 3.2074 3.68005
				</DataArray>
				<DataArray Name="Energy" type="Float32" format="ascii">
 947.455 923.378 863.105 767.192 653.746 537.195 425.675 326.043 246.076 188.097 147.452 118.243 96.4929 80.3268 67.6011 56.114 44.8762 33.9542 24.2691 16.7242 11.433 7.95375 5.7027 4.24024 3.39955 2.93619 2.65546 2.40378 2.16586 2.00106 923.651 911.372 869.583 794.198 700.434 594.783 478.508 365.361 273.322 203.076 150.205 105.626 73.3946 57.7307 51.4503 46.8567 41.6829 34.5477 25.9413 17.9735 12.0094 8.06283 5.58054 4.04797 3.25114 2.82303 2.56225 2.34513 2.13856 1.98319 863.982 870.11 853.114 799.622 720.844 625.188 509.611 376.907 257.134 168.95 100.195 55.7854 39.4495 31.5513 27.1161 25.1187 25.2759 25.334 23.1695 18.3421 13.0175 8.83223 6.00354 4.22637 3.29583 2.824 2.55428 2.34735 2.13711 1.97637 768.958 795.547 800.407 758.924 687.362 595.799 477.459 328.602 190.448 100.68 56.952 40.5727 32.2483 25.4954 20.3607 16.9144 15.1895 14.813 14.3065 12.7352 10.1009 7.40875 5.3316 3.92136 3.15841 2.77319 2.54556 2.3557 2.16445 2.01332 656.354 702.71 722.436 688.435 631.177 556.104 431.03 265.801 136.852 74.6988 50.3428 39.5192 32.7169 25.1067 19.0497 14.809 12.0522 10.587 9.49647 8.25864 6.80187 5.39477 4.24035 3.44609 3.00528 2.73179 2.54416 2.37811 2.2163 2.08512 540.296 597.716 627.517 598.366 558.785 525.252 441.134 274.493 141.017 78.2093 56.9056 50.4303 45.1879 31.3739 20.4226 14.7398 11.352 9.20195 7.75219 6.55623 5.49679 4.58674 3.83198 3.30098 2.96099 2.73376 2.55628 2.39109 2.2627 2.15968 428.656 481.448 512.369 481.129 435.557 443.879 437.867 336.527 178.48 99.7003 74.0524 76.2801 69.7293 49.1605 29.5044 17.7024 11.8984 9.14007 7.47222 6.26417 5.29837 4.49862 3.82323 3.34641 3.0086 2.75534 2.55788 2.38532 2.28312 2.22023 328.549 368.035 380.043 331.75 268.982 277.056 337.478 342.724 270.883 167.761 118.42 115.103 106.983 77.2383 45.1027 26.3336 15.9328 10.5739 8.05137 6.61279 5.59118 4.78512 4.10447 3.53932 3.10062 2.76848 2.53628 2.33387 2.23679 2.2275 248.073 275.575 259.579 192.352 138.009 141.934 178.808 270.081 286.404 252.779 206.637 181.189 156.054 113.292 67.5838 38.9756 23.7639 15.5037 10.9983 8.44108 6.84295 5.68986 4.76384 3.97362 3.31016 2.81688 2.50293 2.27485 2.17467 2.20163 189.563 204.834 170.93 101.848 75.1631 78.4787 99.6511 166.709 252.018 269.458 260.313 239.424 202.98 147.876 91.7456 54.5839 34.059 22.646 16.0139 11.959 9.29104 7.37514 5.89456 4.69119 3.70094 2.96491 2.50984 2.23876 2.11607 2.17271 148.473 151.573 101.626 57.3444 50.4849 56.8924 73.8153 117.463 205.592 260.08 264.15 254.086 221.46 164.554 105.429 65.1859 42.2125 29.0601 21.0087 15.7084 11.9986 9.26102 7.15453 5.49469 4.18315 3.18589 2.54643 2.22944 2.06113 2.14474 118.96 106.768 56.3591 40.7081 39.565 50.3054 76.106 114.702 180.795 239.292 254.062 243.957 210.84 157.501 103.915 66.1135 43.9954 31.0893 23.0219 17.5399 13.5469 10.4647 8.01779 6.05636 4.51382 3.36305 2.58283 2.22066 2.01956 2.1105 97.012 74.1962 39.693 32.3237 32.7437 45.1072 69.5889 106.824 155.863 202.724 221.185 210.604 177.554 128.294 84.5857 56.4153 39.4819 29.0452 22.2308 17.3658 13.6252 10.6358 8.1936 6.19179 4.59647 3.41275 2.59194 2.20626 1.99019 2.07199 80.6854 58.2511 31.7122 25.5502 25.1289 31.2956 48.9495 76.8447 112.696 147.098 163.795 156.904 127.976 90.9231 61.0135 41.7242 30.0528 22.9137 18.2868 14.942 12.2301 9.88228 7.7968 5.97161 4.46435 3.34364 2.55729 2.17171 1.94728 2.01672 67.828 51.8506 27.2636 20.408 19.0696 20.3923 29.3476 44.7508 66.9498 90.907 104.637 103.278 84.2285 60.9054 42.0171 29.447 21.6894 16.9159 13.8119 11.626 9.86222 8.28481 6.78939 5.37488 4.13873 3.17419 2.49069 2.12625 1.89473 1.93797 56.2339 47.131 25.2781 16.9622 14.8248 14.7391 17.6287 26.1416 38.6067 54.0642 64.6732 65.676 56.1584 41.6396 29.444 21.3209 16.1572 12.8925 10.7503 9.20988 7.94416 6.84328 5.77974 4.74924 3.80088 2.99136 2.43757 2.08635 1.84962 1.85663 44.915 41.846 25.4306 15.243 12.0713 11.3566 11.881 15.828 23.5703 33.7705 41.9115 43.731 39.3267 30.0178 21.7005 16.1635 12.6892 10.437 8.86943 7.68078 6.69829 5.83789 5.02851 4.23855 3.50104 2.86286 2.38667 2.02218 1.79812 1.77884 33.9431 34.6145 25.4605 14.8725 10.6105 9.20892 9.13795 10.536 15.4028 22.4825 28.8778 30.9276 28.9457 22.8915 16.9174 12.9006 10.4408 8.80745 7.61023 6.63987 5.833 5.12716 4.47223 3.84447 3.25129 2.73826 2.29705 1.93857 1.74208 1.70497 24.2386 25.9515 23.2485 14.3661 9.5218 7.75957 7.4726 8.03613 10.9424 15.918 20.8938 22.9185 22.159 18.263 13.808 10.7648 8.88826 7.61094 6.66963 5.89024 5.19538 4.59951 4.04108 3.52454 3.0382 2.58827 2.17957 1.85132 1.68525 1.64092 16.6943 17.9645 18.3777 12.7848 8.28262 6.56207 6.26438 6.60379 8.40749 11.8994 15.6327 17.4711 17.3117 14.9214 11.6299 9.22317 7.70391 6.66164 5.88633 5.25774 4.67879 4.15883 3.6905 3.24813 2.83568 2.43423 2.05851 1.77536 1.63511 1.58988 11.4104 11.9995 13.0323 10.1335 6.81968 5.50019 5.2978 5.58429 6.82121 9.25268 11.9485 13.4992 13.5845 12.2102 9.86339 7.96423 6.71292 5.84779 5.21203 4.68241 4.2117 3.77847 3.38763 3.00226 2.64909 2.2944 1.95743 1.71711 1.59571 1.5528 7.93886 8.05668 8.83861 7.42664 5.40497 4.58803 4.49747 4.7795 5.67521 7.3504 9.22859 10.4321 10.6066 9.86514 8.28212 6.85357 5.8615 5.14269 4.60037 4.1579 3.77573 3.40012 3.06892 2.74566 2.44696 2.1505 1.85424 1.66832 1.57091 1.53078 5.69372 5.57725 6.00595 5.34016 4.24488 3.83186 3.82179 4.09988 4.75395 5.87882 7.13404 7.99651 8.17397 7.78384 6.78778 5.78194 5.02834 4.48266 4.0519 3.6961 3.38683 3.0614 2.78144 2.49295 2.24074 1.98868 1.76423 1.62339 1.54808 1.51461 4.23534 4.04635 4.22682 3.92479 3.44725 3.30053 3.34502 3.53616 3.96742 4.68169 5.48256 6.04364 6.17992 5.96255 5.36837 4.74906 4.2405 3.84389 3.52615 3.24997 3.00805 2.74014 2.48802 2.25316 2.04587 1.8294 1.6765 1.57729 1.5265 1.50841 3.39745 3.25032 3.29573 3.15916 3.00533 2.96044 3.00755 3.09887 3.30699 3.69589 4.17657 4.50704 4.59028 4.45948 4.1338 3.79639 3.50071 3.25433 3.04029 2.83482 2.64468 2.44576 2.2346 2.04016 1.86428 1.70598 1.59865 1.53235 1.50629 1.50271 2.93519 2.82246 2.82384 2.77317 2.73157 2.73326 2.75467 2.76779 2.81558 2.96278 3.18267 3.35975 3.40995 3.34111 3.17181 2.98882 2.8618 2.73919 2.5901 2.43563 2.29535 2.14902 1.98833 1.8271 1.70367 1.56506 1.48254 1.45543 1.45942 1.4845 2.65487 2.5618 2.55407 2.54539 2.54382 2.55591 2.55746 2.53596 2.50246 2.50902 2.54522 2.58156 2.59082 2.55633 2.48989 2.43757 2.38633 2.296 2.17796 2.05697 1.95606 1.85341 1.76456 1.67585 1.59805 1.48131 1.38105 1.34051 1.3581 1.42688 2.40309 2.34457 2.34686 2.35523 2.37761 2.3907 2.38501 2.33372 2.27476 2.2383 2.22872 2.21992 2.20564 2.17129 2.1262 2.08656 2.02226 1.93836 1.85079 1.77479 1.71658 1.6677 1.62272 1.57678 1.53163 1.45487 1.33914 1.24815 1.22148 1.29953 2.16501 2.13774 2.13628 2.16362 2.21545 2.262 2.28271 2.2367 2.17486 2.11608 2.06089 2.01918 1.98981 1.94698 1.89457 1.84961 1.79823 1.74228 1.6855 1.6353 1.59569 1.57049 1.54716 1.52603 1.50625 1.45853 1.35628 1.22111 1.15263 1.12119 1.99992 1.98202 1.97517 2.01212 2.08395 2.15868 2.21946 2.22706 2.20155 2.17283 2.14476 2.11037 2.07172 2.01641 1.93761 1.85631 1.77865 1.705 1.64117 1.59012 1.5529 1.53085 1.51444 1.50809 1.50283 1.48319 1.42712 1.29843 1.12064 1.17527
				</DataArray>
				<DataArray Name="F1" type="Float32" format="ascii">
 1 1 1 1 1 1 1 1 1 1 1 1 1 1 1 1 1 1 1 1 1 1 1 1 1 1 1 1 1 1 1 1 1 1 1 1 1 1 1 1 1 1 1 1 1 1 1 1 1 1 1 1 1 1 1 1 1 1 1 1 1 1 1 1 1 1 1 1 1 1 1 1 1 1 1 1 1 1 1 1 1 1 1 1 1 1 1 1 1 1 1 1 1 1 1 1 1 1 1 1 1 1 1 1 1 1 1 1 1 1 1 1 1 1 1 1 1 1 1 1 1 1 1 1 1 1 1 1 1 1 1 1 1 1 1 1 1 1 1 1 1 1 1 1 1 1 1 1 1 1 1 1 1 1 1 1 1 1 1 1 1 1 1 1 1 1 1 1 1 1 1 1 1 1 1 1 1 1 1 1 1 1 1 1 1 1 1 1 1 1 1 1 1 1 1 1 1 1 1 1 1 1 1 1 1 1 1 1 1 1 1 1 1 1 1 1 1 1 1 1 1 1 1 1 1 1 1 1 1 1 1 1 1 1 1 1 1 1 1 1 1 1 1 1 1 1 1 1 1 1 1 1 1 1 1 1 1 1 1 1 1 1 1 1 1 1 1 1 1 1 1 1 1 1 1 1 1 1 1 1 1 1 1 1 1 1 1 1 1 1 1 1 1 1 1 1 1 1 1 1 1 1 1 1 1 1 1 1 1 1 1 1 1 1 1 1 1 1 1 1 1 1 1 1 1 1 1 1 1 1 1 1 1 1 1 1 1 1 1 1 1 1 1 1 1 1 1 1 1 1 1 1 1 1 1 1 1 1 1 1 1 1 1 1 1 1 1 1 1 1 1 1 1 1 1 1 1 1 1 1 1 1 1 1 1 1 1 1 1 1 1 1 1 1 1 1 1 1 1 1 1 1 1 1 1 1 1 1 1 1 1 1 1 1 1 1 1 1 1 1 1 1 1 1 1 1 1 1 1 1 1 1 1 1 1 1 1 1 1 1 1 1 1 1 1 1 1 1 1 1 1 1 1 1 1 1 1 1 1 1 1 1 1 1 1 1 1 1 1 1 1 1 1 1 1 1 1 1 1 1 1 1 1 1 1 1 1 1 1 1 1 1 1 1 1 1 1 1 1 1 1 1 1 1 1 1 1 1 1 1 1 1 1 1 1 1 1 1 1 1 1 1 1 1 1 1 1 1 1 1 1 1 1 1 1 1 1 1 1 1 1 1 1 1 1 1 1 1 1 1 1 1 1 1 1 1 1 1 1 1 1 1 1 1 1 1 1 1 1 1 1 1 1 1 1 1 1 1 1 1 1 1 1 1 1 1 1 1 1 1 1 1 1 1 1 1 1 1 1 1 1 1 1 1 1 1 1 1 1 1 1 1 1 1 1 1 1 1 1 1 1 1 1 1 1 1 1 1 1 1 1 1 1 1 1 1 1 1 1 1 1 1 1 1 1 1 1 1 1 1 1 1 1 1 1 1 1 1 1 1 1 1 1 1 1 1 1 1 1 1 1 1 1 1 1 1 1 1 1 1 1 1 1 1 1 1 1 1 1 1 1 1 1 1 1 1 1 1 1 1 1 1 1 1 1 1 1 1 1 1 1 1 1 1 1 1 1 1 1 1 1 1 1 1 1 1 1 1 1 1 1 1 1 1 1 1 1 1 1 1 1 1 1 1 1 1 1 1 1 1 1 1 1 1 1 1 1 1 1 1 1 1 1 1 1 1 1 1 1 1 1 1 1 1 1 1 1 1 1 1 1 1 1 1 1 1 1 1 1 1 1 1 1 1 1 1 1 1 1 1 1 1 1 1 1 1 1 1 1 1 1 1 1 1 1 1 1 1 1 1 1 1 1 1 1 1 1 1 1 1 1 1 1 1 1 1 1 1 1 1 1 1 1 1 1 1 1 1 1 1 1 1 1 1 1 1 1 1 1 1 1 1 1 1 1 1 1 1 1 1 1 1 1 1 1 1 1 1 1 1 1 1 1 1 1 1 1 1 1 1 1 1 1 1 1 1 1 1 1 1
				</DataArray>
				<DataArray Name="F2" type="Float32" format="ascii">
 0 0 0 0 0 0 0 0 0 0 0 0 0 0 0 0 0 0 0 0 0 0 0 0 0 0 0 0 0 0 0 0 0 0 0 0 0 0 0 0 0 0 0 0 0 0 0 0 0 0 0 0 0 0 0 0 0 0 0 0 0 0 0 0 0 0 0 0 0 0 0 0 0 0 0 0 0 0 0 0 0 0 0 0 0 0 0 0 0 0 0 0 0 0 0 0 0 0 0 0 0 0 0 0 0 0 0 0 0 0 0 0 0 0 0 0 0 0 0 0 0 0 0 0 0 0 0 0 0 0 0 0 0 0 0 0 0 0 0 0 0 0 0 0 0 0 0 0 0 0 0 0 0 0 0 0 0 0 0 0 0 0 0 0 0 0 0 0 0 0 0 0 0 0 0 0 0 0 0 0 0 0 0 0 0 0 0 0 0 0 0 0 0 0 0 0 0 0 0 0 0 0 0 0 0 0 0 0 0 0 0 0 0 0 0 0 0 0 0 0 0 0 0 0 0 0 0 0 0 0 0 0 0 0 0 0 0 0 0 0 0 0 0 0 0 0 0 0 0 0 0 0 0 0 0 0 0 0 0 0 0 0 0 0 0 0 0 0 0 0 0 0 0 0 0 0 0 0 0 0 0 0 0 0 0 0 0 0 0 0 0 0 0 0 0 0 0 0 0 0 0 0 0 0 0 0 0 0 0 0 0 0 0 0 0 0 0 0 0 0 0 0 0 0 0 0 0 0 0 0 0 0 0 0 0 0 0 0 0 0 0 0 0 0 0 0 0 0 0 0 0 0 0 0 0 0 0 0 0 0 0 0 0 0 0 0 0 0 0 0 0 0 0 0 0 0 0 0 0 0 0 0 0 0 0 0 0 0 0 0 0 0 0 0 0 0 0 0 0 0 0 0 0 0 0 0 0 0 0 0 0 0 0 0 0 0 0 0 0 0 0 0 0 0 0 0 0 0 0 0 0 0 0 0 0 0 0 0 0 0 0 0 0 0 0 0 0 0 0 0 0 0 0 0 0 0 0 0 0 0 0 0 0 0 0 0 0 0 0 0 0 0 0 0 0 0 0 0 0 0 0 0 0 0 0 0 0 0 0 0 0 0 0 0 0 0 0 0 0 0 0 0 0 0 0 0 0 0 0 0 0 0 0 0 0 0 0 0 0 0 0 0 0 0 0 0 0 0 0 0 0 0 0 0 0 0 0 0 0 0 0 0 0 0 0 0 0 0 0 0 0 0 0 0 0 0 0 0 0 0 0 0 0 0 0 0 0 0 0 0 0 0 0 0 0 0 0 0 0 0 0 0 0 0 0 0 0 0 0 0 0 0 0 0 0 0 0 0 0 0 0 0 0 0 0 0 0 0 0 0 0 0 0 0 0 0 0 0 0 0 0 0 0 0 0 0 0 0 0 0 0 0 0 0 0 0 0 0 0 0 0 0 0 0 0 0 0 0 0 0 0 0 0 0 0 0 0 0 0 0 0 0 0 0 0 0 0 0 0 0 0 0 0 0 0 0 0 0 0 0 0 0 0 0 0 0 0 0 0 0 0 0 0 0 0 0 0 0 0 0 0 0 0 0 0 0 0 0 0 0 0 0 0 0 0 0 0 0 0 0 0 0 0 0 0 0 0 0 0 0 0 0 0 0 0 0 0 0 0 0 0 0 0 0 0 0 0 0 0 0 0 0 0 0 0 0 0 0 0 0 0 0 0 0 0 0 0 0 0 0 0 0 0 0 0 0 0 0 0 0 0 0 0 0 0 0 0 0 0 0 0 0 0 0 0 0 0 0 0 0 0 0 0 0 0 0 0 0 0 0 0 0 0 0 0 0 0 0 0 0 0 0 0 0 0 0 0 0 0 0 0 0 0 0 0 0 0 0 0 0 0 0 0 0 0 0 0 0 0 0 0 0 0 0 0 0 0 0 0 0 0 0 0 0 0 0 0 0 0 0 0 0 0 0 0 0 0 0 0 0 0 0 0 0 0 0 0 0 0 0 0 0 0 0 0 0 0 0 0 0
				</DataArray>
				<DataArray Name="F3" type="Float32" format="ascii">