<?xml version="1.0"?>
<VTKFile type="PolyData">
	<PolyData>
		<Piece NumberOfPoints="961" NumberOfPolys="900">
			<Points>
				<DataArray type="Float32" NumberOfComponents="3" format="ascii">
 0 0 0 0.04 0 0 0.08 0 0 0.12 0 0 0.16 0 0 0.2 0 0 0.24 0 0 0.28 0 0 0.32 0 0 0.36 0 0 0.4 0 0 0.44 0 0 0.48 0 0 0.52 0 0 0.56 0 0 0.6 0 0 0.64 0 0 0.68 0 0 0.72 0 0 0.76 0 0 0.8 0 0 0.84 0 0 0.88 0 0 0.92 0 0 0.96 0 0 1 0 0 1.04 0 0 1.08 0 0 1.12 0 0 1.16 0 0 1.2 0 0 0 0.04 0 0.04 0.04 0 0.08 0.04 0 0.12 0.04 0 0.16 0.04 0 0.2 0.04 0 0.24 0.04 0 0.28 0.04 0 0.32 0.04 0 0.36 0.04 0 0.4 0.04 0 0.44 0.04 0 0.48 0.04 0 0.52 0.04 0 0.56 0.04 0 0.6 0.04 0 0.64 0.04 0 0.68 0.04 0 0.72 0.04 0 0.76 0.04 0 0.8 0.04 0 0.84 0.04 0 0.88 0.04 0 0.92 0.04 0 0.96 0.04 0 1 0.04 0 1.04 0.04 0 1.08 0.04 0 1.12 0.04 0 1.16 0.04 0 1.2 0.04 0 0 0.08 0 0.04 0.08 0 0.08 0.08 0 0.12 0.08 0 0.16 0.08 0 0.2 0.08 0 0.24 0.08 0 0.28 0.08 0 0.32 0.08 0 0.36 0.08 0 0.4 0.08 0 0.44 0.08 0 0.48 0.08 0 0.52 0.08 0 0.56 0.08 0 0.6 0.08 0 0.64 0.08 0 0.68 0.08 0 0.72 0.08 0 0.76 0.08 0 0.8 0.08 0 0.84 0.08 0 0.88 0.08 0 0.92 0.08 0 0.96 0.08 0 1 0.08 0 1.04 0.08 0 1.08 0.08 0 1.12 0.08 0 1.16 0.08 0 1.2 0.08 0 0 0.12 0 0.04 0.12 0 0.08 0.12 0 0.12 0.12 0 0.16 0.12 0 0.2 0.12 0 0.24 0.12 0 0.28 0.12 0 0.32 0.12 0 0.36 0.12 0 0.4 0.12 0 0.44 0.12 0 0.48 0.12 0 0.52 0.12 0 0.56 0.12 0 0.6 0.12 0 0.64 0.12 0 0.68 0.12 0 0.72 0.12 0 0.76 0.12 0 0.8 0.12 0 0.84 0.12 0 0.88 0.12 0 0.92 0.12 0 0.96 0.12 0 1 0.12 0 1.04 0.12 0 1.08 0.12 0 1.12 0.12 0 1.16 0.12 0 1.2 0.12 0 0 0.16 0 0.04 0.16 0 0.08 0.16 0 0.12 0.16 0 0.16 0.16 0 0.2 0.16 0 0.24 0.16 0 0.28 0.16 0 0.32 0.16 0 0.36 0.16 0 0.4 0.16 0 0.44 0.16 0 0.48 0.16 0 0.52 0.16 0 0.56 0.16 0 0.6 0.16 0 0.64 0.16 0 0.68 0.16 0 0.72 0.16 0 0.76 0.16 0 0.8 0.16 0 0.84 0.16 0 0.88 0.16 0 0.92 0.16 0 0.96 0.16 0 1 0.16 0 1.04 0.16 0 1.08 0.16 0 1.12 0.16 0 1.16 0.16 0 1.2 0.16 0 0 0.2 0 0.04 0.2 0 0.08 0.2 0 0.12 0.2 0 0.16 0.2 0 0.2 0.2 0 0.24 0.2 0 0.28 0.2 0 0.32 0.2 0 0.36 0.2 0 0.4 0.2 0 0.44 0.2 0 0.48 0.2 0 0.52 0.2 0 0.56 0.2 0 0.6 0.2 0 0.64 0.2 0 0.68 0.2 0 0.72 0.2 0 0.76 0.2 0 0.8 0.2 0 0.84 0.2 0 0.88 0.2 0 0.92 0.2 0 0.96 0.2 0 1 0.2 0 1.04 0.2 0 1.08 0.2 0 1.12 0.2 0 1.16 0.2 0 1.2 0.2 0 0 0.24 0 0.04 0.24 0 0.08 0.24 0 0.12 0.24 0 0.16 0.24 0 0.2 0.24 0 0.24 0.24 0 0.28 0.24 0 0.32 0.24 0 0.36 0.24 0 0.4 0.24 0 0.44 0.24 0 0.48 0.24 0 0.52 0.24 0 0.56 0.24 0 0.6 0.24 0 0.64 0.24 0 0.68 0.24 0 0.72 0.24 0 0.76 0.24 0 0.8 0.24 0 0.84 0.24 0 0.88 0.24 0 0.92 0.24 0 0.96 0.24 0 1 0.24 0 1.04 0.24 0 1.08 0.24 0 1.12 0.24 0 1.16 0.24 0 1.2 0.24 0 0 0.28 0 0.04 0.28 0 0.08 0.28 0 0.12 0.28 0 0.16 0.28 0 0.2 0.28 0 0.24 0.28 0 0.28 0.28 0 0.32 0.28 0 0.36 0.28 0 0.4 0.28 0 0.44 0.28 0 0.48 0.28 0 0.52 0.28 0 0.56 0.28 0 0.6 0.28 0 0.64 0.28 0 0.68 0.28 0 0.72 0.28 0 0.76 0.28 0 0.8 0.28 0 0.84 0.28 0 0.88 0.28 0 0.92 0.28 0 0.96 0.28 0 1 0.28 0 1.04 0.28 0 1.08 0.28 0 1.12 0.28 0 1.16 0.28 0 1.2 0.28 0 0 0.32 0 0.04 0.32 0 0.08 0.32 0 0.12 0.32 0 0.16 0.32 0 0.2 0.32 0 0.24 0.32 0 0.28 0.32 0 0.32 0.32 0 0.36 0.32 0 0.4 0.32 0 0.44 0.32 0 0.48 0.32 0 0.52 0.32 0 0.56 0.32 0 0.6 0.32 0 0.64 0.32 0 0.68 0.32 0 0.72 0.32 0 0.76 0.32 0 0.8 0.32 0 0.84 0.32 0 0.88 0.32 0 0.92 0.32 0 0.96 0.32 0 1 0.32 0 1.04 0.32 0 1.08 0.32 0 1.12 0.32 0 1.16 0.32 0 1.2 0.32 0 0 0.36 0 0.04 0.36 0 0.08 0.36 0 0.12 0.36 0 0.16 0.36 0 0.2 0.36 0 0.24 0.36 0 0.28 0.36 0 0.32 0.36 0 0.36 0.36 0 0.4 0.36 0 0.44 0.36 0 0.48 0.36 0 0.52 0.36 0 0.56 0.36 0 0.6 0.36 0 0.64 0.36 0 0.68 0.36 0 0.72 0.36 0 0.76 0.36 0 0.8 0.36 0 0.84 0.36 0 0.88 0.36 0 0.92 0.36 0 0.96 0.36 0 1 0.36 0 1.04 0.36 0 1.08 0.36 0 1.12 0.36 0 1.16 0.36 0 1.2 0.36 0 0 0.4 0 0.04 0.4 0 0.08 0.4 0 0.12 0.4 0 0.16 0.4 0 0.2 0.4 0 0.24 0.4 0 0.28 0.4 0 0.32 0.4 0 0.36 0.4 0 0.4 0.4 0 0.44 0.4 0 0.48 0.4 0 0.52 0.4 0 0.56 0.4 0 0.6 0.4 0 0.64 0.4 0 0.68 0.4 0 0.72 0.4 0 0.76 0.4 0 0.8 0.4 0 0.84 0.4 0 0.88 0.4 0 0.92 0.4 0 0.96 0.4 0 1 0.4 0 1.04 0.4 0 1.08 0.4 0 1.12 0.4 0 1.16 0.4 0 1.2 0.4 0 0 0.44 0 0.04 0.44 0 0.08 0.44 0 0.12 0.44 0 0.16 0.44 0 0.2 0.44 0 0.24 0.44 0 0.28 0.44 0 0.32 0.44 0 0.36 0.44 0 0.4 0.44 0 0.44 0.44 0 0.48 0.44 0 0.52 0.44 0 0.56 0.44 0 0.6 0.44 0 0.64 0.44 0 0.68 0.44 0 0.72 0.44 0 0.76 0.44 0 0.8 0.44 0 0.84 0.44 0 0.88 0.44 0 0.92 0.44 0 0.96 0.44 0 1 0.44 0 1.04 0.44 0 1.08 0.44 0 1.12 0.44 0 1.16 0.44 0 1.2 0.44 0 0 0.48 0 0.04 0.48 0 0.08 0.48 0 0.12 0.48 0 0.16 0.48 0 0.2 0.48 0 0.24 0.48 0 0.28 0.48 0 0.32 0.48 0 0.36 0.48 0 0.4 0.48 0 0.44 0.48 0 0.48 0.48 0 0.52 0.48 0 0.56 0.48 0 0.6 0.48 0 0.64 0.48 0 0.68 0.48 0 0.72 0.48 0 0.76 0.48 0 0.8 0.48 0 0.84 0.48 0 0.88 0.48 0 0.92 0.48 0 0.96 0.48 0 1 0.48 0 1.04 0.48 0 1.08 0.48 0 1.12 0.48 0 1.16 0.48 0 1.2 0.48 0 0 0.52 0 0.04 0.52 0 0.08 0.52 0 0.12 0.52 0 0.16 0.52 0 0.2 0.52 0 0.24 0.52 0 0.28 0.52 0 0.32 0.52 0 0.36 0.52 0 0.4 0.52 0 0.44 0.52 0 0.48 0.52 0 0.52 0.52 0 0.56 0.52 0 0.6 0.52 0 0.64 0.52 0 0.68 0.52 0 0.72 0.52 0 0.76 0.52 0 0.8 0.52 0 0.84 0.52 0 0.88 0.52 0 0.92 0.52 0 0.96 0.52 0 1 0.52 0 1.04 0.52 0 1.08 0.52 0 1.12 0.52 0 1.16 0.52 0 1.2 0.52 0 0 0.56 0 0.04 0.56 0 0.08 0.56 0 0.12 0.56 0 0.16 0.56 0 0.2 0.56 0 0.24 0.56 0 0.28 0.56 0 0.32 0.56 0 0.36 0.56 0 0.4 0.56 0 0.44 0.56 0 0.48 0.56 0 0.52 0.56 0 0.56 0.56 0 0.6 0.56 0 0.64 0.56 0 0.68 0.56 0 0.72 0.56 0 0.76 0.56 0 0.8 0.56 0 0.84 0.56 0 0.88 0.56 0 0.92 0.56 0 0.96 0.56 0 1 0.56 0 1.04 0.56 0 1.08 0.56 0 1.12 0.56 0 1.16 0.56 0 1.2 0.56 0 0 0.6 0 0.04 0.6 0 0.08 0.6 0 0.12 0.6 0 0.16 0.6 0 0.2 0.6 0 0.24 0.6 0 0.28 0.6 0 0.32 0.6 0 0.36 0.6 0 0.4 0.6 0 0.44 0.6 0 0.48 0.6 0 0.52 0.6 0 0.56 0.6 0 0.6 0.6 0 0.64 0.6 0 0.68 0.6 0 0.72 0.6 0 0.76 0.6 0 0.8 0.6 0 0.84 0.6 0 0.88 0.6 0 0.92 0.6 0 0.96 0.6 0 1 0.6 0 1.04 0.6 0 1.08 0.6 0 1.12 0.6 0 1.16 0.6 0 1.2 0.6 0 0 0.64 0 0.04 0.64 0 0.08 0.64 0 0.12 0.64 0 0.16 0.64 0 0.2 0.64 0 0.24 0.64 0 0.28 0.64 0 0.32 0.64 0 0.36 0.64 0 0.4 0.64 0 0.44 0.64 0 0.48 0.64 0 0.52 0.64 0 0.56 0.64 0 0.6 0.64 0 0.64 0.64 0 0.68 0.64 0 0.72 0.64 0 0.76 0.64 0 0.8 0.64 0 0.84 0.64 0 0.88 0.64 0 0.92 0.64 0 0.96 0.64 0 1 0.64 0 1.04 0.64 0 1.08 0.64 0 1.12 0.64 0 1.16 0.64 0 1.2 0.64 0 0 0.68 0 0.04 0.68 0 0.08 0.68 0 0.12 0.68 0 0.16 0.68 0 0.2 0.68 0 0.24 0.68 0 0.28 0.68 0 0.32 0.68 0 0.36 0.68 0 0.4 0.68 0 0.44 0.68 0 0.48 0.68 0 0.52 0.68 0 0.56 0.68 0 0.6 0.68 0 0.64 0.68 0 0.68 0.68 0 0.72 0.68 0 0.76 0.68 0 0.8 0.68 0 0.84 0.68 0 0.88 0.68 0 0.92 0.68 0 0.96 0.68 0 1 0.68 0 1.04 0.68 0 1.08 0.68 0 1.12 0.68 0 1.16 0.68 0 1.2 0.68 0 0 0.72 0 0.04 0.72 0 0.08 0.72 0 0.12 0.72 0 0.16 0.72 0 0.2 0.72 0 0.24 0.72 0 0.28 0.72 0 0.32 0.72 0 0.36 0.72 0 0.4 0.72 0 0.44 0.72 0 0.48 0.72 0 0.52 0.72 0 0.56 0.72 0 0.6 0.72 0 0.64 0.72 0 0.68 0.72 0 0.72 0.72 0 0.76 0.72 0 0.8 0.72 0 0.84 0.72 0 0.88 0.72 0 0.92 0.72 0 0.96 0.72 0 1 0.72 0 1.04 0.72 0 1.08 0.72 0 1.12 0.72 0 1.16 0.72 0 1.2 0.72 0 0 0.76 0 0.04 0.76 0 0.08 0.76 0 0.12 0.76 0 0.16 0.76 0 0.2 0.76 0 0.24 0.76 0 0.28 0.76 0 0.32 0.76 0 0.36 0.76 0 0.4 0.76 0 0.44 0.76 0 0.48 0.76 0 0.52 0.76 0 0.56 0.76 0 0.6 0.76 0 0.64 0.76 0 0.68 0.76 0 0.72 0.76 0 0.76 0.76 0 0.8 0.76 0 0.84 0.76 0 0.88 0.76 0 0.92 0.76 0 0.96 0.76 0 1 0.76 0 1.04 0.76 0 1.08 0.76 0 1.12 0.76 0 1.16 0.76 0 1.2 0.76 0 0 0.8 0 0.04 0.8 0 0.08 0.8 0 0.12 0.8 0 0.16 0.8 0 0.2 0.8 0 0.24 0.8 0 0.28 0.8 0 0.32 0.8 0 0.36 0.8 0 0.4 0.8 0 0.44 0.8 0 0.48 0.8 0 0.52 0.8 0 0.56 0.8 0 0.6 0.8 0 0.64 0.8 0 0.68 0.8 0 0.72 0.8 0 0.76 0.8 0 0.8 0.8 0 0.84 0.8 0 0.88 0.8 0 0.92 0.8 0 0.96 0.8 0 1 0.8 0 1.04 0.8 0 1.08 0.8 0 1.12 0.8 0 1.16 0.8 0 1.2 0.8 0 0 0.84 0 0.04 0.84 0 0.08 0.84 0 0.12 0.84 0 0.16 0.84 0 0.2 0.84 0 0.24 0.84 0 0.28 0.84 0 0.32 0.84 0 0.36 0.84 0 0.4 0.84 0 0.44 0.84 0 0.48 0.84 0 0.52 0.84 0 0.56 0.84 0 0.6 0.84 0 0.64 0.84 0 0.68 0.84 0 0.72 0.84 0 0.76 0.84 0 0.8 0.84 0 0.84 0.84 0 0.88 0.84 0 0.92 0.84 0 0.96 0.84 0 1 0.84 0 1.04 0.84 0 1.08 0.84 0 1.12 0.84 0 1.16 0.84 0 1.2 0.84 0 0 0.88 0 0.04 0.88 0 0.08 0.88 0 0.12 0.88 0 0.16 0.88 0 0.2 0.88 0 0.24 0.88 0 0.28 0.88 0 0.32 0.88 0 0.36 0.88 0 0.4 0.88 0 0.44 0.88 0 0.48 0.88 0 0.52 0.88 0 0.56 0.88 0 0.6 0.88 0 0.64 0.88 0 0.68 0.88 0 0.72 0.88 0 0.76 0.88 0 0.8 0.88 0 0.84 0.88 0 0.88 0.88 0 0.92 0.88 0 0.96 0.88 0 1 0.88 0 1.04 0.88 0 1.08 0.88 0 1.12 0.88 0 1.16 0.88 0 1.2 0.88 0 0 0.92 0 0.04 0.92 0 0.08 0.92 0 0.12 0.92 0 0.16 0.92 0 0.2 0.92 0 0.24 0.92 0 0.28 0.92 0 0.32 0.92 0 0.36 0.92 0 0.4 0.92 0 0.44 0.92 0 0.48 0.92 0 0.52 0.92 0 0.56 0.92 0 0.6 0.92 0 0.64 0.92 0 0.68 0.92 0 0.72 0.92 0 0.76 0.92 0 0.8 0.92 0 0.84 0.92 0 0.88 0.92 0 0.92 0.92 0 0.96 0.92 0 1 0.92 0 1.04 0.92 0 1.08 0.92 0 1.12 0.92 0 1.16 0.92 0 1.2 0.92 0 0 0.96 0 0.04 0.96 0 0.08 0.96 0 0.12 0.96 0 0.16 0.96 0 0.2 0.96 0 0.24 0.96 0 0.28 0.96 0 0.32 0.96 0 0.36 0.96 0 0.4 0.96 0 0.44 0.96 0 0.48 0.96 0 0.52 0.96 0 0.56 0.96 0 0.6 0.96 0 0.64 0.96 0 0.68 0.96 0 0.72 0.96 0 0.76 0.96 0 0.8 0.96 0 0.84 0.96 0 0.88 0.96 0 0.92 0.96 0 0.96 0.96 0 1 0.96 0 1.04 0.96 0 1.08 0.96 0 1.12 0.96 0 1.16 0.96 0 1.2 0.96 0 0 1 0 0.04 1 0 0.08 1 0 0.12 1 0 0.16 1 0 0.2 1 0 0.24 1 0 0.28 1 0 0.32 1 0 0.36 1 0 0.4 1 0 0.44 1 0 0.48 1 0 0.52 1 0 0.56 1 0 0.6 1 0 0.64 1 0 0.68 1 0 0.72 1 0 0.76 1 0 0.8 1 0 0.84 1 0 0.88 1 0 0.92 1 0 0.96 1 0 1 1 0 1.04 1 0 1.08 1 0 1.12 1 0 1.16 1 0 1.2 1 0 0 1.04 0 0.04 1.04 0 0.08 1.04 0 0.12 1.04 0 0.16 1.04 0 0.2 1.04 0 0.24 1.04 0 0.28 1.04 0 0.32 1.04 0 0.36 1.04 0 0.4 1.04 0 0.44 1.04 0 0.48 1.04 0 0.52 1.04 0 0.56 1.04 0 0.6 1.04 0 0.64 1.04 0 0.68 1.04 0 0.72 1.04 0 0.76 1.04 0 0.8 1.04 0 0.84 1.04 0 0.88 1.04 0 0.92 1.04 0 0.96 1.04 0 1 1.04 0 1.04 1.04 0 1.08 1.04 0 1.12 1.04 0 1.16 1.04 0 1.2 1.04 0 0 1.08 0 0.04 1.08 0 0.08 1.08 0 0.12 1.08 0 0.16 1.08 0 0.2 1.08 0 0.24 1.08 0 0.28 1.08 0 0.32 1.08 0 0.36 1.08 0 0.4 1.08 0 0.44 1.08 0 0.48 1.08 0 0.52 1.08 0 0.56 1.08 0 0.6 1.08 0 0.64 1.08 0 0.68 1.08 0 0.72 1.08 0 0.76 1.08 0 0.8 1.08 0 0.84 1.08 0 0.88 1.08 0 0.92 1.08 0 0.96 1.08 0 1 1.08 0 1.04 1.08 0 1.08 1.08 0 1.12 1.08 0 1.16 1.08 0 1.2 1.08 0 0 1.12 0 
[...]
			<CellData Scalars="Density">
				<DataArray Name="Density" type="Float32" format="ascii">
 0.00436424 0.00443383 0.00460378 0.0049283 0.00546505 0.00626704 0.0073848 0.008868 0.0107694 0.0131458 0.0160628 0.019602 0.0238777 0.0290538 0.0353712 0.0431791 0.0529849 0.065522 0.0818497 0.103499 0.132685 0.172575 0.227653 0.304017 0.410585 0.564241 0.811035 1.31968 3.13104 8.34032 0.00443402 0.00449431 0.00464513 0.00494637 0.00546046 0.00624374 0.00735179 0.00884207 0.0107798 0.0132396 0.0163031 0.0200666 0.0246541 0.0302337 0.0370475 0.0454486 0.0559581 0.0693277 0.0866653 0.109577 0.140404 0.182521 0.2407 0.321488 0.433319 0.590755 0.836867 1.32991 3.09968 8.27069 0.00460438 0.00464553 0.00475222 0.00499139 0.00541942 0.00608141 0.00704167 0.00836451 0.0101133 0.0123543 0.0151624 0.0186282 0.0228698 0.0280465 0.0343764 0.0421653 0.0518471 0.064098 0.0799199 0.100916 0.129528 0.169301 0.225208 0.303973 0.414642 0.57512 0.830951 1.34486 3.12889 8.4139 0.00492951 0.00494727 0.00499184 0.00515277 0.00549817 0.00608115 0.00693692 0.00812842 0.00973401 0.0118432 0.0145541 0.0179795 0.0222491 0.0275251 0.0340155 0.0420007 0.0518684 0.0642408 0.0800162 0.1005 0.127681 0.164612 0.215934 0.28864 0.392962 0.547283 0.795331 1.29837 3.02828 8.26706 0.00546694 0.00546169 0.00542004 0.00549842 0.00576195 0.00626915 0.00707669 0.00824237 0.00984616 0.011988 0.0147856 0.0183744 0.0229178 0.0286081 0.0356812 0.0444329 0.0552508 0.0686225 0.0852652 0.106353 0.133746 0.17035 0.220678 0.291622 0.393171 0.543324 0.788542 1.28205 2.9367 8.0909 0.00626974 0.00624532 0.00608192 0.00608128 0.00626903 0.00672086 0.00749775 0.00866226 0.0103102 0.0125619 0.0155715 0.0195192 0.0246138 0.0310925 0.0392147 0.0492604 0.0615538 0.0765145 0.0947541 0.117258 0.145669 0.182612 0.232416 0.301707 0.399854 0.542912 0.776268 1.24678 2.79531 7.79295 0.00738861 0.00735395 0.00704209 0.00693655 0.00707612 0.0074971 0.00828443 0.00950289 0.0112662 0.013724 0.0170721 0.0215439 0.0274037 0.034926 0.0444037 0.0561252 0.0704003 0.0876141 0.108332 0.133432 0.164388 0.203568 0.254985 0.324998 0.423119 0.563399 0.789897 1.24467 2.67211 7.46414 0.0088732 0.00884507 0.0083652 0.00812778 0.0082415 0.00866083 0.00950153 0.0108309 0.0127789 0.0155222 0.0193027 0.024398 0.0311274 0.0398132 0.0507766 0.0643468 0.0808475 0.100691 0.12444 0.152953 0.187661 0.230786 0.28618 0.359943 0.461521 0.604949 0.831412 1.28104 2.63123 7.25435 0.0107761 0.0107837 0.0101152 0.00973384 0.00984564 0.0103085 0.0112636 0.0127766 0.014998 0.0181308 0.022463 0.0283275 0.0360895 0.0461319 0.0588313 0.0745528 0.093701 0.116706 0.144255 0.177289 0.217289 0.266679 0.329277 0.41133 0.523232 0.680348 0.922077 1.39168 2.68052 7.13531 0.0131543 0.0132448 0.0123581 0.0118445 0.0119887 0.0125606 0.0137208 0.0155178 0.0181262 0.0217863 0.0268362 0.0336683 0.0427202 0.054418 0.0692193 0.0875547 0.109881 0.136784 0.168992 0.20779 0.254933 0.313152 0.387191 0.483945 0.615682 0.80322 1.086 1.61909 2.88278 7.02698 0.0160734 0.0163103 0.0151687 0.014558 0.0147886 0.0155716 0.0170691 0.0192962 0.0224524 0.0268242 0.0328268 0.0409137 0.0515989 0.0653933 0.0827863 0.10432 0.130534 0.162129 0.200157 0.246062 0.302342 0.372464 0.462142 0.580527 0.74306 0.979485 1.34035 2.00923 3.21769 6.6703 0.0196152 0.0200761 0.0186379 0.0179872 0.0183806 0.019521 0.021542 0.0243896 0.0283073 0.0336378 0.0408824 0.0505918 0.0633425 0.0797193 0.100313 0.125667 0.156516 0.193718 0.238568 0.29326 0.360657 0.445887 0.556559 0.704532 0.912492 1.2165 1.70794 2.59188 3.46567 5.90993 0.0238943 0.0246666 0.0228842 0.0222624 0.022928 0.024618 0.0274015 0.0311173 0.0360587 0.04266 0.0515238 0.063277 0.0786134 0.098146 0.12254 0.152482 0.188681 0.232413 0.285305 0.35006 0.43087 0.533808 0.669393 0.853605 1.11694 1.51434 2.2101 3.20897 3.59752 4.87416 0.029075 0.0302508 0.0280672 0.0275459 0.0286245 0.0311013 0.0349272 0.0398004 0.0460942 0.0543316 0.0652567 0.0795804 0.0980406 0.121375 0.150242 0.185439 0.227963 0.27906 0.341196 0.417904 0.514298 0.639042 0.805491 1.03822 1.37435 1.92674 2.85524 3.59961 3.67306 3.59825 0.0353987 0.037071 0.0344052 0.0340452 0.0357063 0.0392323 0.0444134 0.0507721 0.0587846 0.0691135 0.0826024 0.100074 0.122339 0.150092 0.184199 0.225432 0.275056 0.334972 0.407501 0.498064 0.613361 0.764064 0.97011 1.2611 1.70731 2.4932 3.37571 3.77714 3.55254 2.29636 0.043215 0.0454812 0.0422033 0.042041 0.0444696 0.0492913 0.0561504 0.0643564 0.0745226 0.0874262 0.1041 0.125372 0.152152 0.185193 0.22526 0.273583 0.331417 0.40143 0.487127 0.593873 0.732255 0.91646 1.17334 1.54625 2.17586 3.15473 3.6861 3.77795 2.86189 1.43563 0.0530318 0.0560026 0.0518961 0.0519199 0.0553013 0.0616016 0.0704523 0.0808893 0.0936992 0.109793 0.130289 0.156208 0.188345 0.227589 0.274832 0.331248 0.39903 0.481053 0.582597 0.711173 0.879365 1.10975 1.43463 1.96133 2.86115 3.6169 3.84032 3.41898 1.77072 1.1307 0.0655829 0.0693881 0.0641605 0.0643055 0.0686862 0.076582 0.0876912 0.100779 0.116769 0.136748 0.161973 0.193401 0.23214 0.278751 0.33465 0.401264 0.480945 0.578675 0.700127 0.857711 1.069 1.36127 1.81218 2.58252 3.50014 3.84558 3.6753 2.30542 1.22466 1.04346 0.0819282 0.0867457 0.0800001 0.080097 0.0853436 0.0948361 0.10843 0.124549 0.144383 0.169054 0.200091 0.238418 0.285072 0.341081 0.407369 0.486956 0.582554 0.70019 0.849758 1.04793 1.31922 1.71545 2.4012 3.34726 3.79621 3.8259 2.83677 1.40986 1.07329 1.01005 0.103599 0.109683 0.101022 0.1006 0.106447 0.117352 0.133538 0.153081 0.177425 0.207924 0.2461 0.293229 0.350012 0.417821 0.498173 0.594008 0.711174 0.857855 1.04808 1.30516 1.67826 2.29788 3.19912 3.80562 3.90267 3.21648 1.62457 1.11 1.02056 1.00124 0.132813 0.140542 0.12967 0.127805 0.133858 0.145773 0.164487 0.187777 0.21743 0.255036 0.302423 0.360674 0.430922 0.514346 0.613439 0.732594 0.879724 1.06936 1.31958 1.67858 2.25503 3.14814 3.79079 3.89852 3.41888 1.86998 1.16242 1.03387 1.003 1.00004 0.172737 0.1827 0.169489 0.164769 0.170487 0.182726 0.20366 0.230863 0.266779 0.313226 0.372484 0.445919 0.533862 0.639171 0.76422 0.916711 1.11017 1.36184 1.71612 2.29866 3.14889 3.72974 3.94442 3.54371 2.08915 1.21975 1.04729 1.0055 1.00013 1 0.227853 0.240928 0.225453 0.216137 0.220854 0.232554 0.255081 0.286236 0.329312 0.387201 0.462073 0.556482 0.669353 0.805537 0.970299 1.17363 1.43501 1.81284 2.40233 3.20012 3.79105 3.9447 3.5935 2.17806 1.26291 1.0587 1.00846 1.00031 1 1 0.304261 0.321772 0.30428 0.288908 0.291861 0.301895 0.32512 0.359996 0.411329 0.483887 0.580371 0.704341 0.85348 1.03817 1.26125 1.54659 1.96182 2.5831 3.34782 3.80634 3.89893 3.54314 2.17821 1.28308 1.06462 1.01077 1.00053 1 1 1 0.410869 0.433655 0.415009 0.39331 0.393488 0.400119 0.423299 0.461602 0.523215 0.615571 0.742842 0.912166 1.1167 1.37429 1.70756 2.17638 2.86171 3.50068 3.79632 3.90268 3.41923 2.08866 1.26282 1.0646 1.01173 1.00068 1 1 1 1 0.56456 0.591132 0.575547 0.547717 0.543726 0.543255 0.563666 0.605086 0.680364 0.803071 0.979181 1.21607 1.51394 1.92664 2.4937 3.15566 3.61722 3.84554 3.82608 3.21616 1.86948 1.21965 1.05866 1.01077 1.00068 1.00001 1 1 1 1 0.811391 0.837282 0.831443 0.795852 0.789049 0.776702 0.790261 0.831641 0.922129 1.08585 1.33988 1.70721 2.20945 2.85522 3.37605 3.68663 3.84083 3.67512 2.83594 1.62439 1.16231 1.04729 1.00845 1.00053 1 1 1 1 1 1 1.32007 1.33036 1.34543 1.29903 1.28272 1.24732 1.24512 1.28135 1.39179 1.61885 2.00848 2.59062 3.20818 3.59964 3.77772 3.77826 3.4186 2.30498 1.40951 1.10997 1.03385 1.00549 1.00031 1 1 1 1 1 1 1 3.13137 3.10007 3.12938 3.02898 2.93749 2.79594 2.6726 2.63156 2.68067 2.88229 3.21676 3.46455 3.59712 3.67293 3.55239 2.8617 1.76991 1.22449 1.07323 1.02054 1.003 1.00013 1 1 1 1 1 1 1 1 8.34106 8.27151 8.41488 8.26838 8.09223 7.79401 7.46492 7.25476 7.1351 7.02614 6.66941 5.90942 4.8742 3.59813 2.29585 1.43543 1.13057 1.04343 1.01004 1.00124 1.00004 1 1 1 1 1 1 1 1 1
				</DataArray>
				<DataArray Name="Energy" type="Float32" format="ascii">
 861.437 847.212 816.011 762.36 687.558 599.648 508.972 423.942 349.202 286.197 234.35 192.165 157.901 129.931 106.906 87.7701 71.7363 58.2329 46.8522 37.2994 29.3549 22.8393 17.5913 13.4487 10.25 7.83537 6.05876 4.81609 4.60729 3.36201 847.173 834.993 807.841 758.634 687.245 601.073 510.53 424.544 348.294 283.67 230.463 187.341 152.605 124.579 101.818 83.1594 67.7185 54.8401 44.0607 35.0466 27.5567 21.4095 16.452 12.5404 9.5257 7.26643 5.62832 4.50281 4.40198 3.28693 815.901 807.772 789.641 751.831 692.48 617.16 533.057 448.828 371.303 304.046 247.858 201.882 164.592 134.385 109.832 89.7519 73.1967 59.4408 47.911 38.1903 30.0166 23.2321 17.7319 13.4035 10.1019 7.64698 5.86317 4.61069 4.34914 3.22597 762.171 758.496 751.763 728.315 682.604 617.213 541.15 461.899 385.803 317.201 258.227 209.167 169.17 136.907 110.969 90.0776 73.1399 59.2832 47.839 38.3422 30.4468 23.8941 18.4992 14.1211 10.6411 7.965 5.9933 4.61973 4.27964 3.17672 687.319 687.089 692.401 682.572 651.405 598.761 530.502 455.573 381.453 313.412 254.242 204.714 164.29 131.787 105.845 85.1971 68.7562 55.6052 44.9973 36.3353 29.1698 23.1939 18.2084 14.09 10.7492 8.13221 6.15995 4.72745 4.27363 3.16049 599.388 600.92 617.107 617.2 598.773 558.587 500.777 433.537 364.352 299.142 241.448 192.757 153 121.284 96.3462 76.8892 61.7366 49.8916 40.532 33.0129 26.8521 21.7114 17.3749 13.7151 10.6496 8.1619 6.2469 4.82007 4.29717 3.16218 508.708 510.38 533.025 541.179 530.544 500.82 453.306 395.26 333.491 273.887 220.281 174.691 137.486 108.024 85.1383 67.5435 54.048 43.646 35.5365 29.1058 23.8996 19.5897 15.951 12.8482 10.2017 7.98114 6.2023 4.82297 4.27136 3.171 423.692 424.4 448.79 461.935 455.62 433.609 395.316 346.889 294.095 242.221 194.907 154.319 121.097 94.8331 74.5169 58.9838 47.1376 38.0594 31.024 25.4838 21.0365 17.3884 14.3303 11.7252 9.48285 7.56298 5.97863 4.69862 4.08867 3.10749 348.982 348.168 371.234 385.809 381.473 364.413 333.568 294.146 250.678 207.456 167.557 133 104.518 81.9134 64.3922 50.982 40.7551 32.9202 26.8558 22.0912 18.2799 15.1731 12.5856 10.393 8.50748 6.87865 5.50413 4.35942 3.74693 2.93154 286.011 283.557 303.952 317.167 313.393 299.173 273.951 242.292 207.507 172.753 140.346 111.984 88.3934 69.5252 54.815 43.5041 34.8448 28.1924 23.0261 18.9587 15.7018 13.0464 10.8428 8.98141 7.38624 6.0122 4.83775 3.83166 3.25216 2.6097 234.195 230.362 247.754 258.158 254.189 241.448 220.319 194.973 167.638 140.405 114.845 92.2559 73.2779 57.9649 45.9305 36.6156 29.4404 23.8947 19.5643 16.1319 13.3688 11.1067 9.22457 7.63608 6.27941 5.12217 4.13564 3.2534 2.70209 2.17538 192.035 187.252 201.776 209.077 204.645 192.738 174.709 154.372 133.093 112.089 92.3219 74.7271 59.8071 47.6569 38.0271 30.5089 24.6723 20.1245 16.5413 13.6791 11.3529 9.43692 7.83605 6.48282 5.33353 4.3524 3.54338 2.74414 2.24943 1.70943 157.791 152.526 164.487 169.07 164.216 152.974 137.495 121.14 104.607 88.5155 73.388 59.8639 48.3185 38.8363 31.2533 25.2805 20.5961 16.911 13.9773 11.6082 9.66402 8.0465 6.68766 5.53624 4.56346 3.73282 3.07893 2.31578 1.92406 1.24756 129.836 124.508 134.285 136.804 131.711 121.249 108.021 94.8604 81.9851 69.6375 58.083 47.7426 38.8731 31.5428 25.63 20.9271 17.2018 14.2343 11.8453 9.89429 8.27541 6.91644 5.76674 4.7931 3.96607 3.28383 2.61374 2.05091 1.60831 0.773168 106.822 101.752 109.74 110.872 105.77 96.3031 85.1194 74.5255 64.4391 54.9041 46.0361 38.1144 31.3067 25.6506 21.0572 17.3676 14.4125 12.032 10.0874 8.48188 7.13465 5.99206 5.02063 4.1918 3.48739 2.89023 2.24575 1.81022 1.18665 0.333963 87.6966 83.0992 89.6702 89.9918 85.1275 76.8412 67.5128 58.974 51.005 43.5635 36.6973 30.5842 25.3314 20.9552 17.3769 14.4807 12.134 10.2209 8.63962 7.31363 6.1899 5.22773 4.40247 3.68983 3.11647 2.43598 1.9918 1.48201 0.643769 0.0728133 71.6723 67.6636 73.1266 73.067 68.6944 61.6877 54.0096 47.1132 40.7538 34.8749 29.4907 24.7256 20.6362 17.2256 14.4239 12.1366 10.2668 8.7218 7.43007 6.33355 5.39204 4.57958 3.87289 3.27297 2.68114 2.13485 1.71238 0.970526 0.203087 0.00489657 58.1783 54.7917 59.3821 59.2235 55.5534 49.8482 43.6077 38.0292 32.9039 28.1976 23.9186 20.1522 16.9353 14.2506 12.0398 10.2233 8.72196 7.46931 6.40598 5.495 4.70603 4.011 3.41112 2.89238 2.25205 1.86608 1.25865 0.399145 0.0241162 0.000137682 46.8069 44.0192 47.8622 47.7914 44.9568 40.4973 35.5051 30.996 26.8355 23.019 19.5698 16.5516 13.986 11.8533 10.0915 8.63955 7.42918 6.40541 5.52776 4.76645 4.09566 3.51119 3.00771 2.37171 1.98397 1.47406 0.621823 0.0747117 0.000862383 3.80704e-06 37.2631 35.0123 38.1499 38.3049 36.3046 32.9877 29.084 25.4638 22.0734 18.9499 16.1304 13.6805 11.6088 9.8951 8.48276 7.31284 6.33167 5.49381 4.76598 4.1259 3.55626 3.0735 2.49534 2.05065 1.62295 0.826708 0.148299 0.00319035 1.18458e-05 2.51212e-06 29.3268 27.5294 29.9838 30.4179 29.1463 26.8344 23.8861 21.025 18.2689 15.6949 13.3671 11.3522 9.66247 8.27374 7.13302 6.18843 5.3904 4.70466 4.09493 3.55605 3.11097 2.52642 2.09114 1.71333 0.985836 0.233042 0.00906668 4.41463e-05 2.56143e-06 2.50005e-06 22.8184 21.3885 23.2064 23.8717 23.1757 21.6987 19.5819 17.3829 15.1687 13.0439 11.1066 9.43722 8.04582 6.91511 5.99031 5.22599 4.57822 4.00982 3.5104 3.07305 2.52617 2.11958 1.75414 1.08646 0.305335 0.0187178 0.00013032 2.71723e-06 2.50029e-06 2.5e-06 17.5764 16.4367 17.7128 18.4822 18.1942 17.3653 15.9461 14.3282 12.5849 10.8435 9.22619 7.83737 6.68797 5.76627 5.01962 4.40125 3.87203 3.41044 3.00719 2.49482 2.09094 1.75417 1.12098 0.343226 0.0279372 0.000268208 3.0658e-06 2.50112e-06 2.5e-06 2.5e-06 13.4386 12.5298 13.3904 14.1083 14.0789 13.7076 12.8443 11.7243 10.3937 8.98339 7.63856 6.48493 5.53735 4.7933 4.19142 3.68918 3.27255 2.89214 2.37152 2.05056 1.71311 1.08626 0.343191 0.0315856 0.000378683 3.51671e-06 2.50274e-06 2.5e-06 2.5e-06 2.5e-06 10.2435 9.51873 10.0934 10.632 10.7409 10.6436 10.1983 9.48212 8.50851 7.38837 6.28194 5.33577 4.56487 3.96655 3.4872 3.11613 2.68083 2.252 1.98392 1.6228 0.985607 0.305195 0.0279321 0.00037819 3.73539e-06 2.5042e-06 2.50001e-06 2.5e-06 2.5e-06 2.5e-06 7.83142 7.26216 7.64184 7.95892 8.12626 8.15728 7.97825 7.56205 6.87933 6.01391 5.12435 4.35438 3.73407 3.28435 2.89003 2.4355 2.13468 1.86603 1.47397 0.82646 0.232933 0.0186924 0.0002678 3.51689e-06 2.50419e-06 2.50001e-06 2.5e-06 2.5e-06 2.5e-06 2.5e-06 6.05662 5.62596 5.86024 5.98957 6.15604 6.24355 6.19992 5.97756 5.50431 4.83885 4.13717 3.54489 3.07983 2.6139 2.24559 1.99156 1.7121 1.25834 0.621616 0.148191 0.00905267 0.000130313 3.06464e-06 2.50273e-06 2.50001e-06 2.5e-06 2.5e-06 2.5e-06 2.5e-06 2.5e-06 4.81508 4.50166 4.60915 4.61775 4.7251 4.81782 4.8212 4.69756 4.35921 3.83228 3.25438 2.74527 2.3163 2.05099 1.81001 1.48162 0.970117 0.398837 0.074626 0.00318884 4.40751e-05 2.71674e-06 2.50112e-06 2.5e-06 2.5e-06 2.5e-06 2.5e-06 2.5e-06 2.5e-06 2.5e-06 4.60686 4.40146 4.34835 4.27862 4.2723 4.29578 4.27016 4.08781 3.74658 3.25247 2.7028 2.25016 1.9244 1.60835 1.18639 0.643346 0.202869 0.024077 0.00086008 1.18254e-05 2.5614e-06 2.50029e-06 2.5e-06 2.5e-06 2.5e-06 2.5e-06 2.5e-06 2.5e-06 2.5e-06 2.5e-06 3.3624 3.28728 3.22626 3.17692 3.16051 3.16209 3.17084 3.10727 2.93148 2.61 2.17595 1.70998 1.2478 0.773057 0.333802 0.0727303 0.00488191 0.000137334 3.80479e-06 2.51208e-06 2.50005e-06 2.5e-06 2.5e-06 2.5e-06 2.5e-06 2.5e-06 2.5e-06 2.5e-06 2.5e-06 2.5e-06
				</DataArray>
				<DataArray Name="F1" type="Float32" format="ascii">
 1 1 1 1 1 1 1 1 1 1 1 1 1 1 1 1 1 1 1 1 1 1 1 1 1 1 1 1 1 1 1 1 1 1 1 1 1 1 1 1 1 1 1 1 1 1 1 1 1 1 1 1 1 1 1 1 1 1 1 1 1 1 1 1 1 1 1 1 1 1 1 1 1 1 1 1 1 1 1 1 1 1 1 1 1 1 1 1 1 1 1 1 1 1 1 1 1 1 1 1 1 1 1 1 1 1 1 1 1 1 1 1 1 1 1 1 1 1 1 1 1 1 1 1 1 1 1 1 1 1 1 1 1 1 1 1 1 1 1 1 1 1 1 1 1 1 1 1 1 1 1 1 1 1 1 1 1 1 1 1 1 1 1 1 1 1 1 1 1 1 1 1 1 1 1 1 1 1 1 1 1 1 1 1 1 1 1 1 1 1 1 1 1 1 1 1 1 1 1 1 1 1 1 1 1 1 1 1 1 1 1 1 1 1 1 1 1 1 1 1 1 1 1 1 1 1 1 1 1 1 1 1 1 1 1 1 1 1 1 1 1 1 1 1 1 1 1 1 1 1 1 1 1 1 1 1 1 1 1 1 1 1 1 1 1 1 1 1 1 1 1 1 1 1 1 1 1 1 1 1 1 1 1 1 1 1 1 1 1 1 1 1 1 1 1 1 1 1 1 1 1 1 1 1 1 1 1 1 1 1 1 1 1 1 1 1 1 1 1 1 1 1 1 1 1 1 1 1 1 1 1 1 1 1 1 1 1 1 1 1 1 1 1 1 1 1 1 1 1 1 1 1 1 1 1 1 1 1 1 1 1 1 1 1 1 1 1 1 1 1 1 1 1 1 1 1 1 1 1 1 1 1 1 1 1 1 1 1 1 1 1 1 1 1 1 1 1 1 1 1 1 1 1 1 1 1 1 1 1 1 1 1 1 1 1 1 1 1 1 1 1 1 1 1 1 1 1 1 1 1 1 1 1 1 1 1 1 1 1 1 1 1 1 1 1 1 1 1 1 1 1 1 1 1 1 1 1 1 1 1 1 1 1 1 1 1 1 1 1 1 1 1 1 1 1 1 1 1 1 1 1 1 1 1 1 1 1 1 1 1 1 1 1 1 1 1 1 1 1 1 1 1 1 1 1 1 1 1 1 1 1 1 1 1 1 1 1 1 1 1 1 1 1 1 1 1 1 1 1 1 1 1 1 1 1 1 1 1 1 1 1 1 1 1 1 1 1 1 1 1 1 1 1 1 1 1 1 1 1 1 1 1 1 1 1 1 1 1 1 1 1 1 1 1 1 1 1 1 1 1 1 1 1 1 1 1 1 1 1 1 1 1 1 1 1 1 1 1 1 1 1 1 1 1 1 1 1 1 1 1 1 1 1 1 1 1 1 1 1 1 1 1 1 1 1 1 1 1 1 1 1 1 1 1 1 1 1 1 1 1 1 1 1 1 1 1 1 1 1 1 1 1 1 1 1 1 1 1 1 1 1 1 1 1 1 1 1 1 1 1 1 1 1 1 1 1 1 1 1 1 1 1 1 1 1 1 1 1 1 1 1 1 1 1 1 1 1 1 1 1 1 1 1 1 1 1 1 1 1 1 1 1 1 1 1 1 1 1 1 1 1 1 1 1 1 1 1 1 1 1 1 1 1 1 1 1 1 1 1 1 1 1 1 1 1 1 1 1 1 1 1 1 1 1 1 1 1 1 1 1 1 1 1 1 1 1 1 1 1 1 1 1 1 1 1 1 1 1 1 1 1 1 1 1 1 1 1 1 1 1 1 1 1 1 1 1 1 1 1 1 1 1 1 1 1 1 1 1 1 1 1 1 1 1 1 1 1 1 1 1 1 1 1 1 1 1 1 1 1 1 1 1 1 1 1 1 1 1 1 1 1 1 1 1 1 1 1 1 1 1 1 1 1 1 1 1 1 1 1 1 1 1 1 1 1 1 1 1 1 1 1 1 1 1 1 1 1 1 1 1 1 1 1 1 1 1 1 1 1 1 1 1 1 1 1 1 1 1 1 1
				</DataArray>
				<DataArray Name="F2" type="Float32" format="ascii">
 0 0 0 0 0 0 0 0 0 0 0 0 0 0 0 0 0 0 0 0 0 0 0 0 0 0 0 0 0 0 0 0 0 0 0 0 0 0 0 0 0 0 0 0 0 0 0 0 0 0 0 0 0 0 0 0 0 0 0 0 0 0 0 0 0 0 0 0 0 0 0 0 0 0 0 0 0 0 0 0 0 0 0 0 0 0 0 0 0 0 0 0 0 0 0 0 0 0 0 0 0 0 0 0 0 0 0 0 0 0 0 0 0 0 0 0 0 0 0 0 0 0 0 0 0 0 0 0 0 0 0 0 0 0 0 0 0 0 0 0 0 0 0 0 0 0 0 0 0 0 0 0 0 0 0 0 0 0 0 0 0 0 0 0 0 0 0 0 0 0 0 0 0 0 0 0 0 0 0 0 0 0 0 0 0 0 0 0 0 0 0 0 0 0 0 0 0 0 0 0 0 0 0 0 0 0 0 0 0 0 0 0 0 0 0 0 0 0 0 0 0 0 0 0 0 0 0 0 0 0 0 0 0 0 0 0 0 0 0 0 0 0 0 0 0 0 0 0 0 0 0 0 0 0 0 0 0 0 0 0 0 0 0 0 0 0 0 0 0 0 0 0 0 0 0 0 0 0 0 0 0 0 0 0 0 0 0 0 0 0 0 0 0 0 0 0 0 0 0 0 0 0 0 0 0 0 0 0 0 0 0 0 0 0 0 0 0 0 0 0 0 0 0 0 0 0 0 0 0 0 0 0 0 0 0 0 0 0 0 0 0 0 0 0 0 0 0 0 0 0 0 0 0 0 0 0 0 0 0 0 0 0 0 0 0 0 0 0 0 0 0 0 0 0 0 0 0 0 0 0 0 0 0 0 0 0 0 0 0 0 0 0 0 0 0 0 0 0 0 0 0 0 0 0 0 0 0 0 0 0 0 0 0 0 0 0 0 0 0 0 0 0 0 0 0 0 0 0 0 0 0 0 0 0 0 0 0 0 0 0 0 0 0 0 0 0 0 0 0 0 0 0 0 0 0 0 0 0 0 0 0 0 0 0 0 0 0 0 0 0 0 0 0 0 0 0 0 0 0 0 0 0 0 0 0 0 0 0 0 0 0 0 0 0 0 0 0 0 0 0 0 0 0 0 0 0 0 0 0 0 0 0 0 0 0 0 0 0 0 0 0 0 0 0 0 0 0 0 0 0 0 0 0 0 0 0 0 0 0 0 0 0 0 0 0 0 0 0 0 0 0 0 0 0 0 0 0 0 0 0 0 0 0 0 0 0 0 0 0 0 0 0 0 0 0 0 0 0 0 0 0 0 0 0 0 0 0 0 0 0 0 0 0 0 0 0 0 0 0 0 0 0 0 0 0 0 0 0 0 0 0 0 0 0 0 0 0 0 0 0 0 0 0 0 0 0 0 0 0 0 0 0 0 0 0 0 0 0 0 0 0 0 0 0 0 0 0 0 0 0 0 0 0 0 0 0 0 0 0 0 0 0 0 0 0 0 0 0 0 0 0 0 0 0 0 0 0 0 0 0 0 0 0 0 0 0 0 0 0 0 0 0 0 0 0 0 0 0 0 0 0 0 0 0 0 0 0 0 0 0 0 0 0 0 0 0 0 0 0 0 0 0 0 0 0 0 0 0 0 0 0 0 0 0 0 0 0 0 0 0 0 0 0 0 0 0 0 0 0 0 0 0 0 0 0 0 0 0 0 0 0 0 0 0 0 0 0 0 0 0 0 0 0 0 0 0 0 0 0 0 0 0 0 0 0 0 0 0 0 0 0 0 0 0 0 0 0 0 0 0 0 0 0 0 0 0 0 0 0 0 0 0 0 0 0 0 0 0 0 0 0 0 0 0 0 0 0 0 0 0 0 0 0 0 0 0 0 0 0 0 0 0 0 0 0 0 0 0 0 0 0 0 0 0 0 0 0 0 0 0 0 0 0 0 0 0 0 0 0 0 0 0 0 0 0 0 0 0 0 0 0 0 0 0 0 0 0 0 0 0 0 0 0 0 0 0 0 0 0 0
				</DataArray>
				<DataArray Name="F3" type="Float32" format="ascii">