<?xml version="1.0"?>
<VTKFile type="PolyData">
	<PolyData>
		<Piece NumberOfPoints="961" NumberOfPolys="900">
			<Points>
				<DataArray type="Float32" NumberOfComponents="3" format="ascii">
 0 0 0 0.04 0 0 0.08 0 0 0.12 0 0 0.16 0 0 0.2 0 0 0.24 0 0 0.28 0 0 0.32 0 0 0.36 0 0 0.4 0 0 0.44 0 0 0.48 0 0 0.52 0 0 0.56 0 0 0.6 0 0 0.64 0 0 0.68 0 0 0.72 0 0 0.76 0 0 0.8 0 0 0.84 0 0 0.88 0 0 0.92 0 0 0.96 0 0 1 0 0 1.04 0 0 1.08 0 0 1.12 0 0 1.16 0 0 1.2 0 0 0 0.04 0 0.04 0.04 0 0.08 0.04 0 0.12 0.04 0 0.16 0.04 0 0.2 0.04 0 0.24 0.04 0 0.28 0.04 0 0.32 0.04 0 0.36 0.04 0 0.4 0.04 0 0.44 0.04 0 0.48 0.04 0 0.52 0.04 0 0.56 0.04 0 0.6 0.04 0 0.64 0.04 0 0.68 0.04 0 0.72 0.04 0 0.76 0.04 0 0.8 0.04 0 0.84 0.04 0 0.88 0.04 0 0.92 0.04 0 0.96 0.04 0 1 0.04 0 1.04 0.04 0 1.08 0.04 0 1.12 0.04 0 1.16 0.04 0 1.2 0.04 0 0 0.08 0 0.04 0.08 0 0.08 0.08 0 0.12 0.08 0 0.16 0.08 0 0.2 0.08 0 0.24 0.08 0 0.28 0.08 0 0.32 0.08 0 0.36 0.08 0 0.4 0.08 0 0.44 0.08 0 0.48 0.08 0 0.52 0.08 0 0.56 0.08 0 0.6 0.08 0 0.64 0.08 0 0.68 0.08 0 0.72 0.08 0 0.76 0.08 0 0.8 0.08 0 0.84 0.08 0 0.88 0.08 0 0.92 0.08 0 0.96 0.08 0 1 0.08 0 1.04 0.08 0 1.08 0.08 0 1.12 0.08 0 1.16 0.08 0 1.2 0.08 0 0 0.12 0 0.04 0.12 0 0.08 0.12 0 0.12 0.12 0 0.16 0.12 0 0.2 0.12 0 0.24 0.12 0 0.28 0.12 0 0.32 0.12 0 0.36 0.12 0 0.4 0.12 0 0.44 0.12 0 0.48 0.12 0 0.52 0.12 0 0.56 0.12 0 0.6 0.12 0 0.64 0.12 0 0.68 0.12 0 0.72 0.12 0 0.76 0.12 0 0.8 0.12 0 0.84 0.12 0 0.88 0.12 0 0.92 0.12 0 0.96 0.12 0 1 0.12 0 1.04 0.12 0 1.08 0.12 0 1.12 0.12 0 1.16 0.12 0 1.2 0.12 0 0 0.16 0 0.04 0.16 0 0.08 0.16 0 0.12 0.16 0 0.16 0.16 0 0.2 0.16 0 0.24 0.16 0 0.28 0.16 0 0.32 0.16 0 0.36 0.16 0 0.4 0.16 0 0.44 0.16 0 0.48 0.16 0 0.52 0.16 0 0.56 0.16 0 0.6 0.16 0 0.64 0.16 0 0.68 0.16 0 0.72 0.16 0 0.76 0.16 0 0.8 0.16 0 0.84 0.16 0 0.88 0.16 0 0.92 0.16 0 0.96 0.16 0 1 0.16 0 1.04 0.16 0 1.08 0.16 0 1.12 0.16 0 1.16 0.16 0 1.2 0.16 0 0 0.2 0 0.04 0.2 0 0.08 0.2 0 0.12 0.2 0 0.16 0.2 0 0.2 0.2 0 0.24 0.2 0 0.28 0.2 0 0.32 0.2 0 0.36 0.2 0 0.4 0.2 0 0.44 0.2 0 0.48 0.2 0 0.52 0.2 0 0.56 0.2 0 0.6 0.2 0 0.64 0.2 0 0.68 0.2 0 0.72 0.2 0 0.76 0.2 0 0.8 0.2 0 0.84 0.2 0 0.88 0.2 0 0.92 0.2 0 0.96 0.2 0 1 0.2 0 1.04 0.2 0 1.08 0.2 0 1.12 0.2 0 1.16 0.2 0 1.2 0.2 0 0 0.24 0 0.04 0.24 0 0.08 0.24 0 0.12 0.24 0 0.16 0.24 0 0.2 0.24 0 0.24 0.24 0 0.28 0.24 0 0.32 0.24 0 0.36 0.24 0 0.4 0.24 0 0.44 0.24 0 0.48 0.24 0 0.52 0.24 0 0.56 0.24 0 0.6 0.24 0 0.64 0.24 0 0.68 0.24 0 0.72 0.24 0 0.76 0.24 0 0.8 0.24 0 0.84 0.24 0 0.88 0.24 0 0.92 0.24 0 0.96 0.24 0 1 0.24 0 1.04 0.24 0 1.08 0.24 0 1.12 0.24 0 1.16 0.24 0 1.2 0.24 0 0 0.28 0 0.04 0.28 0 0.08 0.28 0 0.12 0.28 0 0.16 0.28 0 0.2 0.28 0 0.24 0.28 0 0.28 0.28 0 0.32 0.28 0 0.36 0.28 0 0.4 0.28 0 0.44 0.28 0 0.48 0.28 0 0.52 0.28 0 0.56 0.28 0 0.6 0.28 0 0.64 0.28 0 0.68 0.28 0 0.72 0.28 0 0.76 0.28 0 0.8 0.28 0 0.84 0.28 0 0.88 0.28 0 0.92 0.28 0 0.96 0.28 0 1 0.28 0 1.04 0.28 0 1.08 0.28 0 1.12 0.28 0 1.16 0.28 0 1.2 0.28 0 0 0.32 0 0.04 0.32 0 0.08 0.32 0 0.12 0.32 0 0.16 0.32 0 0.2 0.32 0 0.24 0.32 0 0.28 0.32 0 0.32 0.32 0 0.36 0.32 0 0.4 0.32 0 0.44 0.32 0 0.48 0.32 0 0.52 0.32 0 0.56 0.32 0 0.6 0.32 0 0.64 0.32 0 0.68 0.32 0 0.72 0.32 0 0.76 0.32 0 0.8 0.32 0 0.84 0.32 0 0.88 0.32 0 0.92 0.32 0 0.96 0.32 0 1 0.32 0 1.04 0.32 0 1.08 0.32 0 1.12 0.32 0 1.16 0.32 0 1.2 0.32 0 0 0.36 0 0.04 0.36 0 0.08 0.36 0 0.12 0.36 0 0.16 0.36 0 0.2 0.36 0 0.24 0.36 0 0.28 0.36 0 0.32 0.36 0 0.36 0.36 0 0.4 0.36 0 0.44 0.36 0 0.48 0.36 0 0.52 0.36 0 0.56 0.36 0 0.6 0.36 0 0.64 0.36 0 0.68 0.36 0 0.72 0.36 0 0.76 0.36 0 0.8 0.36 0 0.84 0.36 0 0.88 0.36 0 0.92 0.36 0 0.96 0.36 0 1 0.36 0 1.04 0.36 0 1.08 0.36 0 1.12 0.36 0 1.16 0.36 0 1.2 0.36 0 0 0.4 0 0.04 0.4 0 0.08 0.4 0 0.12 0.4 0 0.16 0.4 0 0.2 0.4 0 0.24 0.4 0 0.28 0.4 0 0.32 0.4 0 0.36 0.4 0 0.4 0.4 0 0.44 0.4 0 0.48 0.4 0 0.52 0.4 0 0.56 0.4 0 0.6 0.4 0 0.64 0.4 0 0.68 0.4 0 0.72 0.4 0 0.76 0.4 0 0.8 0.4 0 0.84 0.4 0 0.88 0.4 0 0.92 0.4 0 0.96 0.4 0 1 0.4 0 1.04 0.4 0 1.08 0.4 0 1.12 0.4 0 1.16 0.4 0 1.2 0.4 0 0 0.44 0 0.04 0.44 0 0.08 0.44 0 0.12 0.44 0 0.16 0.44 0 0.2 0.44 0 0.24 0.44 0 0.28 0.44 0 0.32 0.44 0 0.36 0.44 0 0.4 0.44 0 0.44 0.44 0 0.48 0.44 0 0.52 0.44 0 0.56 0.44 0 0.6 0.44 0 0.64 0.44 0 0.68 0.44 0 0.72 0.44 0 0.76 0.44 0 0.8 0.44 0 0.84 0.44 0 0.88 0.44 0 0.92 0.44 0 0.96 0.44 0 1 0.44 0 1.04 0.44 0 1.08 0.44 0 1.12 0.44 0 1.16 0.44 0 1.2 0.44 0 0 0.48 0 0.04 0.48 0 0.08 0.48 0 0.12 0.48 0 0.16 0.48 0 0.2 0.48 0 0.24 0.48 0 0.28 0.48 0 0.32 0.48 0 0.36 0.48 0 0.4 0.48 0 0.44 0.48 0 0.48 0.48 0 0.52 0.48 0 0.56 0.48 0 0.6 0.48 0 0.64 0.48 0 0.68 0.48 0 0.72 0.48 0 0.76 0.48 0 0.8 0.48 0 0.84 0.48 0 0.88 0.48 0 0.92 0.48 0 0.96 0.48 0 1 0.48 0 1.04 0.48 0 1.08 0.48 0 1.12 0.48 0 1.16 0.48 0 1.2 0.48 0 0 0.52 0 0.04 0.52 0 0.08 0.52 0 0.12 0.52 0 0.16 0.52 0 0.2 0.52 0 0.24 0.52 0 0.28 0.52 0 0.32 0.52 0 0.36 0.52 0 0.4 0.52 0 0.44 0.52 0 0.48 0.52 0 0.52 0.52 0 0.56 0.52 0 0.6 0.52 0 0.64 0.52 0 0.68 0.52 0 0.72 0.52 0 0.76 0.52 0 0.8 0.52 0 0.84 0.52 0 0.88 0.52 0 0.92 0.52 0 0.96 0.52 0 1 0.52 0 1.04 0.52 0 1.08 0.52 0 1.12 0.52 0 1.16 0.52 0 1.2 0.52 0 0 0.56 0 0.04 0.56 0 0.08 0.56 0 0.12 0.56 0 0.16 0.56 0 0.2 0.56 0 0.24 0.56 0 0.28 0.56 0 0.32 0.56 0 0.36 0.56 0 0.4 0.56 0 0.44 0.56 0 0.48 0.56 0 0.52 0.56 0 0.56 0.56 0 0.6 0.56 0 0.64 0.56 0 0.68 0.56 0 0.72 0.56 0 0.76 0.56 0 0.8 0.56 0 0.84 0.56 0 0.88 0.56 0 0.92 0.56 0 0.96 0.56 0 1 0.56 0 1.04 0.56 0 1.08 0.56 0 1.12 0.56 0 1.16 0.56 0 1.2 0.56 0 0 0.6 0 0.04 0.6 0 0.08 0.6 0 0.12 0.6 0 0.16 0.6 0 0.2 0.6 0 0.24 0.6 0 0.28 0.6 0 0.32 0.6 0 0.36 0.6 0 0.4 0.6 0 0.44 0.6 0 0.48 0.6 0 0.52 0.6 0 0.56 0.6 0 0.6 0.6 0 0.64 0.6 0 0.68 0.6 0 0.72 0.6 0 0.76 0.6 0 0.8 0.6 0 0.84 0.6 0 0.88 0.6 0 0.92 0.6 0 0.96 0.6 0 1 0.6 0 1.04 0.6 0 1.08 0.6 0 1.12 0.6 0 1.16 0.6 0 1.2 0.6 0 0 0.64 0 0.04 0.64 0 0.08 0.64 0 0.12 0.64 0 0.16 0.64 0 0.2 0.64 0 0.24 0.64 0 0.28 0.64 0 0.32 0.64 0 0.36 0.64 0 0.4 0.64 0 0.44 0.64 0 0.48 0.64 0 0.52 0.64 0 0.56 0.64 0 0.6 0.64 0 0.64 0.64 0 0.68 0.64 0 0.72 0.64 0 0.76 0.64 0 0.8 0.64 0 0.84 0.64 0 0.88 0.64 0 0.92 0.64 0 0.96 0.64 0 1 0.64 0 1.04 0.64 0 1.08 0.64 0 1.12 0.64 0 1.16 0.64 0 1.2 0.64 0 0 0.68 0 0.04 0.68 0 0.08 0.68 0 0.12 0.68 0 0.16 0.68 0 0.2 0.68 0 0.24 0.68 0 0.28 0.68 0 0.32 0.68 0 0.36 0.68 0 0.4 0.68 0 0.44 0.68 0 0.48 0.68 0 0.52 0.68 0 0.56 0.68 0 0.6 0.68 0 0.64 0.68 0 0.68 0.68 0 0.72 0.68 0 0.76 0.68 0 0.8 0.68 0 0.84 0.68 0 0.88 0.68 0 0.92 0.68 0 0.96 0.68 0 1 0.68 0 1.04 0.68 0 1.08 0.68 0 1.12 0.68 0 1.16 0.68 0 1.2 0.68 0 0 0.72 0 0.04 0.72 0 0.08 0.72 0 0.12 0.72 0 0.16 0.72 0 0.2 0.72 0 0.24 0.72 0 0.28 0.72 0 0.32 0.72 0 0.36 0.72 0 0.4 0.72 0 0.44 0.72 0 0.48 0.72 0 0.52 0.72 0 0.56 0.72 0 0.6 0.72 0 0.64 0.72 0 0.68 0.72 0 0.72 0.72 0 0.76 0.72 0 0.8 0.72 0 0.84 0.72 0 0.88 0.72 0 0.92 0.72 0 0.96 0.72 0 1 0.72 0 1.04 0.72 0 1.08 0.72 0 1.12 0.72 0 1.16 0.72 0 1.2 0.72 0 0 0.76 0 0.04 0.76 0 0.08 0.76 0 0.12 0.76 0 0.16 0.76 0 0.2 0.76 0 0.24 0.76 0 0.28 0.76 0 0.32 0.76 0 0.36 0.76 0 0.4 0.76 0 0.44 0.76 0 0.48 0.76 0 0.52 0.76 0 0.56 0.76 0 0.6 0.76 0 0.64 0.76 0 0.68 0.76 0 0.72 0.76 0 0.76 0.76 0 0.8 0.76 0 0.84 0.76 0 0.88 0.76 0 0.92 0.76 0 0.96 0.76 0 1 0.76 0 1.04 0.76 0 1.08 0.76 0 1.12 0.76 0 1.16 0.76 0 1.2 0.76 0 0 0.8 0 0.04 0.8 0 0.08 0.8 0 0.12 0.8 0 0.16 0.8 0 0.2 0.8 0 0.24 0.8 0 0.28 0.8 0 0.32 0.8 0 0.36 0.8 0 0.4 0.8 0 0.44 0.8 0 0.48 0.8 0 0.52 0.8 0 0.56 0.8 0 0.6 0.8 0 0.64 0.8 0 0.68 0.8 0 0.72 0.8 0 0.76 0.8 0 0.8 0.8 0 0.84 0.8 0 0.88 0.8 0 0.92 0.8 0 0.96 0.8 0 1 0.8 0 1.04 0.8 0 1.08 0.8 0 1.12 0.8 0 1.16 0.8 0 1.2 0.8 0 0 0.84 0 0.04 0.84 0 0.08 0.84 0 0.12 0.84 0 0.16 0.84 0 0.2 0.84 0 0.24 0.84 0 0.28 0.84 0 0.32 0.84 0 0.36 0.84 0 0.4 0.84 0 0.44 0.84 0 0.48 0.84 0 0.52 0.84 0 0.56 0.84 0 0.6 0.84 0 0.64 0.84 0 0.68 0.84 0 0.72 0.84 0 0.76 0.84 0 0.8 0.84 0 0.84 0.84 0 0.88 0.84 0 0.92 0.84 0 0.96 0.84 0 1 0.84 0 1.04 0.84 0 1.08 0.84 0 1.12 0.84 0 1.16 0.84 0 1.2 0.84 0 0 0.88 0 0.04 0.88 0 0.08 0.88 0 0.12 0.88 0 0.16 0.88 0 0.2 0.88 0 0.24 0.88 0 0.28 0.88 0 0.32 0.88 0 0.36 0.88 0 0.4 0.88 0 0.44 0.88 0 0.48 0.88 0 0.52 0.88 0 0.56 0.88 0 0.6 0.88 0 0.64 0.88 0 0.68 0.88 0 0.72 0.88 0 0.76 0.88 0 0.8 0.88 0 0.84 0.88 0 0.88 0.88 0 0.92 0.88 0 0.96 0.88 0 1 0.88 0 1.04 0.88 0 1.08 0.88 0 1.12 0.88 0 1.16 0.88 0 1.2 0.88 0 0 0.92 0 0.04 0.92 0 0.08 0.92 0 0.12 0.92 0 0.16 0.92 0 0.2 0.92 0 0.24 0.92 0 0.28 0.92 0 0.32 0.92 0 0.36 0.92 0 0.4 0.92 0 0.44 0.92 0 0.48 0.92 0 0.52 0.92 0 0.56 0.92 0 0.6 0.92 0 0.64 0.92 0 0.68 0.92 0 0.72 0.92 0 0.76 0.92 0 0.8 0.92 0 0.84 0.92 0 0.88 0.92 0 0.92 0.92 0 0.96 0.92 0 1 0.92 0 1.04 0.92 0 1.08 0.92 0 1.12 0.92 0 1.16 0.92 0 1.2 0.92 0 0 0.96 0 0.04 0.96 0 0.08 0.96 0 0.12 0.96 0 0.16 0.96 0 0.2 0.96 0 0.24 0.96 0 0.28 0.96 0 0.32 0.96 0 0.36 0.96 0 0.4 0.96 0 0.44 0.96 0 0.48 0.96 0 0.52 0.96 0 0.56 0.96 0 0.6 0.96 0 0.64 0.96 0 0.68 0.96 0 0.72 0.96 0 0.76 0.96 0 0.8 0.96 0 0.84 0.96 0 0.88 0.96 0 0.92 0.96 0 0.96 0.96 0 1 0.96 0 1.04 0.96 0 1.08 0.96 0 1.12 0.96 0 1.16 0.96 0 1.2 0.96 0 0 1 0 0.04 1 0 0.08 1 0 0.12 1 0 0.16 1 0 0.2 1 0 0.24 1 0 0.28 1 0 0.32 1 0 0.36 1 0 0.4 1 0 0.44 1 0 0.48 1 0 0.52 1 0 0.56 1 0 0.6 1 0 0.64 1 0 0.68 1 0 0.72 1 0 0.76 1 0 0.8 1 0 0.84 1 0 0.88 1 0 0.92 1 0 0.96 1 0 1 1 0 1.04 1 0 1.08 1 0 1.12 1 0 1.16 1 0 1.2 1 0 0 1.04 0 0.04 1.04 0 0.08 1.04 0 0.12 1.04 0 0.16 1.04 0 0.2 1.04 0 0.24 1.04 0 0.28 1.04 0 0.32 1.04 0 0.36 1.04 0 0.4 1.04 0 0.44 1.04 0 0.48 1.04 0 0.52 1.04 0 0.56 1.04 0 0.6 1.04 0 0.64 1.04 0 0.68 1.04 0 0.72 1.04 0 0.76 1.04 0 0.8 1.04 0 0.84 1.04 0 0.88 1.04 0 0.92 1.04 0 0.96 1.04 0 1 1.04 0 1.04 1.04 0 1.08 1.04 0 1.12 1.04 0 1.16 1.04 0 1.2 1.04 0 0 1.08 0 0.04 1.08 0 0.08 1.08 0 0.12 1.08 0 0.16 1.08 0 0.2 1.08 0 0.24 1.08 0 0.28 1.08 0 0.32 1.08 0 0.36 1.08 0 0.4 1.08 0 0.44 1.08 0 0.48 1.08 0 0.52 1.08 0 0.56 1.08 0 0.6 1.08 0 0.64 1.08 0 0.68 1.08 0 0.72 1.08 0 0.76 1.08 0 0.8 1.08 0 0.84 1.08 0 0.88 1.08 0 0.92 1.08 0 0.96 1.08 0 1 1.08 0 1.04 1.08 0 1.08 1.08 0 1.12 1.08 0 1.16 1.08 0 1.2 1.08 0 0 1.12 0 
[...]
			<CellData Scalars="Density">
				<DataArray Name="Density" type="Float32" format="ascii">
 0.00324319 0.00328435 0.003381 0.00356548 0.00387062 0.00432908 0.00497381 0.00583957 0.00697593 0.00845688 0.0103977 0.0129649 0.0163769 0.0209121 0.0269287 0.034923 0.0456814 0.0605109 0.0818335 0.113286 0.161267 0.235981 0.352202 0.528749 0.785292 1.14235 1.64154 2.33199 2.96279 3.30354 0.00328441 0.00331802 0.0034022 0.00357034 0.00385803 0.00430009 0.00493016 0.00578463 0.00691515 0.00840669 0.0103861 0.0130312 0.0165717 0.0212935 0.0275629 0.0359029 0.0470984 0.062416 0.0841957 0.115936 0.163538 0.237139 0.351763 0.527917 0.788016 1.15003 1.65237 2.34882 2.98208 3.30991 0.00338118 0.00340232 0.00346036 0.00359064 0.00382346 0.00419063 0.00473584 0.00550043 0.00653541 0.00792027 0.00976798 0.0122402 0.0155518 0.0199851 0.0259148 0.033854 0.0445441 0.0591486 0.0798841 0.110538 0.15672 0.229086 0.342232 0.515671 0.770924 1.13092 1.63429 2.34531 3.02558 3.39672 0.00356576 0.0035706 0.00359062 0.00367195 0.00385247 0.00415667 0.00460398 0.00523182 0.00609807 0.00728629 0.00892134 0.0111525 0.0141938 0.018351 0.0240206 0.0317173 0.0422453 0.0568881 0.0777318 0.108348 0.153655 0.223596 0.332621 0.501418 0.752867 1.11026 1.61445 2.33395 3.0238 3.39158 0.00387094 0.00385811 0.00382333 0.0038522 0.00397344 0.0042202 0.00462477 0.00521691 0.00603475 0.00716234 0.00873266 0.0108965 0.013881 0.0179899 0.0236608 0.0315148 0.0424053 0.0575186 0.0789335 0.110122 0.155855 0.225599 0.332812 0.497322 0.742547 1.09362 1.59316 2.30944 3.00186 3.37924 0.00432923 0.00429988 0.00418981 0.00415602 0.00421962 0.00440271 0.00474661 0.00528495 0.00606443 0.0071611 0.0086859 0.010799 0.0137364 0.01785 0.0236017 0.0315372 0.0425702 0.058075 0.0800787 0.111742 0.157493 0.22582 0.329684 0.488576 0.726576 1.07056 1.56448 2.27894 2.963 3.32078 0.00497366 0.00492946 0.00473424 0.00460232 0.00462351 0.00474575 0.00503255 0.00552512 0.00626578 0.00732356 0.00880498 0.0108807 0.0137918 0.0178931 0.0236611 0.0318146 0.0433111 0.0594482 0.0820786 0.114004 0.159925 0.22764 0.329863 0.484832 0.714785 1.04487 1.5199 2.20959 2.8856 3.25206 0.00583897 0.00578325 0.00549781 0.00522899 0.00521445 0.00528305 0.00552406 0.00597963 0.00669398 0.00773684 0.00921561 0.0112945 0.0142083 0.018327 0.0241894 0.0325644 0.0444286 0.0611729 0.0845799 0.117263 0.163317 0.229747 0.328222 0.476234 0.697092 1.01435 1.47482 2.15697 2.84522 3.2128 0.0069745 0.0069126 0.00653142 0.0060939 0.00603111 0.00606121 0.00626347 0.00669192 0.00739079 0.00843596 0.00992896 0.0120309 0.0149899 0.0191562 0.0250368 0.0334093 0.0454309 0.0625432 0.086445 0.120111 0.167515 0.234156 0.330048 0.472133 0.684762 0.991885 1.4414 2.12907 2.86058 3.26135 0.00845414 0.00840225 0.00791454 0.00728029 0.00715661 0.00715657 0.00731919 0.00773359 0.00843373 0.00949755 0.011033 0.0132029 0.0162296 0.020454 0.0263893 0.0347249 0.0466442 0.0637017 0.0880424 0.122343 0.169478 0.235811 0.330623 0.468754 0.673542 0.973932 1.42274 2.13231 2.94325 3.41187 0.0103928 0.010379 0.0097603 0.00891347 0.00872519 0.00867995 0.00879915 0.00920987 0.00992488 0.0110302 0.0126299 0.014895 0.0180663 0.0224586 0.0284786 0.0367932 0.048608 0.0652481 0.0895975 0.124237 0.173053 0.240941 0.335036 0.469542 0.668821 0.964546 1.41464 2.14853 3.09024 3.68098 0.0129574 0.0130211 0.0122302 0.011143 0.010889 0.0107878 0.0108746 0.0112872 0.0120263 0.013196 0.0148914 0.0173244 0.0207173 0.0253455 0.0316296 0.0402588 0.0520067 0.068289 0.0919394 0.125837 0.175809 0.245353 0.341139 0.475375 0.67059 0.962399 1.41105 2.16926 3.27414 4.04273 0.0163665 0.0165589 0.0155394 0.0141845 0.0138699 0.0137252 0.013785 0.0141946 0.0149833 0.0162177 0.0180586 0.0207026 0.0244113 0.0294922 0.036338 0.0453966 0.0573408 0.0738874 0.0966688 0.129294 0.177716 0.247966 0.349933 0.488998 0.683714 0.97437 1.42591 2.21021 3.47341 4.4504 0.0208997 0.0212783 0.0199722 0.0183418 0.0179757 0.0178423 0.0178733 0.0183153 0.0191383 0.0204494 0.0224371 0.0253164 0.0294789 0.0351894 0.0427894 0.0527268 0.065677 0.0825061 0.104516 0.1362 0.181628 0.250244 0.352087 0.500434 0.71094 1.01145 1.47354 2.27558 3.68182 4.90592 0.0269159 0.027546 0.0259031 0.0240112 0.0236496 0.0235891 0.0236434 0.0241857 0.024999 0.0263671 0.028421 0.0316124 0.0362902 0.042742 0.0513899 0.062632 0.0769471 0.0949621 0.117943 0.147973 0.189081 0.253017 0.350458 0.503657 0.729966 1.06388 1.56161 2.38199 3.89945 5.40209 0.0349116 0.0358868 0.0338453 0.0317114 0.0315068 0.0315284 0.0318043 0.0325337 0.0333686 0.0347215 0.0367698 0.0401982 0.0452671 0.052639 0.0625678 0.075344 0.0914808 0.111545 0.136275 0.166649 0.206082 0.261472 0.346949 0.49051 0.724712 1.09131 1.65023 2.52857 4.12223 5.92423 0.0456734 0.0470879 0.0445391 0.0422454 0.0424022 0.0425787 0.0432988 0.0444103 0.0454323 0.0466084 0.0485325 0.0518835 0.0572201 0.0655303 0.0767806 0.0913839 0.109609 0.132055 0.159365 0.192273 0.232672 0.283754 0.356919 0.478392 0.692677 1.07389 1.68098 2.643 4.32843 6.48483 0.0605095 0.0624135 0.0591518 0.0568979 0.0575257 0.0580956 0.0594282 0.0612059 0.0625028 0.0636142 0.0651958 0.0680986 0.073668 0.0822324 0.094737 0.111364 0.131944 0.157209 0.187649 0.223537 0.266524 0.319337 0.388065 0.486686 0.661591 1.00785 1.65819 2.70711 4.49019 7.1055 0.0818423 0.0842026 0.0799019 0.0777493 0.0789536 0.0800996 0.0820981 0.0846675 0.0864434 0.0880849 0.0895292 0.0917762 0.096518 0.104237 0.117644 0.135939 0.159139 0.187535 0.222023 0.262058 0.309064 0.365242 0.434633 0.527423 0.671793 0.943504 1.53643 2.65653 4.50749 7.73246 0.113311 0.115961 0.110571 0.10837 0.110156 0.111763 0.114091 0.117309 0.120262 0.122369 0.124168 0.125751 0.128966 0.135856 0.147638 0.166295 0.192025 0.223356 0.26197 0.307296 0.360166 0.422425 0.497717 0.592208 0.724296 0.94773 1.42302 2.50866 4.49062 8.36625 0.161316 0.163585 0.156775 0.153684 0.155903 0.157528 0.160018 0.163361 0.167818 0.169467 0.173159 0.175695 0.177539 0.181463 0.18866 0.205761 0.232376 0.266303 0.308955 0.360143 0.420124 0.490601 0.575852 0.680866 0.817472 1.0198 1.40958 2.3349 4.44824 8.83605 0.236067 0.237221 0.229177 0.223644 0.225664 0.225873 0.227731 0.229784 0.234365 0.235916 0.241174 0.245378 0.24823 0.249961 0.252741 0.26137 0.283492 0.319175 0.365173 0.422434 0.490633 0.571698 0.669696 0.791103 0.947057 1.15882 1.50702 2.30048 4.43735 8.9625 0.352342 0.3519 0.342368 0.332705 0.332906 0.329743 0.329967 0.328227 0.330186 0.33088 0.335063 0.341425 0.35004 0.351893 0.350571 0.346598 0.356775 0.388025 0.434604 0.497812 0.575966 0.669805 0.785117 0.928303 1.11447 1.36633 1.74077 2.49382 4.43924 8.70094 0.528963 0.528131 0.515876 0.501557 0.497472 0.488673 0.484987 0.476251 0.472249 0.468855 0.469528 0.475735 0.488905 0.501196 0.50345 0.490778 0.478602 0.486618 0.527475 0.592404 0.681079 0.791287 0.928446 1.10332 1.3328 1.64301 2.11209 2.97618 4.42873 7.90128 0.785591 0.788324 0.771215 0.753089 0.742789 0.726755 0.715018 0.697184 0.684976 0.673601 0.668856 0.670794 0.683879 0.711393 0.729501 0.725694 0.692283 0.662124 0.672036 0.724487 0.817729 0.947364 1.11468 1.33298 1.62485 2.04018 2.71208 3.69588 4.35056 6.4577 1.14272 1.15042 1.1313 1.11057 1.09396 1.07085 1.04519 1.01452 0.99217 0.973967 0.964546 0.962483 0.974326 1.01123 1.06345 1.0913 1.07389 1.00892 0.943266 0.948072 1.02013 1.15918 1.36666 1.64322 2.04039 2.6633 3.52822 4.16583 4.17707 4.41219 1.64197 1.65281 1.63475 1.61485 1.59361 1.56488 1.52032 1.4751 1.4417 1.42284 1.41464 1.41119 1.42572 1.47325 1.56124 1.65038 1.68184 1.65796 1.53642 1.42345 1.40979 1.50733 1.74114 2.11248 2.7123 3.52853 4.00492 4.2376 3.69649 2.41719 2.33246 2.34933 2.34585 2.33446 2.31003 2.2795 2.21015 2.15741 2.12939 2.13245 2.14856 2.16928 2.20977 2.275 2.38117 2.52786 2.64304 2.70685 2.65726 2.50936 2.33527 2.30077 2.49412 2.97669 3.69622 4.1658 4.23781 3.87442 2.30701 1.36788 2.96329 2.98263 3.02619 3.02449 3.00265 2.96381 2.88636 2.84591 2.86102 2.94338 3.08998 3.27359 3.47252 3.68082 3.89848 4.1214 4.32822 4.49034 4.50814 4.49119 4.44841 4.43744 4.43949 4.42895 4.35066 4.17746 3.69622 2.30717 1.29659 1.07603 3.30406 3.31047 3.39735 3.39242 3.38016 3.32174 3.25298 3.21366 3.26194 3.41197 3.68056 4.04159 4.44918 4.90466 5.40116 5.92395 6.48513 7.10642 7.73361 8.36709 8.83648 8.96272 8.70115 7.90132 6.45743 4.41247 2.41696 1.36792 1.07602 1.01381
				</DataArray>
				<DataArray Name="Energy" type="Float32" format="ascii">
 764.992 755.595 734.476 697.387 643.554 576.96 504.365 432.543 366.279 307.941 258.037 215.929 180.446 150.325 124.478 102.1 82.6399 65.7888 51.2953 38.9133 28.6546 20.5288 14.4505 10.1379 7.19917 5.25746 3.97105 3.06558 2.60073 2.39962 755.576 747.628 729.527 695.885 645.031 580.207 507.984 435.426 367.764 307.789 256.206 212.627 176.055 145.299 119.283 97.1855 78.332 62.2665 48.6792 37.1553 27.5849 19.9169 14.0599 9.84086 6.95666 5.0526 3.82007 2.98119 2.55032 2.35919 734.429 729.495 717.886 692.576 651.567 596.226 529.977 459.317 390.497 327.894 273.266 226.799 187.637 154.655 126.797 103.22 83.2415 66.2324 51.7507 39.4175 29.1093 20.9125 14.7316 10.3026 7.25301 5.24541 3.93089 3.01667 2.54512 2.34554 697.317 695.84 692.559 677.977 647.232 601.355 545.102 482.327 417.175 354.232 296.79 246.086 202.304 165.076 133.753 107.59 85.7693 67.5038 52.3142 39.6602 29.2911 21.1163 14.899 10.3979 7.28823 5.23695 3.91066 3.00017 2.52891 2.32583 643.49 644.997 651.595 647.255 628.523 593.019 543.296 484.662 422.43 360.797 303.054 250.936 205.517 166.922 134.58 107.542 85.0969 66.6227 51.4683 39.1221 29.1197 21.2329 15.1748 10.6957 7.53196 5.40518 4.0117 3.05455 2.56134 2.3534 576.913 580.216 596.307 601.455 593.074 569.512 529.722 477.755 419.242 359.432 302.26 250.163 204.42 165.324 132.47 105.222 82.8834 64.7152 50.0597 38.2218 28.6609 21.085 15.2193 10.8331 7.68127 5.521 4.08986 3.10546 2.60003 2.3825 504.341 508.033 530.131 545.27 543.433 529.798 500.405 457.399 405.823 350.633 296.201 245.683 200.794 162.121 129.51 102.586 80.7082 63.0746 48.945 37.6139 28.5325 21.2963 15.5607 11.1695 7.9698 5.74978 4.25555 3.22094 2.6791 2.44827 432.536 435.497 459.509 482.556 484.855 477.906 457.478 423.194 379.501 330.661 281.097 233.984 191.481 154.666 123.7 98.0953 77.1652 60.3434 46.986 36.4162 27.9996 21.2278 15.7932 11.529 8.31471 6.02139 4.43957 3.33339 2.7389 2.48523 366.281 367.84 390.677 417.424 422.648 419.433 405.962 379.569 344.067 302.664 259.24 216.96 178.316 144.556 116.028 92.5258 73.4314 57.9926 45.5559 35.6585 27.7161 21.2969 16.0631 11.869 8.64195 6.29281 4.62258 3.42907 2.76468 2.49229 307.95 307.868 328.036 354.447 360.987 359.622 350.768 330.781 302.705 268.867 232.301 195.826 161.75 131.69 106.327 85.4689 68.5431 54.8625 43.7811 34.7028 27.2924 21.2856 16.3174 12.2558 9.02896 6.5946 4.81238 3.51511 2.77535 2.47622 258.052 256.283 273.372 296.954 303.21 302.425 296.308 281.21 259.317 232.319 202.565 172.097 143.191 117.288 95.063 76.7821 62.2077 50.4905 41.0306 33.1908 26.6367 21.109 16.4594 12.5664 9.37473 6.88563 5.00698 3.61504 2.77087 2.43952 215.95 212.699 226.877 246.203 251.057 250.262 245.786 234.071 217.048 195.854 172.146 147.532 123.596 101.697 82.8332 67.3053 54.6961 44.7005 36.8988 30.5453 25.2213 20.4964 16.3738 12.7906 9.70147 7.19069 5.23627 3.74453 2.77753 2.40988 180.471 176.122 187.69 202.386 205.588 204.496 200.884 191.525 178.419 161.779 143.281 123.63 104.255 86.3634 70.6825 57.484 46.7558 38.4262 31.9082 26.8057 22.7121 19.1689 15.8297 12.7105 9.90953 7.4668 5.4706 3.89682 2.80908 2.39882 150.35 145.356 154.694 165.125 166.966 165.38 162.15 154.756 144.602 131.763 117.341 101.792 86.4347 71.9642 59.1815 48.3411 39.5035 32.3935 26.7887 22.6024 19.4348 16.8998 14.6038 12.2481 9.85568 7.64088 5.6723 4.05641 2.86906 2.40545 124.5 119.326 126.819 133.774 134.606 132.495 129.538 123.781 116.056 106.41 95.0739 83.0016 70.7686 59.2305 48.955 40.2082 32.9676 27.1243 22.5156 18.883 16.0817 14.0683 12.5657 11.1439 9.441 7.57112 5.78862 4.19942 2.94976 2.41959 102.116 97.215 103.23 107.594 107.547 105.232 102.605 98.1278 92.5633 85.5337 76.881 67.4234 57.5689 48.4384 40.2499 33.231 27.4154 22.6874 18.8885 15.8489 13.4807 11.6564 10.2986 9.38651 8.50561 7.25322 5.73468 4.30439 3.05463 2.43867 82.6515 78.3505 83.2442 85.7651 85.0899 82.8923 80.6947 77.1831 73.4639 68.5642 62.293 54.7492 46.8853 39.5977 33.0286 27.4435 22.7892 18.9843 15.9052 13.4205 11.4189 9.80706 8.56925 7.67501 7.09843 6.54101 5.53814 4.32144 3.16301 2.45765 65.7954 62.2765 66.233 67.4994 66.6133 64.7134 63.039 60.3369 57.9932 54.8568 50.5451 44.7502 38.5479 32.4651 27.2013 22.7277 19.0005 15.9547 13.468 11.4299 9.76376 8.40575 7.30377 6.41685 5.79514 5.47413 5.07653 4.23982 3.24317 2.47415 51.2986 48.6833 51.7497 52.3103 51.4622 50.0459 48.9255 46.9598 45.5575 43.7678 41.0424 36.9637 31.9648 26.8548 22.582 18.9248 15.9276 13.4763 11.4697 9.80816 8.42979 7.2819 6.32092 5.53255 4.9056 4.48677 4.31436 3.96147 3.24097 2.47602 38.9147 37.1568 39.4173 39.6605 39.1209 38.216 37.5988 36.3913 35.646 34.6605 33.19 30.5862 26.8137 22.6811 18.9212 15.8819 13.4425 11.4397 9.81127 8.45772 7.32008 6.35596 5.53772 4.84139 4.25892 3.80308 3.55417 3.45868 3.14885 2.4509 28.655 27.5852 29.1092 29.2934 29.1209 28.6619 28.5265 27.9846 27.694 27.2744 26.6191 25.2185 22.7284 19.4596 16.0938 13.5101 11.4312 9.77199 8.43306 7.32082 6.38134 5.57418 4.87662 4.27088 3.75207 3.32043 2.99526 2.87118 2.89807 2.37149 20.5289 19.9168 20.9124 21.1189 21.2352 21.0883 21.2967 21.2237 21.2897 21.2808 21.0733 20.505 19.169 16.8859 14.0972 11.6645 9.81195 8.41109 7.28338 6.356 5.57375 4.89792 4.30504 3.78217 3.32027 2.92479 2.60655 2.39578 2.51047 2.21407 14.4506 14.0599 14.7316 14.9007 15.1766 15.2221 15.563 15.794 16.0614 16.3169 16.4473 16.3782 15.8181 14.5996 12.577 10.2869 8.57867 7.30308 6.32007 5.53666 4.87551 4.3044 3.80029 3.34916 2.94551 2.58862 2.2866 2.06375 2.06813 1.93805 10.1381 9.84101 10.3027 10.3989 10.6967 10.8348 11.1713 11.5312 11.8701 12.2579 12.5643 12.7864 12.7131 12.2412 11.1399 9.38363 7.67584 6.41216 5.53154 4.83953 4.26917 3.78103 3.34862 2.96051 2.60837 2.2887 2.01515 1.7642 1.66799 1.56797 7.19954 6.95697 7.25328 7.28894 7.53258 7.68213 7.97076 8.31592 8.64338 9.03021 9.37627 9.70137 9.91446 9.84998 9.44079 8.50583 7.09282 5.79649 4.90287 4.2567 3.75036 3.31902 2.94472 2.60804 2.30199 2.02013 1.7868 1.49363 1.35509 1.11325 5.25803 5.05311 5.24587 5.23758 5.40563 5.52142 5.75022 6.02187 6.29346 6.5954 6.88695 7.19096 7.46845 7.64002 7.57168 7.25209 6.5401 5.47485 4.48274 3.80207 3.31895 2.92368 2.58786 2.28828 2.01998 1.78498 1.50038 1.28044 1.0905 0.640109 3.97168 3.82068 3.93141 3.91125 4.01213 4.09022 4.25586 4.43983 4.62291 4.81282 5.00769 5.2366 5.47188 5.6735 5.78977 5.73605 5.53855 5.07527 4.31271 3.55327 2.99417 2.60579 2.28604 2.0148 1.78659 1.50034 1.30367 1.09223 0.73096 0.229906 3.06612 2.98173 3.01713 3.00066 3.05493 3.10577 3.22122 3.33368 3.42937 3.51541 3.61544 3.74481 3.89744 4.0571 4.20008 4.30535 4.32176 4.23972 3.96131 3.45819 2.8707 2.39539 2.06343 1.76397 1.49352 1.2804 1.09224 0.728607 0.254184 0.0262969 2.60118 2.55075 2.5455 2.52928 2.56161 2.60025 2.67928 2.73908 2.76484 2.77557 2.77125 2.77796 2.80956 2.86945 2.95011 3.05485 3.16293 3.24307 3.24087 3.14867 2.89784 2.51024 2.068 1.66785 1.35507 1.09049 0.730945 0.254185 0.0247103 0.000350374 2.40002 2.35957 2.34588 2.32615 2.35361 2.38267 2.44841 2.48535 2.49243 2.47644 2.4399 2.41033 2.39923 2.40568 2.41969 2.43863 2.45751 2.47404 2.47598 2.45085 2.37149 2.21411 1.93808 1.56797 1.11326 0.640111 0.229893 0.0263081 0.000350138 3.77382e-06
				</DataArray>
				<DataArray Name="F1" type="Float32" format="ascii">
 1 1 1 1 1 1 1 1 1 1 1 1 1 1 1 1 1 1 1 1 1 1 1 1 1 1 1 1 1 1 1 1 1 1 1 1 1 1 1 1 1 1 1 1 1 1 1 1 1 1 1 1 1 1 1 1 1 1 1 1 1 1 1 1 1 1 1 1 1 1 1 1 1 1 1 1 1 1 1 1 1 1 1 1 1 1 1 1 1 1 1 1 1 1 1 1 1 1 1 1 1 1 1 1 1 1 1 1 1 1 1 1 1 1 1 1 1 1 1 1 1 1 1 1 1 1 1 1 1 1 1 1 1 1 1 1 1 1 1 1 1 1 1 1 1 1 1 1 1 1 1 1 1 1 1 1 1 1 1 1 1 1 1 1 1 1 1 1 1 1 1 1 1 1 1 1 1 1 1 1 1 1 1 1 1 1 1 1 1 1 1 1 1 1 1 1 1 1 1 1 1 1 1 1 1 1 1 1 1 1 1 1 1 1 1 1 1 1 1 1 1 1 1 1 1 1 1 1 1 1 1 1 1 1 1 1 1 1 1 1 1 1 1 1 1 1 1 1 1 1 1 1 1 1 1 1 1 1 1 1 1 1 1 1 1 1 1 1 1 1 1 1 1 1 1 1 1 1 1 1 1 1 1 1 1 1 1 1 1 1 1 1 1 1 1 1 1 1 1 1 1 1 1 1 1 1 1 1 1 1 1 1 1 1 1 1 1 1 1 1 1 1 1 1 1 1 1 1 1 1 1 1 1 1 1 1 1 1 1 1 1 1 1 1 1 1 1 1 1 1 1 1 1 1 1 1 1 1 1 1 1 1 1 1 1 1 1 1 1 1 1 1 1 1 1 1 1 1 1 1 1 1 1 1 1 1 1 1 1 1 1 1 1 1 1 1 1 1 1 1 1 1 1 1 1 1 1 1 1 1 1 1 1 1 1 1 1 1 1 1 1 1 1 1 1 1 1 1 1 1 1 1 1 1 1 1 1 1 1 1 1 1 1 1 1 1 1 1 1 1 1 1 1 1 1 1 1 1 1 1 1 1 1 1 1 1 1 1 1 1 1 1 1 1 1 1 1 1 1 1 1 1 1 1 1 1 1 1 1 1 1 1 1 1 1 1 1 1 1 1 1 1 1 1 1 1 1 1 1 1 1 1 1 1 1 1 1 1 1 1 1 1 1 1 1 1 1 1 1 1 1 1 1 1 1 1 1 1 1 1 1 1 1 1 1 1 1 1 1 1 1 1 1 1 1 1 1 1 1 1 1 1 1 1 1 1 1 1 1 1 1 1 1 1 1 1 1 1 1 1 1 1 1 1 1 1 1 1 1 1 1 1 1 1 1 1 1 1 1 1 1 1 1 1 1 1 1 1 1 1 1 1 1 1 1 1 1 1 1 1 1 1 1 1 1 1 1 1 1 1 1 1 1 1 1 1 1 1 1 1 1 1 1 1 1 1 1 1 1 1 1 1 1 1 1 1 1 1 1 1 1 1 1 1 1 1 1 1 1 1 1 1 1 1 1 1 1 1 1 1 1 1 1 1 1 1 1 1 1 1 1 1 1 1 1 1 1 1 1 1 1 1 1 1 1 1 1 1 1 1 1 1 1 1 1 1 1 1 1 1 1 1 1 1 1 1 1 1 1 1 1 1 1 1 1 1 1 1 1 1 1 1 1 1 1 1 1 1 1 1 1 1 1 1 1 1 1 1 1 1 1 1 1 1 1 1 1 1 1 1 1 1 1 1 1 1 1 1 1 1 1 1 1 1 1 1 1 1 1 1 1 1 1 1 1 1 1 1 1 1 1 1 1 1 1 1 1 1 1 1 1 1 1 1 1 1 1 1 1 1 1 1 1 1 1 1 1 1 1 1 1 1 1 1 1 1 1 1 1 1 1 1 1 1 1 1 1 1 1 1 1 1 1 1 1 1 1 1 1 1 1 1 1 1 1 1 1 1 1 1 1 1 1 1 1 1 1 1 1 1 1 1 1 1 1 1 1 1 1 1 1 1 1 1 1 1 1 1 1 1
				</DataArray>
				<DataArray Name="F2" type="Float32" format="ascii">
 0 0 0 0 0 0 0 0 0 0 0 0 0 0 0 0 0 0 0 0 0 0 0 0 0 0 0 0 0 0 0 0 0 0 0 0 0 0 0 0 0 0 0 0 0 0 0 0 0 0 0 0 0 0 0 0 0 0 0 0 0 0 0 0 0 0 0 0 0 0 0 0 0 0 0 0 0 0 0 0 0 0 0 0 0 0 0 0 0 0 0 0 0 0 0 0 0 0 0 0 0 0 0 0 0 0 0 0 0 0 0 0 0 0 0 0 0 0 0 0 0 0 0 0 0 0 0 0 0 0 0 0 0 0 0 0 0 0 0 0 0 0 0 0 0 0 0 0 0 0 0 0 0 0 0 0 0 0 0 0 0 0 0 0 0 0 0 0 0 0 0 0 0 0 0 0 0 0 0 0 0 0 0 0 0 0 0 0 0 0 0 0 0 0 0 0 0 0 0 0 0 0 0 0 0 0 0 0 0 0 0 0 0 0 0 0 0 0 0 0 0 0 0 0 0 0 0 0 0 0 0 0 0 0 0 0 0 0 0 0 0 0 0 0 0 0 0 0 0 0 0 0 0 0 0 0 0 0 0 0 0 0 0 0 0 0 0 0 0 0 0 0 0 0 0 0 0 0 0 0 0 0 0 0 0 0 0 0 0 0 0 0 0 0 0 0 0 0 0 0 0 0 0 0 0 0 0 0 0 0 0 0 0 0 0 0 0 0 0 0 0 0 0 0 0 0 0 0 0 0 0 0 0 0 0 0 0 0 0 0 0 0 0 0 0 0 0 0 0 0 0 0 0 0 0 0 0 0 0 0 0 0 0 0 0 0 0 0 0 0 0 0 0 0 0 0 0 0 0 0 0 0 0 0 0 0 0 0 0 0 0 0 0 0 0 0 0 0 0 0 0 0 0 0 0 0 0 0 0 0 0 0 0 0 0 0 0 0 0 0 0 0 0 0 0 0 0 0 0 0 0 0 0 0 0 0 0 0 0 0 0 0 0 0 0 0 0 0 0 0 0 0 0 0 0 0 0 0 0 0 0 0 0 0 0 0 0 0 0 0 0 0 0 0 0 0 0 0 0 0 0 0 0 0 0 0 0 0 0 0 0 0 0 0 0 0 0 0 0 0 0 0 0 0 0 0 0 0 0 0 0 0 0 0 0 0 0 0 0 0 0 0 0 0 0 0 0 0 0 0 0 0 0 0 0 0 0 0 0 0 0 0 0 0 0 0 0 0 0 0 0 0 0 0 0 0 0 0 0 0 0 0 0 0 0 0 0 0 0 0 0 0 0 0 0 0 0 0 0 0 0 0 0 0 0 0 0 0 0 0 0 0 0 0 0 0 0 0 0 0 0 0 0 0 0 0 0 0 0 0 0 0 0 0 0 0 0 0 0 0 0 0 0 0 0 0 0 0 0 0 0 0 0 0 0 0 0 0 0 0 0 0 0 0 0 0 0 0 0 0 0 0 0 0 0 0 0 0 0 0 0 0 0 0 0 0 0 0 0 0 0 0 0 0 0 0 0 0 0 0 0 0 0 0 0 0 0 0 0 0 0 0 0 0 0 0 0 0 0 0 0 0 0 0 0 0 0 0 0 0 0 0 0 0 0 0 0 0 0 0 0 0 0 0 0 0 0 0 0 0 0 0 0 0 0 0 0 0 0 0 0 0 0 0 0 0 0 0 0 0 0 0 0 0 0 0 0 0 0 0 0 0 0 0 0 0 0 0 0 0 0 0 0 0 0 0 0 0 0 0 0 0 0 0 0 0 0 0 0 0 0 0 0 0 0 0 0 0 0 0 0 0 0 0 0 0 0 0 0 0 0 0 0 0 0 0 0 0 0 0 0 0 0 0 0 0 0 0 0 0 0 0 0 0 0 0 0 0 0 0 0 0 0 0 0 0 0 0 0 0 0 0 0 0 0 0 0 0 0 0 0 0 0 0 0 0 0 0 0 0 0 0 0 0 0 0 0 0 0 0 0 0 0 0 0 0 0 0 0 0 0 0 0 0 0 0 0 0 0 0
				</DataArray>
				<DataArray Name="F3" type="Float32" format="ascii">