<?xml version="1.0"?>
<VTKFile type="PolyData">
	<PolyData>
		<Piece NumberOfPoints="961" NumberOfPolys="900">
			<Points>
				<DataArray type="Float32" NumberOfComponents="3" format="ascii">
 0 0 0 0.04 0 0 0.08 0 0 0.12 0 0 0.16 0 0 0.2 0 0 0.24 0 0 0.28 0 0 0.32 0 0 0.36 0 0 0.4 0 0 0.44 0 0 0.48 0 0 0.52 0 0 0.56 0 0 0.6 0 0 0.64 0 0 0.68 0 0 0.72 0 0 0.76 0 0 0.8 0 0 0.84 0 0 0.88 0 0 0.92 0 0 0.96 0 0 1 0 0 1.04 0 0 1.08 0 0 1.12 0 0 1.16 0 0 1.2 0 0 0 0.04 0 0.04 0.04 0 0.08 0.04 0 0.12 0.04 0 0.16 0.04 0 0.2 0.04 0 0.24 0.04 0 0.28 0.04 0 0.32 0.04 0 0.36 0.04 0 0.4 0.04 0 0.44 0.04 0 0.48 0.04 0 0.52 0.04 0 0.56 0.04 0 0.6 0.04 0 0.64 0.04 0 0.68 0.04 0 0.72 0.04 0 0.76 0.04 0 0.8 0.04 0 0.84 0.04 0 0.88 0.04 0 0.92 0.04 0 0.96 0.04 0 1 0.04 0 1.04 0.04 0 1.08 0.04 0 1.12 0.04 0 1.16 0.04 0 1.2 0.04 0 0 0.08 0 0.04 0.08 0 0.08 0.08 0 0.12 0.08 0 0.16 0.08 0 0.2 0.08 0 0.24 0.08 0 0.28 0.08 0 0.32 0.08 0 0.36 0.08 0 0.4 0.08 0 0.44 0.08 0 0.48 0.08 0 0.52 0.08 0 0.56 0.08 0 0.6 0.08 0 0.64 0.08 0 0.68 0.08 0 0.72 0.08 0 0.76 0.08 0 0.8 0.08 0 0.84 0.08 0 0.88 0.08 0 0.92 0.08 0 0.96 0.08 0 1 0.08 0 1.04 0.08 0 1.08 0.08 0 1.12 0.08 0 1.16 0.08 0 1.2 0.08 0 0 0.12 0 0.04 0.12 0 0.08 0.12 0 0.12 0.12 0 0.16 0.12 0 0.2 0.12 0 0.24 0.12 0 0.28 0.12 0 0.32 0.12 0 0.36 0.12 0 0.4 0.12 0 0.44 0.12 0 0.48 0.12 0 0.52 0.12 0 0.56 0.12 0 0.6 0.12 0 0.64 0.12 0 0.68 0.12 0 0.72 0.12 0 0.76 0.12 0 0.8 0.12 0 0.84 0.12 0 0.88 0.12 0 0.92 0.12 0 0.96 0.12 0 1 0.12 0 1.04 0.12 0 1.08 0.12 0 1.12 0.12 0 1.16 0.12 0 1.2 0.12 0 0 0.16 0 0.04 0.16 0 0.08 0.16 0 0.12 0.16 0 0.16 0.16 0 0.2 0.16 0 0.24 0.16 0 0.28 0.16 0 0.32 0.16 0 0.36 0.16 0 0.4 0.16 0 0.44 0.16 0 0.48 0.16 0 0.52 0.16 0 0.56 0.16 0 0.6 0.16 0 0.64 0.16 0 0.68 0.16 0 0.72 0.16 0 0.76 0.16 0 0.8 0.16 0 0.84 0.16 0 0.88 0.16 0 0.92 0.16 0 0.96 0.16 0 1 0.16 0 1.04 0.16 0 1.08 0.16 0 1.12 0.16 0 1.16 0.16 0 1.2 0.16 0 0 0.2 0 0.04 0.2 0 0.08 0.2 0 0.12 0.2 0 0.16 0.2 0 0.2 0.2 0 0.24 0.2 0 0.28 0.2 0 0.32 0.2 0 0.36 0.2 0 0.4 0.2 0 0.44 0.2 0 0.48 0.2 0 0.52 0.2 0 0.56 0.2 0 0.6 0.2 0 0.64 0.2 0 0.68 0.2 0 0.72 0.2 0 0.76 0.2 0 0.8 0.2 0 0.84 0.2 0 0.88 0.2 0 0.92 0.2 0 0.96 0.2 0 1 0.2 0 1.04 0.2 0 1.08 0.2 0 1.12 0.2 0 1.16 0.2 0 1.2 0.2 0 0 0.24 0 0.04 0.24 0 0.08 0.24 0 0.12 0.24 0 0.16 0.24 0 0.2 0.24 0 0.24 0.24 0 0.28 0.24 0 0.32 0.24 0 0.36 0.24 0 0.4 0.24 0 0.44 0.24 0 0.48 0.24 0 0.52 0.24 0 0.56 0.24 0 0.6 0.24 0 0.64 0.24 0 0.68 0.24 0 0.72 0.24 0 0.76 0.24 0 0.8 0.24 0 0.84 0.24 0 0.88 0.24 0 0.92 0.24 0 0.96 0.24 0 1 0.24 0 1.04 0.24 0 1.08 0.24 0 1.12 0.24 0 1.16 0.24 0 1.2 0.24 0 0 0.28 0 0.04 0.28 0 0.08 0.28 0 0.12 0.28 0 0.16 0.28 0 0.2 0.28 0 0.24 0.28 0 0.28 0.28 0 0.32 0.28 0 0.36 0.28 0 0.4 0.28 0 0.44 0.28 0 0.48 0.28 0 0.52 0.28 0 0.56 0.28 0 0.6 0.28 0 0.64 0.28 0 0.68 0.28 0 0.72 0.28 0 0.76 0.28 0 0.8 0.28 0 0.84 0.28 0 0.88 0.28 0 0.92 0.28 0 0.96 0.28 0 1 0.28 0 1.04 0.28 0 1.08 0.28 0 1.12 0.28 0 1.16 0.28 0 1.2 0.28 0 0 0.32 0 0.04 0.32 0 0.08 0.32 0 0.12 0.32 0 0.16 0.32 0 0.2 0.32 0 0.24 0.32 0 0.28 0.32 0 0.32 0.32 0 0.36 0.32 0 0.4 0.32 0 0.44 0.32 0 0.48 0.32 0 0.52 0.32 0 0.56 0.32 0 0.6 0.32 0 0.64 0.32 0 0.68 0.32 0 0.72 0.32 0 0.76 0.32 0 0.8 0.32 0 0.84 0.32 0 0.88 0.32 0 0.92 0.32 0 0.96 0.32 0 1 0.32 0 1.04 0.32 0 1.08 0.32 0 1.12 0.32 0 1.16 0.32 0 1.2 0.32 0 0 0.36 0 0.04 0.36 0 0.08 0.36 0 0.12 0.36 0 0.16 0.36 0 0.2 0.36 0 0.24 0.36 0 0.28 0.36 0 0.32 0.36 0 0.36 0.36 0 0.4 0.36 0 0.44 0.36 0 0.48 0.36 0 0.52 0.36 0 0.56 0.36 0 0.6 0.36 0 0.64 0.36 0 0.68 0.36 0 0.72 0.36 0 0.76 0.36 0 0.8 0.36 0 0.84 0.36 0 0.88 0.36 0 0.92 0.36 0 0.96 0.36 0 1 0.36 0 1.04 0.36 0 1.08 0.36 0 1.12 0.36 0 1.16 0.36 0 1.2 0.36 0 0 0.4 0 0.04 0.4 0 0.08 0.4 0 0.12 0.4 0 0.16 0.4 0 0.2 0.4 0 0.24 0.4 0 0.28 0.4 0 0.32 0.4 0 0.36 0.4 0 0.4 0.4 0 0.44 0.4 0 0.48 0.4 0 0.52 0.4 0 0.56 0.4 0 0.6 0.4 0 0.64 0.4 0 0.68 0.4 0 0.72 0.4 0 0.76 0.4 0 0.8 0.4 0 0.84 0.4 0 0.88 0.4 0 0.92 0.4 0 0.96 0.4 0 1 0.4 0 1.04 0.4 0 1.08 0.4 0 1.12 0.4 0 1.16 0.4 0 1.2 0.4 0 0 0.44 0 0.04 0.44 0 0.08 0.44 0 0.12 0.44 0 0.16 0.44 0 0.2 0.44 0 0.24 0.44 0 0.28 0.44 0 0.32 0.44 0 0.36 0.44 0 0.4 0.44 0 0.44 0.44 0 0.48 0.44 0 0.52 0.44 0 0.56 0.44 0 0.6 0.44 0 0.64 0.44 0 0.68 0.44 0 0.72 0.44 0 0.76 0.44 0 0.8 0.44 0 0.84 0.44 0 0.88 0.44 0 0.92 0.44 0 0.96 0.44 0 1 0.44 0 1.04 0.44 0 1.08 0.44 0 1.12 0.44 0 1.16 0.44 0 1.2 0.44 0 0 0.48 0 0.04 0.48 0 0.08 0.48 0 0.12 0.48 0 0.16 0.48 0 0.2 0.48 0 0.24 0.48 0 0.28 0.48 0 0.32 0.48 0 0.36 0.48 0 0.4 0.48 0 0.44 0.48 0 0.48 0.48 0 0.52 0.48 0 0.56 0.48 0 0.6 0.48 0 0.64 0.48 0 0.68 0.48 0 0.72 0.48 0 0.76 0.48 0 0.8 0.48 0 0.84 0.48 0 0.88 0.48 0 0.92 0.48 0 0.96 0.48 0 1 0.48 0 1.04 0.48 0 1.08 0.48 0 1.12 0.48 0 1.16 0.48 0 1.2 0.48 0 0 0.52 0 0.04 0.52 0 0.08 0.52 0 0.12 0.52 0 0.16 0.52 0 0.2 0.52 0 0.24 0.52 0 0.28 0.52 0 0.32 0.52 0 0.36 0.52 0 0.4 0.52 0 0.44 0.52 0 0.48 0.52 0 0.52 0.52 0 0.56 0.52 0 0.6 0.52 0 0.64 0.52 0 0.68 0.52 0 0.72 0.52 0 0.76 0.52 0 0.8 0.52 0 0.84 0.52 0 0.88 0.52 0 0.92 0.52 0 0.96 0.52 0 1 0.52 0 1.04 0.52 0 1.08 0.52 0 1.12 0.52 0 1.16 0.52 0 1.2 0.52 0 0 0.56 0 0.04 0.56 0 0.08 0.56 0 0.12 0.56 0 0.16 0.56 0 0.2 0.56 0 0.24 0.56 0 0.28 0.56 0 0.32 0.56 0 0.36 0.56 0 0.4 0.56 0 0.44 0.56 0 0.48 0.56 0 0.52 0.56 0 0.56 0.56 0 0.6 0.56 0 0.64 0.56 0 0.68 0.56 0 0.72 0.56 0 0.76 0.56 0 0.8 0.56 0 0.84 0.56 0 0.88 0.56 0 0.92 0.56 0 0.96 0.56 0 1 0.56 0 1.04 0.56 0 1.08 0.56 0 1.12 0.56 0 1.16 0.56 0 1.2 0.56 0 0 0.6 0 0.04 0.6 0 0.08 0.6 0 0.12 0.6 0 0.16 0.6 0 0.2 0.6 0 0.24 0.6 0 0.28 0.6 0 0.32 0.6 0 0.36 0.6 0 0.4 0.6 0 0.44 0.6 0 0.48 0.6 0 0.52 0.6 0 0.56 0.6 0 0.6 0.6 0 0.64 0.6 0 0.68 0.6 0 0.72 0.6 0 0.76 0.6 0 0.8 0.6 0 0.84 0.6 0 0.88 0.6 0 0.92 0.6 0 0.96 0.6 0 1 0.6 0 1.04 0.6 0 1.08 0.6 0 1.12 0.6 0 1.16 0.6 0 1.2 0.6 0 0 0.64 0 0.04 0.64 0 0.08 0.64 0 0.12 0.64 0 0.16 0.64 0 0.2 0.64 0 0.24 0.64 0 0.28 0.64 0 0.32 0.64 0 0.36 0.64 0 0.4 0.64 0 0.44 0.64 0 0.48 0.64 0 0.52 0.64 0 0.56 0.64 0 0.6 0.64 0 0.64 0.64 0 0.68 0.64 0 0.72 0.64 0 0.76 0.64 0 0.8 0.64 0 0.84 0.64 0 0.88 0.64 0 0.92 0.64 0 0.96 0.64 0 1 0.64 0 1.04 0.64 0 1.08 0.64 0 1.12 0.64 0 1.16 0.64 0 1.2 0.64 0 0 0.68 0 0.04 0.68 0 0.08 0.68 0 0.12 0.68 0 0.16 0.68 0 0.2 0.68 0 0.24 0.68 0 0.28 0.68 0 0.32 0.68 0 0.36 0.68 0 0.4 0.68 0 0.44 0.68 0 0.48 0.68 0 0.52 0.68 0 0.56 0.68 0 0.6 0.68 0 0.64 0.68 0 0.68 0.68 0 0.72 0.68 0 0.76 0.68 0 0.8 0.68 0 0.84 0.68 0 0.88 0.68 0 0.92 0.68 0 0.96 0.68 0 1 0.68 0 1.04 0.68 0 1.08 0.68 0 1.12 0.68 0 1.16 0.68 0 1.2 0.68 0 0 0.72 0 0.04 0.72 0 0.08 0.72 0 0.12 0.72 0 0.16 0.72 0 0.2 0.72 0 0.24 0.72 0 0.28 0.72 0 0.32 0.72 0 0.36 0.72 0 0.4 0.72 0 0.44 0.72 0 0.48 0.72 0 0.52 0.72 0 0.56 0.72 0 0.6 0.72 0 0.64 0.72 0 0.68 0.72 0 0.72 0.72 0 0.76 0.72 0 0.8 0.72 0 0.84 0.72 0 0.88 0.72 0 0.92 0.72 0 0.96 0.72 0 1 0.72 0 1.04 0.72 0 1.08 0.72 0 1.12 0.72 0 1.16 0.72 0 1.2 0.72 0 0 0.76 0 0.04 0.76 0 0.08 0.76 0 0.12 0.76 0 0.16 0.76 0 0.2 0.76 0 0.24 0.76 0 0.28 0.76 0 0.32 0.76 0 0.36 0.76 0 0.4 0.76 0 0.44 0.76 0 0.48 0.76 0 0.52 0.76 0 0.56 0.76 0 0.6 0.76 0 0.64 0.76 0 0.68 0.76 0 0.72 0.76 0 0.76 0.76 0 0.8 0.76 0 0.84 0.76 0 0.88 0.76 0 0.92 0.76 0 0.96 0.76 0 1 0.76 0 1.04 0.76 0 1.08 0.76 0 1.12 0.76 0 1.16 0.76 0 1.2 0.76 0 0 0.8 0 0.04 0.8 0 0.08 0.8 0 0.12 0.8 0 0.16 0.8 0 0.2 0.8 0 0.24 0.8 0 0.28 0.8 0 0.32 0.8 0 0.36 0.8 0 0.4 0.8 0 0.44 0.8 0 0.48 0.8 0 0.52 0.8 0 0.56 0.8 0 0.6 0.8 0 0.64 0.8 0 0.68 0.8 0 0.72 0.8 0 0.76 0.8 0 0.8 0.8 0 0.84 0.8 0 0.88 0.8 0 0.92 0.8 0 0.96 0.8 0 1 0.8 0 1.04 0.8 0 1.08 0.8 0 1.12 0.8 0 1.16 0.8 0 1.2 0.8 0 0 0.84 0 0.04 0.84 0 0.08 0.84 0 0.12 0.84 0 0.16 0.84 0 0.2 0.84 0 0.24 0.84 0 0.28 0.84 0 0.32 0.84 0 0.36 0.84 0 0.4 0.84 0 0.44 0.84 0 0.48 0.84 0 0.52 0.84 0 0.56 0.84 0 0.6 0.84 0 0.64 0.84 0 0.68 0.84 0 0.72 0.84 0 0.76 0.84 0 0.8 0.84 0 0.84 0.84 0 0.88 0.84 0 0.92 0.84 0 0.96 0.84 0 1 0.84 0 1.04 0.84 0 1.08 0.84 0 1.12 0.84 0 1.16 0.84 0 1.2 0.84 0 0 0.88 0 0.04 0.88 0 0.08 0.88 0 0.12 0.88 0 0.16 0.88 0 0.2 0.88 0 0.24 0.88 0 0.28 0.88 0 0.32 0.88 0 0.36 0.88 0 0.4 0.88 0 0.44 0.88 0 0.48 0.88 0 0.52 0.88 0 0.56 0.88 0 0.6 0.88 0 0.64 0.88 0 0.68 0.88 0 0.72 0.88 0 0.76 0.88 0 0.8 0.88 0 0.84 0.88 0 0.88 0.88 0 0.92 0.88 0 0.96 0.88 0 1 0.88 0 1.04 0.88 0 1.08 0.88 0 1.12 0.88 0 1.16 0.88 0 1.2 0.88 0 0 0.92 0 0.04 0.92 0 0.08 0.92 0 0.12 0.92 0 0.16 0.92 0 0.2 0.92 0 0.24 0.92 0 0.28 0.92 0 0.32 0.92 0 0.36 0.92 0 0.4 0.92 0 0.44 0.92 0 0.48 0.92 0 0.52 0.92 0 0.56 0.92 0 0.6 0.92 0 0.64 0.92 0 0.68 0.92 0 0.72 0.92 0 0.76 0.92 0 0.8 0.92 0 0.84 0.92 0 0.88 0.92 0 0.92 0.92 0 0.96 0.92 0 1 0.92 0 1.04 0.92 0 1.08 0.92 0 1.12 0.92 0 1.16 0.92 0 1.2 0.92 0 0 0.96 0 0.04 0.96 0 0.08 0.96 0 0.12 0.96 0 0.16 0.96 0 0.2 0.96 0 0.24 0.96 0 0.28 0.96 0 0.32 0.96 0 0.36 0.96 0 0.4 0.96 0 0.44 0.96 0 0.48 0.96 0 0.52 0.96 0 0.56 0.96 0 0.6 0.96 0 0.64 0.96 0 0.68 0.96 0 0.72 0.96 0 0.76 0.96 0 0.8 0.96 0 0.84 0.96 0 0.88 0.96 0 0.92 0.96 0 0.96 0.96 0 1 0.96 0 1.04 0.96 0 1.08 0.96 0 1.12 0.96 0 1.16 0.96 0 1.2 0.96 0 0 1 0 0.04 1 0 0.08 1 0 0.12 1 0 0.16 1 0 0.2 1 0 0.24 1 0 0.28 1 0 0.32 1 0 0.36 1 0 0.4 1 0 0.44 1 0 0.48 1 0 0.52 1 0 0.56 1 0 0.6 1 0 0.64 1 0 0.68 1 0 0.72 1 0 0.76 1 0 0.8 1 0 0.84 1 0 0.88 1 0 0.92 1 0 0.96 1 0 1 1 0 1.04 1 0 1.08 1 0 1.12 1 0 1.16 1 0 1.2 1 0 0 1.04 0 0.04 1.04 0 0.08 1.04 0 0.12 1.04 0 0.16 1.04 0 0.2 1.04 0 0.24 1.04 0 0.28 1.04 0 0.32 1.04 0 0.36 1.04 0 0.4 1.04 0 0.44 1.04 0 0.48 1.04 0 0.52 1.04 0 0.56 1.04 0 0.6 1.04 0 0.64 1.04 0 0.68 1.04 0 0.72 1.04 0 0.76 1.04 0 0.8 1.04 0 0.84 1.04 0 0.88 1.04 0 0.92 1.04 0 0.96 1.04 0 1 1.04 0 1.04 1.04 0 1.08 1.04 0 1.12 1.04 0 1.16 1.04 0 1.2 1.04 0 0 1.08 0 0.04 1.08 0 0.08 1.08 0 0.12 1.08 0 0.16 1.08 0 0.2 1.08 0 0.24 1.08 0 0.28 1.08 0 0.32 1.08 0 0.36 1.08 0 0.4 1.08 0 0.44 1.08 0 0.48 1.08 0 0.52 1.08 0 0.56 1.08 0 0.6 1.08 0 0.64 1.08 0 0.68 1.08 0 0.72 1.08 0 0.76 1.08 0 0.8 1.08 0 0.84 1.08 0 0.88 1.08 0 0.92 1.08 0 0.96 1.08 0 1 1.08 0 1.04 1.08 0 1.08 1.08 0 1.12 1.08 0 1.16 1.08 0 1.2 1.08 0 0 1.12 0 
[...]
			<CellData Scalars="Density">
				<DataArray Name="Density" type="Float32" format="ascii">
 0.00339277 0.00343552 0.00353906 0.00373556 0.00405979 0.00454358 0.00521557 0.00610173 0.00722904 0.00862662 0.0103277 0.0123717 0.014809 0.0177119 0.0211894 0.0254315 0.0308595 0.0384364 0.0502593 0.0692002 0.0992319 0.147742 0.229475 0.371985 0.611717 0.985393 1.53221 2.37806 3.45438 4.12743 0.0034356 0.00347183 0.00356239 0.00374257 0.00404958 0.00451765 0.00517803 0.00606062 0.0071976 0.00862674 0.0103926 0.0125432 0.0151366 0.0182495 0.021995 0.0265756 0.0324245 0.0405453 0.0530021 0.0728778 0.104003 0.153242 0.234441 0.374421 0.611147 0.984856 1.53317 2.38188 3.47033 4.15402 0.00353932 0.00356257 0.00362478 0.00376478 0.00401361 0.00440122 0.00496751 0.00574731 0.00677441 0.00808434 0.00971381 0.0117066 0.0141154 0.0170135 0.0205093 0.0247903 0.03025 0.0377728 0.0492513 0.0676214 0.0966818 0.143775 0.223579 0.363478 0.598569 0.969611 1.52292 2.37915 3.51725 4.27065 0.00373602 0.00374291 0.00376492 0.0038531 0.00404736 0.00437323 0.00484561 0.00549745 0.00637254 0.00751747 0.0089828 0.0108241 0.013109 0.0159232 0.0193742 0.0236438 0.0291108 0.0366325 0.0481996 0.0663033 0.0943842 0.138947 0.212985 0.343848 0.569917 0.934882 1.4891 2.35256 3.50584 4.273 0.00406039 0.00404994 0.00401361 0.00404727 0.00417953 0.0044467 0.00487631 0.00549395 0.00633287 0.0074439 0.00888751 0.0107312 0.0130496 0.0159303 0.0194945 0.023941 0.0296624 0.0374901 0.0493636 0.0678026 0.0965872 0.142152 0.216371 0.344634 0.564751 0.918472 1.46169 2.32119 3.48025 4.25417 0.00454427 0.00451786 0.00440086 0.00437274 0.00444635 0.00465171 0.00502889 0.00560561 0.00641966 0.00752005 0.00897046 0.0108479 0.0132446 0.0162763 0.0200942 0.0249126 0.0311183 0.0395049 0.0519057 0.0709289 0.100338 0.145989 0.218562 0.340898 0.549787 0.887681 1.41331 2.2553 3.39817 4.15532 0.00521631 0.00517801 0.00496656 0.00484446 0.00487534 0.00502829 0.00536291 0.00591118 0.00671281 0.00782276 0.00931505 0.0112848 0.0138493 0.0171517 0.0213717 0.0267441 0.033643 0.0427434 0.0556394 0.0755233 0.106265 0.153068 0.226278 0.344801 0.543452 0.863214 1.36142 2.16723 3.30083 4.08021 0.00610256 0.00606036 0.00574569 0.00549545 0.00549219 0.00560416 0.00591026 0.00644734 0.00725794 0.00840422 0.00997294 0.0120793 0.0148652 0.0184994 0.0231833 0.0291666 0.036809 0.0466788 0.0601041 0.0800485 0.111842 0.160553 0.233591 0.347413 0.536328 0.840818 1.31613 2.09402 3.22911 4.02619 0.00722998 0.00719708 0.0067723 0.00636975 0.00633039 0.00641738 0.00671084 0.00725672 0.00809962 0.00930871 0.0109828 0.013256 0.0162922 0.020285 0.0254543 0.0320581 0.0404458 0.0511319 0.0651188 0.0847441 0.115782 0.165433 0.241062 0.355717 0.538804 0.83098 1.2855 2.04591 3.22739 4.10138 0.00862768 0.00862579 0.0080822 0.00751423 0.007441 0.00751719 0.00781991 0.00840173 0.00930716 0.0106127 0.0124292 0.0149116 0.0182463 0.0226498 0.0283642 0.0356622 0.0448801 0.0564971 0.0712748 0.0910758 0.12043 0.168695 0.246783 0.363696 0.543018 0.826888 1.27134 2.027 3.28313 4.29568 0.0103289 0.0103913 0.00971192 0.00897961 0.00888467 0.00896749 0.00931177 0.00996957 0.0109798 0.0124273 0.0144383 0.0171914 0.0208976 0.0258036 0.032179 0.040314 0.0505461 0.0633184 0.0793195 0.0998412 0.128137 0.172425 0.248345 0.369859 0.553325 0.836396 1.28102 2.03942 3.40553 4.64937 0.012373 0.0125418 0.0117053 0.0108215 0.010729 0.0108454 0.0112815 0.0120753 0.0132516 0.0149069 0.0171868 0.0203051 0.0245025 0.0300587 0.0372771 0.0464656 0.057989 0.072264 0.0898994 0.11188 0.14045 0.181546 0.249591 0.369267 0.561872 0.855705 1.31113 2.08274 3.55892 5.11946 0.0148108 0.0151353 0.0141151 0.0131078 0.0130486 0.0132428 0.0138461 0.0148606 0.016286 0.0182374 0.020885 0.0244895 0.0293379 0.035747 0.0440567 0.0546132 0.06777 0.083907 0.103642 0.127794 0.158017 0.198124 0.258632 0.365074 0.559218 0.872209 1.35987 2.16753 3.74951 5.64929 0.0177145 0.0182486 0.0170149 0.0159244 0.0159314 0.0162757 0.0171486 0.0184938 0.0202763 0.0226351 0.0257788 0.030026 0.0357166 0.0432184 0.0529066 0.0651622 0.0803898 0.0988981 0.121209 0.148072 0.180867 0.222496 0.279439 0.370688 0.543186 0.867453 1.40115 2.28118 3.96139 6.22487 0.0211933 0.0219952 0.0205133 0.0193788 0.0194982 0.0200956 0.0213689 0.0231773 0.0254422 0.028343 0.0321386 0.0372163 0.043988 0.0528501 0.0642431 0.0785562 0.0962156 0.117629 0.143177 0.173488 0.209698 0.254143 0.311807 0.394358 0.537798 0.829621 1.39993 2.37865 4.17378 6.87322 0.0254368 0.0265771 0.0247973 0.0236524 0.0239481 0.0249168 0.0267428 0.0291611 0.0320433 0.0356324 0.0402569 0.0463699 0.0544895 0.0650433 0.0784673 0.0952257 0.115714 0.140367 0.16972 0.204263 0.245011 0.293848 0.354342 0.435798 0.560166 0.799933 1.34062 2.38688 4.24478 7.51714 0.0308649 0.0324261 0.0302594 0.0291228 0.0296728 0.0311257 0.0336451 0.0368054 0.0404329 0.0448438 0.0504697 0.0578627 0.0675871 0.0801851 0.096042 0.115592 0.139343 0.167659 0.201141 0.240568 0.286804 0.341833 0.408413 0.492647 0.612059 0.814187 1.25849 2.29814 4.25345 8.14136 0.0384391 0.0405438 0.0377813 0.0366447 0.0375018 0.0395158 0.0427517 0.0466858 0.0511274 0.0564564 0.0632353 0.0721088 0.0836869 0.0986173 0.117349 0.14016 0.167513 0.199989 0.238089 0.282778 0.335459 0.397705 0.47328 0.566528 0.689041 0.875559 1.24206 2.15445 4.23338 8.6614 0.0502553 0.0529946 0.0492554 0.0482071 0.0493739 0.0519175 0.0556553 0.0601246 0.0651294 0.0712588 0.0792418 0.0897349 0.103397 0.120907 0.142822 0.169405 0.200936 0.23795 0.28136 0.331998 0.391815 0.463076 0.549 0.656228 0.79305 0.98279 1.31222 2.09306 4.23075 8.90883 0.0691974 0.0728707 0.0676259 0.0663138 0.0678187 0.0709486 0.075552 0.0800851 0.0847822 0.0910865 0.0997744 0.111756 0.127571 0.147779 0.173164 0.203909 0.240269 0.28263 0.331911 0.389677 0.45773 0.53951 0.639256 0.762943 0.923158 1.13882 1.47131 2.18541 4.22607 8.85892 0.0992395 0.104008 0.0966984 0.094404 0.096612 0.100371 0.106314 0.111903 0.115853 0.120481 0.128135 0.140378 0.15783 0.180635 0.209424 0.244768 0.286523 0.33524 0.391731 0.457716 0.536227 0.630694 0.747692 0.894908 1.08515 1.34593 1.7271 2.47515 4.23857 8.4172 0.147775 0.153274 0.143818 0.138981 0.14219 0.146035 0.153135 0.160638 0.165552 0.168802 0.172479 0.181537 0.198051 0.222391 0.253974 0.293681 0.341716 0.397592 0.462974 0.539531 0.630748 0.74225 0.880916 1.05993 1.29667 1.61615 2.11198 3.0034 4.24922 7.46022 0.229549 0.234517 0.223667 0.213044 0.216429 0.218618 0.22635 0.233672 0.241194 0.246935 0.248469 0.249666 0.258646 0.279427 0.311794 0.354317 0.408399 0.473364 0.549075 0.639325 0.747817 0.881033 1.05058 1.27274 1.57325 2.00145 2.70792 3.7171 4.18797 5.94475 0.37212 0.374562 0.36363 0.343951 0.344724 0.340967 0.344875 0.347473 0.355805 0.363827 0.370005 0.369399 0.365178 0.370787 0.394454 0.435916 0.492776 0.566695 0.656473 0.763195 0.895122 1.06013 1.27292 1.55697 1.96232 2.61672 3.47475 4.09544 4.07667 4.00266 0.611968 0.611411 0.598844 0.570145 0.564948 0.549937 0.543569 0.536394 0.538857 0.543065 0.553387 0.561956 0.559346 0.543351 0.537977 0.560369 0.612295 0.689307 0.793349 0.923513 1.08554 1.297 1.57351 1.96259 2.56978 3.46656 4.01756 4.16692 3.58375 2.18725 0.985767 0.985253 0.970019 0.935255 0.918813 0.887975 0.863439 0.840963 0.83107 0.826891 0.836367 0.855627 0.872164 0.867522 0.829825 0.800187 0.814462 0.875864 0.983128 1.13918 1.34632 1.6166 2.00187 2.61706 3.46702 4.00316 4.15893 3.77913 2.21756 1.30598 1.53267 1.53368 1.52345 1.48963 1.46221 1.41379 1.36181 1.31643 1.28569 1.27135 1.28097 1.31092 1.35952 1.40088 1.39984 1.34079 1.25879 1.24238 1.31253 1.47165 1.72744 2.11236 2.70857 3.47514 4.01761 4.15913 3.7835 2.32724 1.29116 1.06905 2.37858 2.38243 2.37975 2.35319 2.32186 2.25594 2.16781 2.09445 2.04622 2.02705 2.03935 2.08245 2.16692 2.28038 2.37804 2.3866 2.29828 2.15479 2.09332 2.18564 2.47543 3.00369 3.71741 4.09573 4.16711 3.77877 2.32762 1.33082 1.07277 1.01292 3.45495 3.47095 3.51795 3.50666 3.48116 3.39909 3.30172 3.22982 3.2279 3.2833 3.40528 3.55831 3.74852 3.96011 4.1727 4.24439 4.25361 4.23385 4.23119 4.22628 4.23863 4.2493 4.18829 4.07636 3.58399 2.21748 1.29117 1.07276 1.01433 1.0009 4.12803 4.15468 4.27142 4.274 4.25533 4.15654 4.08144 4.0272 4.10214 4.29593 4.6488 5.11814 5.64768 6.22339 6.87226 7.51713 8.14223 8.66241 8.90948 8.85931 8.41713 7.45991 5.94477 4.00231 2.18723 1.30596 1.06904 1.01292 1.0009 1.00001
				</DataArray>
				<DataArray Name="Energy" type="Float32" format="ascii">
 778.913 768.75 746.328 707.148 650.757 581.57 506.774 433.341 365.986 306.985 256.801 214.866 180.141 151.446 127.652 107.808 91.2157 77.3379 65.5393 54.7327 44.1201 33.8079 24.4905 16.9574 11.4244 7.72261 5.39249 3.88672 2.97566 2.62127 768.729 760.152 740.808 705.16 651.752 584.3 509.877 435.746 367.082 306.498 254.72 211.444 175.736 146.436 122.385 102.579 86.231 72.7422 61.418 51.3001 41.5312 32.079 23.4773 16.3673 11.0433 7.45483 5.20648 3.78425 2.92023 2.58269 746.271 740.771 728.084 701.038 657.625 599.793 531.531 459.572 390.099 327.162 272.642 226.697 188.633 157.316 131.56 110.327 92.8125 78.3538 66.2267 55.366 44.753 34.3648 24.8978 17.2005 11.5105 7.71808 5.35079 3.83902 2.91866 2.56951 707.059 705.095 701.014 685.002 652.17 603.641 544.893 480.413 414.625 351.73 294.702 245.02 202.883 167.742 138.763 115.044 95.7255 80.0383 67.1543 55.7613 44.9941 34.7746 25.4854 17.7467 11.8336 7.8509 5.38838 3.84511 2.90905 2.55062 650.658 651.693 657.624 652.182 631.591 593.707 541.505 480.783 417.298 355.28 297.913 247.159 203.785 167.633 137.895 113.597 93.8591 77.9011 64.9395 53.7947 43.6117 34.0614 25.3033 17.9055 12.1316 8.10513 5.5487 3.93112 2.95151 2.57958 581.48 584.27 599.841 603.708 593.751 567.588 525.091 471.181 411.6 351.595 295.031 244.327 200.557 163.766 133.413 108.704 88.7835 72.8927 60.2964 49.9358 40.8673 32.4809 24.6601 17.8419 12.3435 8.32682 5.69541 4.00914 2.99201 2.60617 506.699 509.877 531.631 545.022 541.611 525.153 492.441 446.85 393.627 337.959 284.037 234.737 191.626 155.187 125.166 100.893 81.5414 66.3096 54.4891 45.2489 37.5259 30.5517 23.9593 17.8265 12.5761 8.61705 5.93683 4.18427 3.09661 2.68082 433.279 435.763 459.698 480.585 480.935 471.301 446.918 409.737 364.068 314.544 265.231 219.193 178.385 143.686 115.109 92.1365 73.9776 59.8008 48.8919 40.5665 33.9582 28.1402 22.6621 17.4543 12.7442 8.91792 6.18419 4.34233 3.16869 2.71951 365.934 367.105 390.217 414.804 417.459 411.745 393.74 364.128 326.269 283.972 240.805 199.668 162.65 130.883 104.619 83.5094 66.8669 53.9141 43.9304 36.3425 30.6265 25.8637 21.372 17.0312 12.8519 9.18829 6.44059 4.5024 3.21537 2.73057 306.943 306.528 327.244 351.878 355.415 351.726 338.08 314.635 284.019 249.102 212.756 177.443 145.15 117.102 93.7222 74.8423 59.9113 48.2679 39.247 32.3569 27.1991 23.2887 19.7974 16.2706 12.7256 9.3783 6.66288 4.63812 3.2446 2.7138 256.766 254.747 272.69 294.802 298.005 295.126 284.135 265.318 240.87 212.789 183.17 153.9 126.68 102.707 82.5069 66.0522 52.958 42.6978 34.7198 28.5547 23.8687 20.4258 17.815 15.223 12.3807 9.47603 6.86256 4.78917 3.2813 2.67603 214.836 211.463 226.717 245.072 247.206 244.382 234.804 219.262 199.734 177.5 153.939 130.348 108.071 88.1653 71.1865 57.2199 46.0173 37.1866 30.2813 24.9031 20.7468 17.6171 15.3743 13.6529 11.6863 9.33461 7.0015 4.94388 3.3412 2.64402 180.113 175.746 188.629 202.895 203.795 200.579 191.668 178.438 162.71 145.22 126.756 108.124 90.3131 74.1889 60.271 48.7099 39.3557 31.9197 26.0729 21.4871 17.8962 15.1075 13.0328 11.5976 10.4567 8.8894 6.93735 5.05829 3.42449 2.63115 151.417 146.436 157.294 167.723 167.616 163.766 155.211 143.726 130.938 117.176 102.806 88.2638 74.2475 61.4312 50.2553 40.8843 33.2395 27.1128 22.2515 18.4067 15.3615 12.9513 11.0704 9.68517 8.77817 7.99138 6.66039 5.05983 3.51847 2.63376 127.62 122.376 131.524 138.722 137.86 133.399 125.175 115.137 104.664 93.7932 82.607 71.3041 60.369 50.3035 41.4631 33.9897 27.841 22.8759 18.8982 15.7209 13.1753 11.1238 9.47705 8.1849 7.24294 6.69748 6.08433 4.92978 3.59802 2.64543 107.773 102.562 110.282 114.989 113.549 108.678 100.889 92.1511 83.542 74.903 66.145 57.3328 48.8195 40.9614 34.024 28.1251 23.2336 19.2489 16.0295 13.4299 11.3204 9.59945 8.18263 7.02817 6.12474 5.50152 5.19193 4.63471 3.60951 2.65197 91.1774 86.206 92.7624 95.6646 93.8049 88.748 81.5228 73.9747 66.8854 59.9571 53.0356 46.1181 39.4579 33.3224 27.8935 23.2543 19.3852 16.2061 13.6115 11.497 9.75996 8.32231 7.12193 6.11574 5.28843 4.65449 4.28393 4.08234 3.54268 2.63968 77.2981 72.7121 78.3031 79.9768 77.8445 72.8494 66.2779 59.782 53.9138 48.2923 42.7547 37.2645 32.0049 27.1859 22.929 19.2792 16.2167 13.6838 11.596 9.87532 8.44787 7.25013 6.23636 5.37115 4.63853 4.04064 3.60854 3.43733 3.33966 2.58693 65.5018 61.3875 66.1809 67.0996 64.8871 60.2503 54.4486 48.8592 43.9117 39.2531 34.7524 30.3324 26.1336 22.3078 18.9413 16.0573 13.6262 11.6005 9.91834 8.516 7.33937 6.34203 5.48503 4.7462 4.10339 3.56243 3.13901 2.88751 2.98038 2.4745 54.7047 51.2757 55.332 55.723 53.7551 49.8961 45.2088 40.5272 36.3128 32.345 28.563 24.9324 21.5229 18.4428 15.7511 13.4498 11.5084 9.88077 8.51697 7.37083 6.39672 5.56245 4.83828 4.2045 3.64808 3.16323 2.76592 2.48553 2.53138 2.26337 44.1024 41.515 44.7318 44.9722 43.5873 40.8404 37.4954 33.9243 30.5943 27.1769 23.8635 20.7573 17.9121 15.38 13.1921 11.3328 9.76657 8.45068 7.33985 6.39645 5.58772 4.88585 4.27121 3.72796 3.24391 2.81817 2.44953 2.15801 2.0852 1.95147 33.7983 32.0696 34.3529 34.7646 34.0502 32.4675 30.5353 28.1194 25.8391 23.2662 20.4124 17.6147 15.1121 12.9587 11.13 9.60448 8.32517 7.25051 6.34076 5.56123 4.88509 4.29319 3.76763 3.30038 2.88226 2.50241 2.17895 1.86726 1.70775 1.55203 24.4859 23.4723 24.8914 25.4817 25.2999 24.6559 23.954 22.6543 21.3599 19.7827 17.8024 15.3675 13.0306 11.0704 9.47805 8.183 7.12184 6.23558 5.48316 4.83629 4.26984 3.767 3.31782 2.9137 2.54807 2.22034 1.94384 1.57589 1.40856 1.08353 16.9554 16.3649 17.1978 17.7453 17.9048 17.8415 17.8261 17.4535 17.0291 16.2656 15.217 13.6478 11.5942 9.68309 8.18347 7.02678 6.1142 5.36957 4.74442 4.20259 3.72639 3.29943 2.9133 2.56345 2.2448 1.96279 1.64449 1.38085 1.14026 0.611556 11.4239 11.0425 11.5098 11.8333 12.1319 12.3441 12.5768 12.7452 12.853 12.7261 12.3804 11.6854 10.4558 8.77706 7.24149 6.12316 5.2868 4.63685 4.10184 3.64663 3.24265 2.88137 2.54755 2.24463 1.99273 1.64565 1.40944 1.17135 0.738868 0.202453 7.72279 7.45479 7.71812 7.85103 8.10535 8.32706 8.61739 8.91861 9.18931 9.37963 9.47737 9.33606 8.89072 7.99239 6.69764 5.50077 4.65329 4.03931 3.56121 3.16221 2.81733 2.50177 2.21992 1.96255 1.64559 1.41683 1.20485 0.783702 0.248674 0.0200362 5.39303 5.20693 5.35121 5.38881 5.54904 5.69564 5.93707 6.18449 6.4411 6.66377 6.8634 7.00279 6.93916 6.6621 6.08575 5.19231 4.28342 3.60765 3.13817 2.76525 2.44904 2.1786 1.94358 1.64433 1.40939 1.20488 0.812823 0.276191 0.025385 0.000287853 3.88732 3.78483 3.83953 3.84563 3.93154 4.00947 4.18459 4.34268 4.50279 4.63867 4.78963 4.94454 5.05935 5.06132 4.93102 4.63559 4.0824 3.43678 2.8869 2.48513 2.15779 1.86714 1.57576 1.38083 1.17133 0.783683 0.276192 0.0304023 0.000413769 3.72982e-06 2.97615 2.92071 2.91909 2.90947 2.95183 2.99227 3.09688 3.16891 3.21565 3.24492 3.28169 3.3417 3.42509 3.51919 3.59867 3.60986 3.5427 3.33936 2.97994 2.53103 2.08506 1.70772 1.4085 1.14024 0.738888 0.24864 0.0253919 0.000413514 4.0809e-06 2.50581e-06 2.62169 2.58309 2.56988 2.55096 2.57981 2.60636 2.681 2.71962 2.73072 2.71407 2.67644 2.64454 2.6316 2.63403 2.64557 2.65196 2.63956 2.58678 2.47437 2.26324 1.9514 1.55202 1.08351 0.611536 0.20248 0.0200289 0.000287701 3.73101e-06 2.50581e-06 2.50001e-06
				</DataArray>
				<DataArray Name="F1" type="Float32" format="ascii">
 1 1 1 1 1 1 1 1 1 1 1 1 1 1 1 1 1 1 1 1 1 1 1 1 1 1 1 1 1 1 1 1 1 1 1 1 1 1 1 1 1 1 1 1 1 1 1 1 1 1 1 1 1 1 1 1 1 1 1 1 1 1 1 1 1 1 1 1 1 1 1 1 1 1 1 1 1 1 1 1 1 1 1 1 1 1 1 1 1 1 1 1 1 1 1 1 1 1 1 1 1 1 1 1 1 1 1 1 1 1 1 1 1 1 1 1 1 1 1 1 1 1 1 1 1 1 1 1 1 1 1 1 1 1 1 1 1 1 1 1 1 1 1 1 1 1 1 1 1 1 1 1 1 1 1 1 1 1 1 1 1 1 1 1 1 1 1 1 1 1 1 1 1 1 1 1 1 1 1 1 1 1 1 1 1 1 1 1 1 1 1 1 1 1 1 1 1 1 1 1 1 1 1 1 1 1 1 1 1 1 1 1 1 1 1 1 1 1 1 1 1 1 1 1 1 1 1 1 1 1 1 1 1 1 1 1 1 1 1 1 1 1 1 1 1 1 1 1 1 1 1 1 1 1 1 1 1 1 1 1 1 1 1 1 1 1 1 1 1 1 1 1 1 1 1 1 1 1 1 1 1 1 1 1 1 1 1 1 1 1 1 1 1 1 1 1 1 1 1 1 1 1 1 1 1 1 1 1 1 1 1 1 1 1 1 1 1 1 1 1 1 1 1 1 1 1 1 1 1 1 1 1 1 1 1 1 1 1 1 1 1 1 1 1 1 1 1 1 1 1 1 1 1 1 1 1 1 1 1 1 1 1 1 1 1 1 1 1 1 1 1 1 1 1 1 1 1 1 1 1 1 1 1 1 1 1 1 1 1 1 1 1 1 1 1 1 1 1 1 1 1 1 1 1 1 1 1 1 1 1 1 1 1 1 1 1 1 1 1 1 1 1 1 1 1 1 1 1 1 1 1 1 1 1 1 1 1 1 1 1 1 1 1 1 1 1 1 1 1 1 1 1 1 1 1 1 1 1 1 1 1 1 1 1 1 1 1 1 1 1 1 1 1 1 1 1 1 1 1 1 1 1 1 1 1 1 1 1 1 1 1 1 1 1 1 1 1 1 1 1 1 1 1 1 1 1 1 1 1 1 1 1 1 1 1 1 1 1 1 1 1 1 1 1 1 1 1 1 1 1 1 1 1 1 1 1 1 1 1 1 1 1 1 1 1 1 1 1 1 1 1 1 1 1 1 1 1 1 1 1 1 1 1 1 1 1 1 1 1 1 1 1 1 1 1 1 1 1 1 1 1 1 1 1 1 1 1 1 1 1 1 1 1 1 1 1 1 1 1 1 1 1 1 1 1 1 1 1 1 1 1 1 1 1 1 1 1 1 1 1 1 1 1 1 1 1 1 1 1 1 1 1 1 1 1 1 1 1 1 1 1 1 1 1 1 1 1 1 1 1 1 1 1 1 1 1 1 1 1 1 1 1 1 1 1 1 1 1 1 1 1 1 1 1 1 1 1 1 1 1 1 1 1 1 1 1 1 1 1 1 1 1 1 1 1 1 1 1 1 1 1 1 1 1 1 1 1 1 1 1 1 1 1 1 1 1 1 1 1 1 1 1 1 1 1 1 1 1 1 1 1 1 1 1 1 1 1 1 1 1 1 1 1 1 1 1 1 1 1 1 1 1 1 1 1 1 1 1 1 1 1 1 1 1 1 1 1 1 1 1 1 1 1 1 1 1 1 1 1 1 1 1 1 1 1 1 1 1 1 1 1 1 1 1 1 1 1 1 1 1 1 1 1 1 1 1 1 1 1 1 1 1 1 1 1 1 1 1 1 1 1 1 1 1 1 1 1 1 1 1 1 1 1 1 1 1 1 1 1 1 1 1 1 1 1 1 1 1 1 1 1 1 1 1 1 1 1 1 1 1 1 1 1 1 1 1 1 1 1 1 1 1 1 1 1 1 1 1 1 1 1 1 1 1 1 1 1 1 1 1 1 1 1 1 1 1 1 1 1 1
				</DataArray>
				<DataArray Name="F2" type="Float32" format="ascii">
 0 0 0 0 0 0 0 0 0 0 0 0 0 0 0 0 0 0 0 0 0 0 0 0 0 0 0 0 0 0 0 0 0 0 0 0 0 0 0 0 0 0 0 0 0 0 0 0 0 0 0 0 0 0 0 0 0 0 0 0 0 0 0 0 0 0 0 0 0 0 0 0 0 0 0 0 0 0 0 0 0 0 0 0 0 0 0 0 0 0 0 0 0 0 0 0 0 0 0 0 0 0 0 0 0 0 0 0 0 0 0 0 0 0 0 0 0 0 0 0 0 0 0 0 0 0 0 0 0 0 0 0 0 0 0 0 0 0 0 0 0 0 0 0 0 0 0 0 0 0 0 0 0 0 0 0 0 0 0 0 0 0 0 0 0 0 0 0 0 0 0 0 0 0 0 0 0 0 0 0 0 0 0 0 0 0 0 0 0 0 0 0 0 0 0 0 0 0 0 0 0 0 0 0 0 0 0 0 0 0 0 0 0 0 0 0 0 0 0 0 0 0 0 0 0 0 0 0 0 0 0 0 0 0 0 0 0 0 0 0 0 0 0 0 0 0 0 0 0 0 0 0 0 0 0 0 0 0 0 0 0 0 0 0 0 0 0 0 0 0 0 0 0 0 0 0 0 0 0 0 0 0 0 0 0 0 0 0 0 0 0 0 0 0 0 0 0 0 0 0 0 0 0 0 0 0 0 0 0 0 0 0 0 0 0 0 0 0 0 0 0 0 0 0 0 0 0 0 0 0 0 0 0 0 0 0 0 0 0 0 0 0 0 0 0 0 0 0 0 0 0 0 0 0 0 0 0 0 0 0 0 0 0 0 0 0 0 0 0 0 0 0 0 0 0 0 0 0 0 0 0 0 0 0 0 0 0 0 0 0 0 0 0 0 0 0 0 0 0 0 0 0 0 0 0 0 0 0 0 0 0 0 0 0 0 0 0 0 0 0 0 0 0 0 0 0 0 0 0 0 0 0 0 0 0 0 0 0 0 0 0 0 0 0 0 0 0 0 0 0 0 0 0 0 0 0 0 0 0 0 0 0 0 0 0 0 0 0 0 0 0 0 0 0 0 0 0 0 0 0 0 0 0 0 0 0 0 0 0 0 0 0 0 0 0 0 0 0 0 0 0 0 0 0 0 0 0 0 0 0 0 0 0 0 0 0 0 0 0 0 0 0 0 0 0 0 0 0 0 0 0 0 0 0 0 0 0 0 0 0 0 0 0 0 0 0 0 0 0 0 0 0 0 0 0 0 0 0 0 0 0 0 0 0 0 0 0 0 0 0 0 0 0 0 0 0 0 0 0 0 0 0 0 0 0 0 0 0 0 0 0 0 0 0 0 0 0 0 0 0 0 0 0 0 0 0 0 0 0 0 0 0 0 0 0 0 0 0 0 0 0 0 0 0 0 0 0 0 0 0 0 0 0 0 0 0 0 0 0 0 0 0 0 0 0 0 0 0 0 0 0 0 0 0 0 0 0 0 0 0 0 0 0 0 0 0 0 0 0 0 0 0 0 0 0 0 0 0 0 0 0 0 0 0 0 0 0 0 0 0 0 0 0 0 0 0 0 0 0 0 0 0 0 0 0 0 0 0 0 0 0 0 0 0 0 0 0 0 0 0 0 0 0 0 0 0 0 0 0 0 0 0 0 0 0 0 0 0 0 0 0 0 0 0 0 0 0 0 0 0 0 0 0 0 0 0 0 0 0 0 0 0 0 0 0 0 0 0 0 0 0 0 0 0 0 0 0 0 0 0 0 0 0 0 0 0 0 0 0 0 0 0 0 0 0 0 0 0 0 0 0 0 0 0 0 0 0 0 0 0 0 0 0 0 0 0 0 0 0 0 0 0 0 0 0 0 0 0 0 0 0 0 0 0 0 0 0 0 0 0 0 0 0 0 0 0 0 0 0 0 0 0 0 0 0 0 0 0 0 0 0 0 0 0 0 0 0 0 0 0 0 0 0 0 0 0 0 0 0 0 0 0 0 0 0 0 0 0 0 0 0 0 0 0 0 0 0 0 0 0
				</DataArray>
				<DataArray Name="F3" type="Float32" format="ascii">