<?xml version="1.0"?>
<VTKFile type="PolyData">
	<PolyData>
		<Piece NumberOfPoints="961" NumberOfPolys="900">
			<Points>
				<DataArray type="Float32" NumberOfComponents="3" format="ascii">
 0 0 0 0.04 0 0 0.08 0 0 0.12 0 0 0.16 0 0 0.2 0 0 0.24 0 0 0.28 0 0 0.32 0 0 0.36 0 0 0.4 0 0 0.44 0 0 0.48 0 0 0.52 0 0 0.56 0 0 0.6 0 0 0.64 0 0 0.68 0 0 0.72 0 0 0.76 0 0 0.8 0 0 0.84 0 0 0.88 0 0 0.92 0 0 0.96 0 0 1 0 0 1.04 0 0 1.08 0 0 1.12 0 0 1.16 0 0 1.2 0 0 0 0.04 0 0.04 0.04 0 0.08 0.04 0 0.12 0.04 0 0.16 0.04 0 0.2 0.04 0 0.24 0.04 0 0.28 0.04 0 0.32 0.04 0 0.36 0.04 0 0.4 0.04 0 0.44 0.04 0 0.48 0.04 0 0.52 0.04 0 0.56 0.04 0 0.6 0.04 0 0.64 0.04 0 0.68 0.04 0 0.72 0.04 0 0.76 0.04 0 0.8 0.04 0 0.84 0.04 0 0.88 0.04 0 0.92 0.04 0 0.96 0.04 0 1 0.04 0 1.04 0.04 0 1.08 0.04 0 1.12 0.04 0 1.16 0.04 0 1.2 0.04 0 0 0.08 0 0.04 0.08 0 0.08 0.08 0 0.12 0.08 0 0.16 0.08 0 0.2 0.08 0 0.24 0.08 0 0.28 0.08 0 0.32 0.08 0 0.36 0.08 0 0.4 0.08 0 0.44 0.08 0 0.48 0.08 0 0.52 0.08 0 0.56 0.08 0 0.6 0.08 0 0.64 0.08 0 0.68 0.08 0 0.72 0.08 0 0.76 0.08 0 0.8 0.08 0 0.84 0.08 0 0.88 0.08 0 0.92 0.08 0 0.96 0.08 0 1 0.08 0 1.04 0.08 0 1.08 0.08 0 1.12 0.08 0 1.16 0.08 0 1.2 0.08 0 0 0.12 0 0.04 0.12 0 0.08 0.12 0 0.12 0.12 0 0.16 0.12 0 0.2 0.12 0 0.24 0.12 0 0.28 0.12 0 0.32 0.12 0 0.36 0.12 0 0.4 0.12 0 0.44 0.12 0 0.48 0.12 0 0.52 0.12 0 0.56 0.12 0 0.6 0.12 0 0.64 0.12 0 0.68 0.12 0 0.72 0.12 0 0.76 0.12 0 0.8 0.12 0 0.84 0.12 0 0.88 0.12 0 0.92 0.12 0 0.96 0.12 0 1 0.12 0 1.04 0.12 0 1.08 0.12 0 1.12 0.12 0 1.16 0.12 0 1.2 0.12 0 0 0.16 0 0.04 0.16 0 0.08 0.16 0 0.12 0.16 0 0.16 0.16 0 0.2 0.16 0 0.24 0.16 0 0.28 0.16 0 0.32 0.16 0 0.36 0.16 0 0.4 0.16 0 0.44 0.16 0 0.48 0.16 0 0.52 0.16 0 0.56 0.16 0 0.6 0.16 0 0.64 0.16 0 0.68 0.16 0 0.72 0.16 0 0.76 0.16 0 0.8 0.16 0 0.84 0.16 0 0.88 0.16 0 0.92 0.16 0 0.96 0.16 0 1 0.16 0 1.04 0.16 0 1.08 0.16 0 1.12 0.16 0 1.16 0.16 0 1.2 0.16 0 0 0.2 0 0.04 0.2 0 0.08 0.2 0 0.12 0.2 0 0.16 0.2 0 0.2 0.2 0 0.24 0.2 0 0.28 0.2 0 0.32 0.2 0 0.36 0.2 0 0.4 0.2 0 0.44 0.2 0 0.48 0.2 0 0.52 0.2 0 0.56 0.2 0 0.6 0.2 0 0.64 0.2 0 0.68 0.2 0 0.72 0.2 0 0.76 0.2 0 0.8 0.2 0 0.84 0.2 0 0.88 0.2 0 0.92 0.2 0 0.96 0.2 0 1 0.2 0 1.04 0.2 0 1.08 0.2 0 1.12 0.2 0 1.16 0.2 0 1.2 0.2 0 0 0.24 0 0.04 0.24 0 0.08 0.24 0 0.12 0.24 0 0.16 0.24 0 0.2 0.24 0 0.24 0.24 0 0.28 0.24 0 0.32 0.24 0 0.36 0.24 0 0.4 0.24 0 0.44 0.24 0 0.48 0.24 0 0.52 0.24 0 0.56 0.24 0 0.6 0.24 0 0.64 0.24 0 0.68 0.24 0 0.72 0.24 0 0.76 0.24 0 0.8 0.24 0 0.84 0.24 0 0.88 0.24 0 0.92 0.24 0 0.96 0.24 0 1 0.24 0 1.04 0.24 0 1.08 0.24 0 1.12 0.24 0 1.16 0.24 0 1.2 0.24 0 0 0.28 0 0.04 0.28 0 0.08 0.28 0 0.12 0.28 0 0.16 0.28 0 0.2 0.28 0 0.24 0.28 0 0.28 0.28 0 0.32 0.28 0 0.36 0.28 0 0.4 0.28 0 0.44 0.28 0 0.48 0.28 0 0.52 0.28 0 0.56 0.28 0 0.6 0.28 0 0.64 0.28 0 0.68 0.28 0 0.72 0.28 0 0.76 0.28 0 0.8 0.28 0 0.84 0.28 0 0.88 0.28 0 0.92 0.28 0 0.96 0.28 0 1 0.28 0 1.04 0.28 0 1.08 0.28 0 1.12 0.28 0 1.16 0.28 0 1.2 0.28 0 0 0.32 0 0.04 0.32 0 0.08 0.32 0 0.12 0.32 0 0.16 0.32 0 0.2 0.32 0 0.24 0.32 0 0.28 0.32 0 0.32 0.32 0 0.36 0.32 0 0.4 0.32 0 0.44 0.32 0 0.48 0.32 0 0.52 0.32 0 0.56 0.32 0 0.6 0.32 0 0.64 0.32 0 0.68 0.32 0 0.72 0.32 0 0.76 0.32 0 0.8 0.32 0 0.84 0.32 0 0.88 0.32 0 0.92 0.32 0 0.96 0.32 0 1 0.32 0 1.04 0.32 0 1.08 0.32 0 1.12 0.32 0 1.16 0.32 0 1.2 0.32 0 0 0.36 0 0.04 0.36 0 0.08 0.36 0 0.12 0.36 0 0.16 0.36 0 0.2 0.36 0 0.24 0.36 0 0.28 0.36 0 0.32 0.36 0 0.36 0.36 0 0.4 0.36 0 0.44 0.36 0 0.48 0.36 0 0.52 0.36 0 0.56 0.36 0 0.6 0.36 0 0.64 0.36 0 0.68 0.36 0 0.72 0.36 0 0.76 0.36 0 0.8 0.36 0 0.84 0.36 0 0.88 0.36 0 0.92 0.36 0 0.96 0.36 0 1 0.36 0 1.04 0.36 0 1.08 0.36 0 1.12 0.36 0 1.16 0.36 0 1.2 0.36 0 0 0.4 0 0.04 0.4 0 0.08 0.4 0 0.12 0.4 0 0.16 0.4 0 0.2 0.4 0 0.24 0.4 0 0.28 0.4 0 0.32 0.4 0 0.36 0.4 0 0.4 0.4 0 0.44 0.4 0 0.48 0.4 0 0.52 0.4 0 0.56 0.4 0 0.6 0.4 0 0.64 0.4 0 0.68 0.4 0 0.72 0.4 0 0.76 0.4 0 0.8 0.4 0 0.84 0.4 0 0.88 0.4 0 0.92 0.4 0 0.96 0.4 0 1 0.4 0 1.04 0.4 0 1.08 0.4 0 1.12 0.4 0 1.16 0.4 0 1.2 0.4 0 0 0.44 0 0.04 0.44 0 0.08 0.44 0 0.12 0.44 0 0.16 0.44 0 0.2 0.44 0 0.24 0.44 0 0.28 0.44 0 0.32 0.44 0 0.36 0.44 0 0.4 0.44 0 0.44 0.44 0 0.48 0.44 0 0.52 0.44 0 0.56 0.44 0 0.6 0.44 0 0.64 0.44 0 0.68 0.44 0 0.72 0.44 0 0.76 0.44 0 0.8 0.44 0 0.84 0.44 0 0.88 0.44 0 0.92 0.44 0 0.96 0.44 0 1 0.44 0 1.04 0.44 0 1.08 0.44 0 1.12 0.44 0 1.16 0.44 0 1.2 0.44 0 0 0.48 0 0.04 0.48 0 0.08 0.48 0 0.12 0.48 0 0.16 0.48 0 0.2 0.48 0 0.24 0.48 0 0.28 0.48 0 0.32 0.48 0 0.36 0.48 0 0.4 0.48 0 0.44 0.48 0 0.48 0.48 0 0.52 0.48 0 0.56 0.48 0 0.6 0.48 0 0.64 0.48 0 0.68 0.48 0 0.72 0.48 0 0.76 0.48 0 0.8 0.48 0 0.84 0.48 0 0.88 0.48 0 0.92 0.48 0 0.96 0.48 0 1 0.48 0 1.04 0.48 0 1.08 0.48 0 1.12 0.48 0 1.16 0.48 0 1.2 0.48 0 0 0.52 0 0.04 0.52 0 0.08 0.52 0 0.12 0.52 0 0.16 0.52 0 0.2 0.52 0 0.24 0.52 0 0.28 0.52 0 0.32 0.52 0 0.36 0.52 0 0.4 0.52 0 0.44 0.52 0 0.48 0.52 0 0.52 0.52 0 0.56 0.52 0 0.6 0.52 0 0.64 0.52 0 0.68 0.52 0 0.72 0.52 0 0.76 0.52 0 0.8 0.52 0 0.84 0.52 0 0.88 0.52 0 0.92 0.52 0 0.96 0.52 0 1 0.52 0 1.04 0.52 0 1.08 0.52 0 1.12 0.52 0 1.16 0.52 0 1.2 0.52 0 0 0.56 0 0.04 0.56 0 0.08 0.56 0 0.12 0.56 0 0.16 0.56 0 0.2 0.56 0 0.24 0.56 0 0.28 0.56 0 0.32 0.56 0 0.36 0.56 0 0.4 0.56 0 0.44 0.56 0 0.48 0.56 0 0.52 0.56 0 0.56 0.56 0 0.6 0.56 0 0.64 0.56 0 0.68 0.56 0 0.72 0.56 0 0.76 0.56 0 0.8 0.56 0 0.84 0.56 0 0.88 0.56 0 0.92 0.56 0 0.96 0.56 0 1 0.56 0 1.04 0.56 0 1.08 0.56 0 1.12 0.56 0 1.16 0.56 0 1.2 0.56 0 0 0.6 0 0.04 0.6 0 0.08 0.6 0 0.12 0.6 0 0.16 0.6 0 0.2 0.6 0 0.24 0.6 0 0.28 0.6 0 0.32 0.6 0 0.36 0.6 0 0.4 0.6 0 0.44 0.6 0 0.48 0.6 0 0.52 0.6 0 0.56 0.6 0 0.6 0.6 0 0.64 0.6 0 0.68 0.6 0 0.72 0.6 0 0.76 0.6 0 0.8 0.6 0 0.84 0.6 0 0.88 0.6 0 0.92 0.6 0 0.96 0.6 0 1 0.6 0 1.04 0.6 0 1.08 0.6 0 1.12 0.6 0 1.16 0.6 0 1.2 0.6 0 0 0.64 0 0.04 0.64 0 0.08 0.64 0 0.12 0.64 0 0.16 0.64 0 0.2 0.64 0 0.24 0.64 0 0.28 0.64 0 0.32 0.64 0 0.36 0.64 0 0.4 0.64 0 0.44 0.64 0 0.48 0.64 0 0.52 0.64 0 0.56 0.64 0 0.6 0.64 0 0.64 0.64 0 0.68 0.64 0 0.72 0.64 0 0.76 0.64 0 0.8 0.64 0 0.84 0.64 0 0.88 0.64 0 0.92 0.64 0 0.96 0.64 0 1 0.64 0 1.04 0.64 0 1.08 0.64 0 1.12 0.64 0 1.16 0.64 0 1.2 0.64 0 0 0.68 0 0.04 0.68 0 0.08 0.68 0 0.12 0.68 0 0.16 0.68 0 0.2 0.68 0 0.24 0.68 0 0.28 0.68 0 0.32 0.68 0 0.36 0.68 0 0.4 0.68 0 0.44 0.68 0 0.48 0.68 0 0.52 0.68 0 0.56 0.68 0 0.6 0.68 0 0.64 0.68 0 0.68 0.68 0 0.72 0.68 0 0.76 0.68 0 0.8 0.68 0 0.84 0.68 0 0.88 0.68 0 0.92 0.68 0 0.96 0.68 0 1 0.68 0 1.04 0.68 0 1.08 0.68 0 1.12 0.68 0 1.16 0.68 0 1.2 0.68 0 0 0.72 0 0.04 0.72 0 0.08 0.72 0 0.12 0.72 0 0.16 0.72 0 0.2 0.72 0 0.24 0.72 0 0.28 0.72 0 0.32 0.72 0 0.36 0.72 0 0.4 0.72 0 0.44 0.72 0 0.48 0.72 0 0.52 0.72 0 0.56 0.72 0 0.6 0.72 0 0.64 0.72 0 0.68 0.72 0 0.72 0.72 0 0.76 0.72 0 0.8 0.72 0 0.84 0.72 0 0.88 0.72 0 0.92 0.72 0 0.96 0.72 0 1 0.72 0 1.04 0.72 0 1.08 0.72 0 1.12 0.72 0 1.16 0.72 0 1.2 0.72 0 0 0.76 0 0.04 0.76 0 0.08 0.76 0 0.12 0.76 0 0.16 0.76 0 0.2 0.76 0 0.24 0.76 0 0.28 0.76 0 0.32 0.76 0 0.36 0.76 0 0.4 0.76 0 0.44 0.76 0 0.48 0.76 0 0.52 0.76 0 0.56 0.76 0 0.6 0.76 0 0.64 0.76 0 0.68 0.76 0 0.72 0.76 0 0.76 0.76 0 0.8 0.76 0 0.84 0.76 0 0.88 0.76 0 0.92 0.76 0 0.96 0.76 0 1 0.76 0 1.04 0.76 0 1.08 0.76 0 1.12 0.76 0 1.16 0.76 0 1.2 0.76 0 0 0.8 0 0.04 0.8 0 0.08 0.8 0 0.12 0.8 0 0.16 0.8 0 0.2 0.8 0 0.24 0.8 0 0.28 0.8 0 0.32 0.8 0 0.36 0.8 0 0.4 0.8 0 0.44 0.8 0 0.48 0.8 0 0.52 0.8 0 0.56 0.8 0 0.6 0.8 0 0.64 0.8 0 0.68 0.8 0 0.72 0.8 0 0.76 0.8 0 0.8 0.8 0 0.84 0.8 0 0.88 0.8 0 0.92 0.8 0 0.96 0.8 0 1 0.8 0 1.04 0.8 0 1.08 0.8 0 1.12 0.8 0 1.16 0.8 0 1.2 0.8 0 0 0.84 0 0.04 0.84 0 0.08 0.84 0 0.12 0.84 0 0.16 0.84 0 0.2 0.84 0 0.24 0.84 0 0.28 0.84 0 0.32 0.84 0 0.36 0.84 0 0.4 0.84 0 0.44 0.84 0 0.48 0.84 0 0.52 0.84 0 0.56 0.84 0 0.6 0.84 0 0.64 0.84 0 0.68 0.84 0 0.72 0.84 0 0.76 0.84 0 0.8 0.84 0 0.84 0.84 0 0.88 0.84 0 0.92 0.84 0 0.96 0.84 0 1 0.84 0 1.04 0.84 0 1.08 0.84 0 1.12 0.84 0 1.16 0.84 0 1.2 0.84 0 0 0.88 0 0.04 0.88 0 0.08 0.88 0 0.12 0.88 0 0.16 0.88 0 0.2 0.88 0 0.24 0.88 0 0.28 0.88 0 0.32 0.88 0 0.36 0.88 0 0.4 0.88 0 0.44 0.88 0 0.48 0.88 0 0.52 0.88 0 0.56 0.88 0 0.6 0.88 0 0.64 0.88 0 0.68 0.88 0 0.72 0.88 0 0.76 0.88 0 0.8 0.88 0 0.84 0.88 0 0.88 0.88 0 0.92 0.88 0 0.96 0.88 0 1 0.88 0 1.04 0.88 0 1.08 0.88 0 1.12 0.88 0 1.16 0.88 0 1.2 0.88 0 0 0.92 0 0.04 0.92 0 0.08 0.92 0 0.12 0.92 0 0.16 0.92 0 0.2 0.92 0 0.24 0.92 0 0.28 0.92 0 0.32 0.92 0 0.36 0.92 0 0.4 0.92 0 0.44 0.92 0 0.48 0.92 0 0.52 0.92 0 0.56 0.92 0 0.6 0.92 0 0.64 0.92 0 0.68 0.92 0 0.72 0.92 0 0.76 0.92 0 0.8 0.92 0 0.84 0.92 0 0.88 0.92 0 0.92 0.92 0 0.96 0.92 0 1 0.92 0 1.04 0.92 0 1.08 0.92 0 1.12 0.92 0 1.16 0.92 0 1.2 0.92 0 0 0.96 0 0.04 0.96 0 0.08 0.96 0 0.12 0.96 0 0.16 0.96 0 0.2 0.96 0 0.24 0.96 0 0.28 0.96 0 0.32 0.96 0 0.36 0.96 0 0.4 0.96 0 0.44 0.96 0 0.48 0.96 0 0.52 0.96 0 0.56 0.96 0 0.6 0.96 0 0.64 0.96 0 0.68 0.96 0 0.72 0.96 0 0.76 0.96 0 0.8 0.96 0 0.84 0.96 0 0.88 0.96 0 0.92 0.96 0 0.96 0.96 0 1 0.96 0 1.04 0.96 0 1.08 0.96 0 1.12 0.96 0 1.16 0.96 0 1.2 0.96 0 0 1 0 0.04 1 0 0.08 1 0 0.12 1 0 0.16 1 0 0.2 1 0 0.24 1 0 0.28 1 0 0.32 1 0 0.36 1 0 0.4 1 0 0.44 1 0 0.48 1 0 0.52 1 0 0.56 1 0 0.6 1 0 0.64 1 0 0.68 1 0 0.72 1 0 0.76 1 0 0.8 1 0 0.84 1 0 0.88 1 0 0.92 1 0 0.96 1 0 1 1 0 1.04 1 0 1.08 1 0 1.12 1 0 1.16 1 0 1.2 1 0 0 1.04 0 0.04 1.04 0 0.08 1.04 0 0.12 1.04 0 0.16 1.04 0 0.2 1.04 0 0.24 1.04 0 0.28 1.04 0 0.32 1.04 0 0.36 1.04 0 0.4 1.04 0 0.44 1.04 0 0.48 1.04 0 0.52 1.04 0 0.56 1.04 0 0.6 1.04 0 0.64 1.04 0 0.68 1.04 0 0.72 1.04 0 0.76 1.04 0 0.8 1.04 0 0.84 1.04 0 0.88 1.04 0 0.92 1.04 0 0.96 1.04 0 1 1.04 0 1.04 1.04 0 1.08 1.04 0 1.12 1.04 0 1.16 1.04 0 1.2 1.04 0 0 1.08 0 0.04 1.08 0 0.08 1.08 0 0.12 1.08 0 0.16 1.08 0 0.2 1.08 0 0.24 1.08 0 0.28 1.08 0 0.32 1.08 0 0.36 1.08 0 0.4 1.08 0 0.44 1.08 0 0.48 1.08 0 0.52 1.08 0 0.56 1.08 0 0.6 1.08 0 0.64 1.08 0 0.68 1.08 0 0.72 1.08 0 0.76 1.08 0 0.8 1.08 0 0.84 1.08 0 0.88 1.08 0 0.92 1.08 0 0.96 1.08 0 1 1.08 0 1.04 1.08 0 1.08 1.08 0 1.12 1.08 0 1.16 1.08 0 1.2 1.08 0 0 1.12 0 
[...]
			<CellData Scalars="Density">
				<DataArray Name="Density" type="Float32" format="ascii">
 0.00552975 0.00566083 0.00600017 0.00666643 0.00778639 0.00953118 0.0121371 0.0159199 0.0213046 0.0288361 0.0392441 0.0536052 0.0736189 0.101811 0.140154 0.180626 0.210833 0.22453 0.268449 0.329643 0.414774 0.523284 0.654842 0.813235 1.00939 1.23063 1.42176 1.57654 1.7011 1.76745 0.0056607 0.00575072 0.00601403 0.00656441 0.00748287 0.00896611 0.0112779 0.0147278 0.0197933 0.02715 0.0376973 0.0526298 0.0735879 0.102603 0.14154 0.183272 0.215849 0.23018 0.275559 0.3396 0.427928 0.541717 0.680378 0.845202 1.04342 1.25724 1.44395 1.59977 1.72192 1.76921 0.00599954 0.00601371 0.00615354 0.00655817 0.00731015 0.00850692 0.0104426 0.0135287 0.0182606 0.0253047 0.0355279 0.0500279 0.0703212 0.0981299 0.134645 0.173677 0.204544 0.219032 0.261738 0.322094 0.408261 0.51816 0.652789 0.815019 1.01584 1.24547 1.44531 1.60549 1.73454 1.80413 0.00666434 0.00656296 0.00655705 0.00683886 0.00745048 0.00855371 0.0103878 0.0133861 0.0181347 0.0252824 0.0357003 0.0505951 0.0716763 0.101436 0.139731 0.179417 0.210646 0.227084 0.270064 0.328854 0.414453 0.526318 0.663936 0.828512 1.02867 1.25968 1.46324 1.62594 1.75114 1.80069 0.00778151 0.00747917 0.00730679 0.00744824 0.00789866 0.00879017 0.0105371 0.0135701 0.0186098 0.0263017 0.037468 0.0531976 0.0751376 0.105421 0.144062 0.183257 0.215279 0.234219 0.275274 0.332425 0.415135 0.526275 0.664311 0.831187 1.03413 1.26307 1.46325 1.62238 1.74506 1.79986 0.0095219 0.00895835 0.00849968 0.00854825 0.00878677 0.00925945 0.0105207 0.0131709 0.0179091 0.0258145 0.0373495 0.0535003 0.0757761 0.105967 0.144414 0.184989 0.220674 0.243296 0.280994 0.336886 0.416306 0.525857 0.662894 0.829939 1.03547 1.26625 1.46513 1.62006 1.73906 1.79095 0.012122 0.011266 0.0104301 0.0103785 0.0105279 0.0105103 0.0109005 0.012668 0.0162693 0.0227849 0.0333093 0.0487362 0.0703529 0.100096 0.139315 0.184333 0.224526 0.254632 0.289971 0.343361 0.419509 0.527042 0.662334 0.827002 1.03172 1.25977 1.45476 1.60461 1.72134 1.77325 0.0158976 0.0147105 0.0135097 0.0133726 0.0135551 0.0131548 0.0126672 0.0130086 0.0152745 0.0200125 0.0284019 0.04172 0.06149 0.0897803 0.128184 0.175279 0.221728 0.263464 0.29686 0.346358 0.419053 0.522189 0.6538 0.814497 1.01402 1.24445 1.44562 1.60322 1.72745 1.78487 0.0212758 0.0197696 0.0182343 0.0181176 0.0185891 0.017875 0.0162709 0.0152679 0.0154656 0.0184585 0.0244039 0.0349993 0.0520426 0.0777421 0.114206 0.161481 0.215283 0.264289 0.301944 0.349658 0.417179 0.513302 0.640994 0.799101 0.996363 1.23765 1.45605 1.6271 1.76167 1.82614 0.0288065 0.0271185 0.0252692 0.0252658 0.0262735 0.0257606 0.0227933 0.0200011 0.0184428 0.0186225 0.0225275 0.0302173 0.0440375 0.0663206 0.0991328 0.144267 0.200198 0.255932 0.307289 0.351801 0.412645 0.501588 0.625581 0.78149 0.978897 1.23209 1.47987 1.67483 1.82367 1.89547 0.0392197 0.0376545 0.0354823 0.0356818 0.0374293 0.0372712 0.033342 0.0283964 0.0243848 0.0225024 0.0228906 0.0280406 0.0381589 0.0563807 0.0849928 0.125733 0.179275 0.242696 0.302781 0.353031 0.410395 0.49113 0.609119 0.76524 0.96582 1.22992 1.51705 1.74831 1.91776 1.99223 0.0535843 0.0525819 0.0499759 0.0505763 0.0531526 0.0534227 0.0487912 0.0417356 0.0349734 0.0301689 0.0280131 0.0285388 0.0353245 0.0488333 0.0726229 0.108712 0.158167 0.22102 0.289041 0.353365 0.409222 0.482556 0.592736 0.74808 0.950419 1.22213 1.55412 1.83036 2.0278 2.11025 0.073598 0.0735489 0.0702728 0.071661 0.0750921 0.075707 0.0704159 0.0614928 0.052009 0.0439603 0.0381343 0.0353398 0.0358882 0.0447272 0.0624818 0.0931722 0.137886 0.197555 0.269823 0.343644 0.407666 0.476071 0.575341 0.727381 0.935323 1.21397 1.58535 1.91862 2.15283 2.24318 0.101795 0.102571 0.0980943 0.101412 0.105369 0.105945 0.100163 0.0897528 0.0777481 0.0662471 0.0563657 0.0488679 0.0447235 0.04545 0.0568747 0.079997 0.11888 0.174116 0.248095 0.329048 0.406517 0.474175 0.565129 0.709909 0.921611 1.20955 1.60964 2.00164 2.2828 2.39428 0.140148 0.141518 0.134603 0.139657 0.144038 0.144433 0.139328 0.128111 0.114296 0.099108 0.0850449 0.072687 0.0624627 0.0568623 0.0583929 0.0731919 0.103167 0.152477 0.223228 0.310773 0.401798 0.479801 0.563935 0.696039 0.908936 1.20983 1.63536 2.08843 2.42543 2.56808 0.180631 0.18326 0.173663 0.179369 0.183254 0.184939 0.184317 0.17532 0.161636 0.144295 0.125928 0.108768 0.0931245 0.0799633 0.0731254 0.0760905 0.0959632 0.135051 0.19987 0.289527 0.390984 0.487504 0.571448 0.69521 0.90161 1.21306 1.66291 2.18026 2.58597 2.77183 0.210882 0.21589 0.20459 0.210668 0.21528 0.220603 0.224547 0.221671 0.215265 0.200311 0.179576 0.158231 0.137899 0.11881 0.103025 0.0958856 0.101775 0.129194 0.182016 0.269097 0.379746 0.496393 0.592367 0.707976 0.90556 1.22218 1.69028 2.28002 2.76793 3.00761 0.22462 0.230276 0.219083 0.227065 0.234227 0.243403 0.254689 0.263308 0.264363 0.256053 0.242949 0.22105 0.197845 0.174245 0.152462 0.134865 0.129 0.140454 0.179777 0.253322 0.371223 0.501965 0.621785 0.732672 0.920815 1.23996 1.7171 2.37614 2.9611 3.26972 0.268548 0.275632 0.261809 0.270122 0.275328 0.280953 0.289837 0.296941 0.302087 0.307282 0.303056 0.289149 0.270082 0.248239 0.223279 0.199857 0.18161 0.179484 0.200542 0.25785 0.365251 0.513425 0.664371 0.78352 0.951701 1.26866 1.75726 2.4711 3.16748 3.55974 0.329764 0.339692 0.322175 0.328885 0.332456 0.336915 0.343464 0.346405 0.349369 0.351837 0.353271 0.353465 0.343874 0.329405 0.311045 0.289768 0.268902 0.252782 0.257476 0.295615 0.384276 0.54007 0.711654 0.859256 1.00859 1.31149 1.80793 2.56386 3.38722 3.88835 0.414903 0.428016 0.408356 0.414506 0.415213 0.416329 0.419469 0.419019 0.417225 0.412809 0.41015 0.409091 0.407873 0.406861 0.402024 0.391311 0.379881 0.37112 0.364763 0.38391 0.450885 0.59331 0.777663 0.963577 1.10891 1.37026 1.85996 2.64976 3.61034 4.25132 0.523439 0.541825 0.518283 0.526356 0.526286 0.525923 0.52708 0.522198 0.513311 0.501578 0.491173 0.482772 0.476037 0.474223 0.479962 0.487856 0.496756 0.502234 0.513404 0.539503 0.59284 0.711838 0.901444 1.09837 1.26652 1.4721 1.93847 2.74196 3.83723 4.65275 0.655009 0.680486 0.652941 0.66411 0.664351 0.662925 0.662454 0.653823 0.641001 0.625611 0.609129 0.592729 0.575371 0.565149 0.56399 0.57147 0.592544 0.621951 0.664571 0.711744 0.777429 0.901286 1.10096 1.29491 1.48219 1.65565 2.04974 2.83431 4.06123 5.1024 0.813447 0.845378 0.815195 0.828651 0.831363 0.829999 0.827143 0.814627 0.799168 0.781535 0.765266 0.748099 0.727295 0.709817 0.696001 0.695034 0.708119 0.732806 0.78369 0.859422 0.963807 1.09852 1.29484 1.58687 1.78069 1.94886 2.2455 2.98305 4.29326 5.60908 1.0096 1.04355 1.01605 1.02877 1.03426 1.03559 1.03182 1.01409 0.996567 0.979021 0.965742 0.950468 0.935271 0.921539 0.908931 0.901649 0.905638 0.920666 0.951508 1.00844 1.10892 1.26677 1.48286 1.78149 2.15094 2.35429 2.58109 3.20467 4.55333 6.2028 1.23089 1.25745 1.24573 1.25987 1.26327 1.26645 1.26 1.2446 1.23782 1.23244 1.22994 1.22199 1.21393 1.20944 1.20976 1.21281 1.22205 1.23985 1.26853 1.3113 1.37039 1.47252 1.65628 1.94965 2.35527 2.82095 3.12581 3.6 4.89607 6.95802 1.42205 1.44421 1.44561 1.46348 1.46348 1.4654 1.45507 1.44587 1.45627 1.48004 1.51717 1.55395 1.58498 1.60959 1.63525 1.66259 1.68986 1.71692 1.75736 1.80794 1.85987 1.93853 2.05012 2.24637 2.58229 3.12686 3.76274 4.33239 5.45031 7.79744 1.57686 1.60007 1.60583 1.62627 1.62267 1.62037 1.60498 1.60352 1.62741 1.67495 1.74831 1.83011 1.91815 2.00145 2.08834 2.18014 2.2798 2.37587 2.4713 2.56392 2.64993 2.74213 2.83483 2.98377 3.20554 3.60116 4.33363 5.01985 6.19623 9.45546 1.70145 1.72227 1.73491 1.75153 1.74544 1.73943 1.72169 1.72779 1.76195 1.82384 1.91771 2.02756 2.15231 2.28238 2.42529 2.586 2.768 2.96114 3.16773 3.38768 3.61072 3.83748 4.06162 4.29374 4.55395 4.8968 5.45137 6.19692 7.71072 13.1525 1.76782 1.76959 1.8045 1.80103 1.80026 1.79136 1.77354 1.78524 1.82634 1.89566 1.99227 2.10995 2.24283 2.39353 2.56758 2.77157 3.00786 3.2698 3.55998 3.88874 4.25183 4.65322 5.10289 5.60955 6.20333 6.95855 7.79797 9.45601 13.1529 14.6377
				</DataArray>
				<DataArray Name="Energy" type="Float32" format="ascii">
 940.609 918.831 866.807 780.107 667.778 545.459 428.172 326.23 243.536 179.645 131.668 95.9341 69.2407 49.2327 34.2771 23.4966 15.731 11.0044 8.32012 6.55091 5.34004 4.41432 3.69055 3.12753 2.68411 2.34594 2.126 1.98418 1.90935 1.87277 918.847 904.52 864.878 792.231 694.905 579.763 460.765 352.638 262.143 190.833 137.035 97.6861 69.3006 48.8553 33.8726 23.2021 15.5359 10.8451 8.13202 6.36 5.11908 4.19517 3.48572 2.94265 2.52864 2.24042 2.05597 1.94143 1.87737 1.83709 866.891 864.923 845.118 792.928 711.165 611.002 497.507 383.788 284.062 204.65 145.412 102.785 72.4881 51.0226 35.6253 24.6074 16.6307 11.6711 8.74203 6.81842 5.47896 4.46979 3.69946 3.1138 2.66011 2.31057 2.08285 1.93546 1.85977 1.82334 780.343 792.397 793.062 760.172 697.692 607.446 500.057 387.776 285.965 204.809 144.613 101.608 71.1413 49.4491 34.3716 23.8587 16.3011 11.5577 8.68976 6.82002 5.47787 4.47696 3.6975 3.09602 2.62954 2.28545 2.06446 1.92578 1.84938 1.80532 668.18 695.244 711.481 697.897 657.799 590.991 492.716 382.434 278.581 196.821 137.898 96.7212 68.0204 47.6853 33.4299 23.5696 16.3429 11.7044 8.82819 6.94676 5.56864 4.5638 3.77246 3.1589 2.68013 2.32402 2.09501 1.95008 1.87245 1.83072 545.981 580.256 611.515 607.824 591.2 560.689 493.326 393.722 289.37 200.439 138.19 96.1223 67.3116 47.363 33.3556 23.5965 16.6076 12.0159 9.04355 7.10848 5.68411 4.67039 3.86362 3.23314 2.73726 2.36928 2.13524 1.98801 1.90731 1.86266 428.695 461.243 498.095 500.493 493.141 493.809 475.7 409.119 318.157 226.911 154.838 105.413 72.6026 50.3176 34.8467 24.3604 17.2591 12.4343 9.26767 7.25856 5.79153 4.77147 3.958 3.31715 2.81304 2.44172 2.20611 2.0559 1.97108 1.92277 326.679 353.046 384.309 388.162 382.857 394.212 409.158 397.885 338.568 257.94 181.369 122.999 82.892 55.9941 38.1032 26.196 18.4918 13.1806 9.75073 7.54655 5.99137 4.92734 4.10233 3.44981 2.93037 2.53745 2.28331 2.11758 2.02095 1.96609 243.858 262.459 284.453 286.224 278.899 289.928 318.143 338.729 333.806 279.302 210.742 146.466 97.9107 64.876 43.1957 29.1334 20.1626 14.3356 10.5016 7.9702 6.3123 5.13454 4.2795 3.59992 3.05089 2.61678 2.33279 2.14645 2.0361 1.97624 179.827 191.05 204.917 204.943 197.028 200.873 226.834 258.102 279.553 276.303 227.942 169.411 115.75 76.1827 50.0166 33.3021 22.6296 16.0071 11.5061 8.6065 6.74039 5.40195 4.49116 3.76167 3.17311 2.68761 2.35783 2.14489 2.01912 1.95448 131.75 137.174 145.586 144.68 138.047 138.479 154.699 181.409 210.914 228.206 223.898 182.297 133.399 89.6888 58.7782 38.8236 26.1563 18.1301 12.9173 9.5033 7.27667 5.76834 4.72751 3.93086 3.28264 2.74914 2.35777 2.11517 1.97467 1.90342 95.9653 97.7626 102.88 101.64 96.8016 96.2592 105.296 122.965 146.576 169.684 182.476 178.787 144.022 103.708 69.1549 45.5175 30.5382 20.9077 14.8466 10.6863 8.00136 6.2658 5.01267 4.13531 3.41257 2.81818 2.3602 2.08419 1.93075 1.85409 69.2541 69.3262 72.5332 71.1461 68.0582 67.3643 72.5393 82.892 97.9782 115.959 133.483 143.958 141.622 113.307 80.8049 53.8147 35.8365 24.4795 17.135 12.2711 8.99266 6.86116 5.39261 4.37429 3.56729 2.89784 2.37696 2.07011 1.90555 1.8221 49.2366 48.8647 51.0329 49.4497 47.7026 47.3669 50.286 56.0114 64.8785 76.2776 89.7084 103.641 113.317 111.672 89.3006 63.4803 42.466 28.737 19.8696 14.2339 10.2418 7.62707 5.90712 4.66398 3.75936 3.00748 2.41694 2.07246 1.89456 1.80654 34.2762 33.8747 35.6314 34.3803 33.4315 33.3502 34.8393 38.1201 43.1765 50.0247 58.7495 69.1006 80.8296 89.3207 87.516 70.212 50.1051 33.8697 23.3512 16.3927 11.7827 8.57043 6.47146 5.00366 3.97252 3.13995 2.48253 2.0878 1.89446 1.80132 23.4956 23.2045 24.6108 23.86 23.5757 23.6002 24.3547 26.1949 29.1041 33.292 38.7756 45.4847 53.8473 63.4994 70.2714 68.3113 55.0837 39.7344 27.295 19.0443 13.536 9.67872 7.12752 5.40862 4.21102 3.29648 2.57351 2.1211 1.90784 1.80762 15.7312 15.5389 16.6313 16.3026 16.348 16.61 17.2597 18.4915 20.1545 22.6232 26.103 30.5282 35.8269 42.48 50.1696 55.1285 53.0517 42.9543 31.4573 22.0077 15.4805 11.0174 7.92108 5.87987 4.48205 3.47728 2.68823 2.17285 1.93148 1.82016 11.0054 10.8468 11.6732 11.5631 11.7084 12.0141 12.432 13.1834 14.3357 15.9936 18.11 20.9035 24.4361 28.7231 33.8764 39.7814 43.0221 41.0333 33.431 24.8427 17.6368 12.4147 8.79773 6.39933 4.78825 3.6783 2.82605 2.238 1.96017 1.83502 8.32059 8.13296 8.74255 8.69065 8.8294 9.04618 9.2729 9.75208 10.4948 11.5012 12.9145 14.8278 17.1223 19.8516 23.3418 27.3003 31.5233 33.4893 31.6612 25.9914 19.554 13.9143 9.80129 6.98469 5.11985 3.89121 2.98719 2.32304 1.99514 1.85194 6.55108 6.36039 6.81873 6.82133 6.9483 7.10952 7.25818 7.54725 7.97435 8.60947 9.49501 10.6768 12.2625 14.2199 16.3786 19.0283 22.0292 24.8915 26.034 24.3932 20.2215 15.2787 10.8248 7.60201 5.48567 4.11535 3.15532 2.43009 2.03608 1.87006 5.34015 5.11926 5.47921 5.47844 5.56954 5.68484 5.79251 5.99234 6.31143 6.73828 7.27679 8.00422 8.98633 10.2321 11.7692 13.5242 15.4739 17.6453 19.5774 20.2435 18.7968 15.6734 11.7327 8.30951 5.89087 4.34694 3.32223 2.5499 2.0815 1.88774 4.41457 4.19554 4.46993 4.47727 4.56419 4.671 4.772 4.92762 5.13522 5.40206 5.76752 6.26346 6.86066 7.62636 8.56604 9.67177 11.0082 12.408 13.9166 15.2923 15.6849 14.5321 12.0304 9.02127 6.3465 4.60757 3.49906 2.68159 2.13377 1.90538 3.69092 3.48614 3.69976 3.69826 3.77287 3.86381 3.95862 4.10251 4.27948 4.49104 4.72748 5.01221 5.39206 5.90583 6.47073 7.12368 7.91597 8.79293 9.79605 10.8225 11.7356 12.0323 11.0689 9.22616 6.86476 4.9024 3.67593 2.81536 2.19369 1.9221 3.12804 2.94319 3.11409 3.0964 3.15949 3.23326 3.31733 3.45037 3.59994 3.76137 3.93133 4.13514 4.37444 4.66311 5.00336 5.40754 5.87834 6.3962 6.98013 7.59763 8.30662 9.02017 9.22722 8.38732 7.09615 5.24822 3.85085 2.94007 2.26608 1.93875 2.68459 2.52908 2.6605 2.62986 2.68049 2.73759 2.81312 2.93059 3.05119 3.17305 3.28259 3.4127 3.56802 3.75955 3.97231 4.21064 4.48196 4.78771 5.11962 5.48529 5.88992 6.34461 6.86243 7.09416 6.40431 5.41489 4.0485 3.05079 2.35815 1.95637 2.34638 2.24083 2.31094 2.28576 2.32429 2.3695 2.44182 2.53758 2.61691 2.6878 2.74944 2.81826 2.8984 3.00826 3.14008 3.29635 3.47779 3.67887 3.89153 4.11491 4.34632 4.60667 4.9014 5.24726 5.41401 4.96067 4.13724 3.16468 2.44727 1.97547 2.12641 2.05634 2.08318 2.06472 2.0952 2.13538 2.20617 2.28338 2.3329 2.35814 2.3582 2.36066 2.37752 2.41732 2.48299 2.57388 2.68846 2.82634 2.98755 3.15519 3.32219 3.49931 3.67608 3.85055 4.04783 4.13665 3.83758 3.19268 2.56128 1.98269 1.98456 1.94177 1.93578 1.92603 1.95021 1.98809 2.05596 2.11764 2.14656 2.14517 2.11557 2.08472 2.07065 2.07259 2.08799 2.12141 2.17296 2.238 2.323 2.43009 2.54982 2.68159 2.81536 2.94006 3.05065 3.16442 3.19237 2.90214 2.48325 2.05858 1.90971 1.8777 1.86006 1.84963 1.87259 1.9074 1.97112 2.02098 2.03621 2.01939 1.97506 1.93123 1.906 1.89466 1.89456 1.90794 1.93146 1.96001 1.99502 2.03608 2.08148 2.13395 2.19381 2.26625 2.35824 2.44726 2.56118 2.48311 2.38084 2.07333 1.87311 1.83742 1.82362 1.80552 1.83084 1.86275 1.92279 1.96613 1.97629 1.95475 1.90386 1.8545 1.82253 1.80662 1.80139 1.80755 1.82008 1.83488 1.85186 1.87003 1.88778 1.90547 1.92221 1.93887 1.95647 1.97555 1.98273 2.05858 2.07331 1.75684
				</DataArray>
				<DataArray Name="F1" type="Float32" format="ascii">
 1 1 1 1 1 1 1 1 1 1 1 1 1 1 1 1 1 1 1 1 1 1 1 1 1 1 1 1 1 1 1 1 1 1 1 1 1 1 1 1 1 1 1 1 1 1 1 1 1 1 1 1 1 1 1 1 1 1 1 1 1 1 1 1 1 1 1 1 1 1 1 1 1 1 1 1 1 1 1 1 1 1 1 1 1 1 1 1 1 1 1 1 1 1 1 1 1 1 1 1 1 1 1 1 1 1 1 1 1 1 1 1 1 1 1 1 1 1 1 1 1 1 1 1 1 1 1 1 1 1 1 1 1 1 1 1 1 1 1 1 1 1 1 1 1 1 1 1 1 1 1 1 1 1 1 1 1 1 1 1 1 1 1 1 1 1 1 1 1 1 1 1 1 1 1 1 1 1 1 1 1 1 1 1 1 1 1 1 1 1 1 1 1 1 1 1 1 1 1 1 1 1 1 1 1 1 1 1 1 1 1 1 1 1 1 1 1 1 1 1 1 1 1 1 1 1 1 1 1 1 1 1 1 1 1 1 1 1 1 1 1 1 1 1 1 1 1 1 1 1 1 1 1 1 1 1 1 1 1 1 1 1 1 1 1 1 1 1 1 1 1 1 1 1 1 1 1 1 1 1 1 1 1 1 1 1 1 1 1 1 1 1 1 1 1 1 1 1 1 1 1 1 1 1 1 1 1 1 1 1 1 1 1 1 1 1 1 1 1 1 1 1 1 1 1 1 1 1 1 1 1 1 1 1 1 1 1 1 1 1 1 1 1 1 1 1 1 1 1 1 1 1 1 1 1 1 1 1 1 1 1 1 1 1 1 1 1 1 1 1 1 1 1 1 1 1 1 1 1 1 1 1 1 1 1 1 1 1 1 1 1 1 1 1 1 1 1 1 1 1 1 1 1 1 1 1 1 1 1 1 1 1 1 1 1 1 1 1 1 1 1 1 1 1 1 1 1 1 1 1 1 1 1 1 1 1 1 1 1 1 1 1 1 1 1 1 1 1 1 1 1 1 1 1 1 1 1 1 1 1 1 1 1 1 1 1 1 1 1 1 1 1 1 1 1 1 1 1 1 1 1 1 1 1 1 1 1 1 1 1 1 1 1 1 1 1 1 1 1 1 1 1 1 1 1 1 1 1 1 1 1 1 1 1 1 1 1 1 1 1 1 1 1 1 1 1 1 1 1 1 1 1 1 1 1 1 1 1 1 1 1 1 1 1 1 1 1 1 1 1 1 1 1 1 1 1 1 1 1 1 1 1 1 1 1 1 1 1 1 1 1 1 1 1 1 1 1 1 1 1 1 1 1 1 1 1 1 1 1 1 1 1 1 1 1 1 1 1 1 1 1 1 1 1 1 1 1 1 1 1 1 1 1 1 1 1 1 1 1 1 1 1 1 1 1 1 1 1 1 1 1 1 1 1 1 1 1 1 1 1 1 1 1 1 1 1 1 1 1 1 1 1 1 1 1 1 1 1 1 1 1 1 1 1 1 1 1 1 1 1 1 1 1 1 1 1 1 1 1 1 1 1 1 1 1 1 1 1 1 1 1 1 1 1 1 1 1 1 1 1 1 1 1 1 1 1 1 1 1 1 1 1 1 1 1 1 1 1 1 1 1 1 1 1 1 1 1 1 1 1 1 1 1 1 1 1 1 1 1 1 1 1 1 1 1 1 1 1 1 1 1 1 1 1 1 1 1 1 1 1 1 1 1 1 1 1 1 1 1 1 1 1 1 1 1 1 1 1 1 1 1 1 1 1 1 1 1 1 1 1 1 1 1 1 1 1 1 1 1 1 1 1 1 1 1 1 1 1 1 1 1 1 1 1 1 1 1 1 1 1 1 1 1 1 1 1 1 1 1 1 1 1 1 1 1 1 1 1 1 1 1 1 1 1 1 1 1 1 1 1 1 1 1 1 1 1 1 1 1 1 1 1 1 1 1 1 1 1 1 1 1 1 1 1 1 1 1 1 1 1 1 1 1 1 1 1 1 1 1 1 1 1 1 1 1 1 1 1 1 1
				</DataArray>
				<DataArray Name="F2" type="Float32" format="ascii">
 0 0 0 0 0 0 0 0 0 0 0 0 0 0 0 0 0 0 0 0 0 0 0 0 0 0 0 0 0 0 0 0 0 0 0 0 0 0 0 0 0 0 0 0 0 0 0 0 0 0 0 0 0 0 0 0 0 0 0 0 0 0 0 0 0 0 0 0 0 0 0 0 0 0 0 0 0 0 0 0 0 0 0 0 0 0 0 0 0 0 0 0 0 0 0 0 0 0 0 0 0 0 0 0 0 0 0 0 0 0 0 0 0 0 0 0 0 0 0 0 0 0 0 0 0 0 0 0 0 0 0 0 0 0 0 0 0 0 0 0 0 0 0 0 0 0 0 0 0 0 0 0 0 0 0 0 0 0 0 0 0 0 0 0 0 0 0 0 0 0 0 0 0 0 0 0 0 0 0 0 0 0 0 0 0 0 0 0 0 0 0 0 0 0 0 0 0 0 0 0 0 0 0 0 0 0 0 0 0 0 0 0 0 0 0 0 0 0 0 0 0 0 0 0 0 0 0 0 0 0 0 0 0 0 0 0 0 0 0 0 0 0 0 0 0 0 0 0 0 0 0 0 0 0 0 0 0 0 0 0 0 0 0 0 0 0 0 0 0 0 0 0 0 0 0 0 0 0 0 0 0 0 0 0 0 0 0 0 0 0 0 0 0 0 0 0 0 0 0 0 0 0 0 0 0 0 0 0 0 0 0 0 0 0 0 0 0 0 0 0 0 0 0 0 0 0 0 0 0 0 0 0 0 0 0 0 0 0 0 0 0 0 0 0 0 0 0 0 0 0 0 0 0 0 0 0 0 0 0 0 0 0 0 0 0 0 0 0 0 0 0 0 0 0 0 0 0 0 0 0 0 0 0 0 0 0 0 0 0 0 0 0 0 0 0 0 0 0 0 0 0 0 0 0 0 0 0 0 0 0 0 0 0 0 0 0 0 0 0 0 0 0 0 0 0 0 0 0 0 0 0 0 0 0 0 0 0 0 0 0 0 0 0 0 0 0 0 0 0 0 0 0 0 0 0 0 0 0 0 0 0 0 0 0 0 0 0 0 0 0 0 0 0 0 0 0 0 0 0 0 0 0 0 0 0 0 0 0 0 0 0 0 0 0 0 0 0 0 0 0 0 0 0 0 0 0 0 0 0 0 0 0 0 0 0 0 0 0 0 0 0 0 0 0 0 0 0 0 0 0 0 0 0 0 0 0 0 0 0 0 0 0 0 0 0 0 0 0 0 0 0 0 0 0 0 0 0 0 0 0 0 0 0 0 0 0 0 0 0 0 0 0 0 0 0 0 0 0 0 0 0 0 0 0 0 0 0 0 0 0 0 0 0 0 0 0 0 0 0 0 0 0 0 0 0 0 0 0 0 0 0 0 0 0 0 0 0 0 0 0 0 0 0 0 0 0 0 0 0 0 0 0 0 0 0 0 0 0 0 0 0 0 0 0 0 0 0 0 0 0 0 0 0 0 0 0 0 0 0 0 0 0 0 0 0 0 0 0 0 0 0 0 0 0 0 0 0 0 0 0 0 0 0 0 0 0 0 0 0 0 0 0 0 0 0 0 0 0 0 0 0 0 0 0 0 0 0 0 0 0 0 0 0 0 0 0 0 0 0 0 0 0 0 0 0 0 0 0 0 0 0 0 0 0 0 0 0 0 0 0 0 0 0 0 0 0 0 0 0 0 0 0 0 0 0 0 0 0 0 0 0 0 0 0 0 0 0 0 0 0 0 0 0 0 0 0 0 0 0 0 0 0 0 0 0 0 0 0 0 0 0 0 0 0 0 0 0 0 0 0 0 0 0 0 0 0 0 0 0 0 0 0 0 0 0 0 0 0 0 0 0 0 0 0 0 0 0 0 0 0 0 0 0 0 0 0 0 0 0 0 0 0 0 0 0 0 0 0 0 0 0 0 0 0 0 0 0 0 0 0 0 0 0 0 0 0 0 0 0 0 0 0 0 0 0 0 0 0 0 0 0 0 0 0 0 0 0 0 0 0 0 0 0 0 0 0 0 0 0 0
				</DataArray>
				<DataArray Name="F3" type="Float32" format="ascii">