<?xml version="1.0"?>
<VTKFile type="PolyData">
	<PolyData>
		<Piece NumberOfPoints="961" NumberOfPolys="900">
			<Points>
				<DataArray type="Float32" NumberOfComponents="3" format="ascii">
 0 0 0 0.04 0 0 0.08 0 0 0.12 0 0 0.16 0 0 0.2 0 0 0.24 0 0 0.28 0 0 0.32 0 0 0.36 0 0 0.4 0 0 0.44 0 0 0.48 0 0 0.52 0 0 0.56 0 0 0.6 0 0 0.64 0 0 0.68 0 0 0.72 0 0 0.76 0 0 0.8 0 0 0.84 0 0 0.88 0 0 0.92 0 0 0.96 0 0 1 0 0 1.04 0 0 1.08 0 0 1.12 0 0 1.16 0 0 1.2 0 0 0 0.04 0 0.04 0.04 0 0.08 0.04 0 0.12 0.04 0 0.16 0.04 0 0.2 0.04 0 0.24 0.04 0 0.28 0.04 0 0.32 0.04 0 0.36 0.04 0 0.4 0.04 0 0.44 0.04 0 0.48 0.04 0 0.52 0.04 0 0.56 0.04 0 0.6 0.04 0 0.64 0.04 0 0.68 0.04 0 0.72 0.04 0 0.76 0.04 0 0.8 0.04 0 0.84 0.04 0 0.88 0.04 0 0.92 0.04 0 0.96 0.04 0 1 0.04 0 1.04 0.04 0 1.08 0.04 0 1.12 0.04 0 1.16 0.04 0 1.2 0.04 0 0 0.08 0 0.04 0.08 0 0.08 0.08 0 0.12 0.08 0 0.16 0.08 0 0.2 0.08 0 0.24 0.08 0 0.28 0.08 0 0.32 0.08 0 0.36 0.08 0 0.4 0.08 0 0.44 0.08 0 0.48 0.08 0 0.52 0.08 0 0.56 0.08 0 0.6 0.08 0 0.64 0.08 0 0.68 0.08 0 0.72 0.08 0 0.76 0.08 0 0.8 0.08 0 0.84 0.08 0 0.88 0.08 0 0.92 0.08 0 0.96 0.08 0 1 0.08 0 1.04 0.08 0 1.08 0.08 0 1.12 0.08 0 1.16 0.08 0 1.2 0.08 0 0 0.12 0 0.04 0.12 0 0.08 0.12 0 0.12 0.12 0 0.16 0.12 0 0.2 0.12 0 0.24 0.12 0 0.28 0.12 0 0.32 0.12 0 0.36 0.12 0 0.4 0.12 0 0.44 0.12 0 0.48 0.12 0 0.52 0.12 0 0.56 0.12 0 0.6 0.12 0 0.64 0.12 0 0.68 0.12 0 0.72 0.12 0 0.76 0.12 0 0.8 0.12 0 0.84 0.12 0 0.88 0.12 0 0.92 0.12 0 0.96 0.12 0 1 0.12 0 1.04 0.12 0 1.08 0.12 0 1.12 0.12 0 1.16 0.12 0 1.2 0.12 0 0 0.16 0 0.04 0.16 0 0.08 0.16 0 0.12 0.16 0 0.16 0.16 0 0.2 0.16 0 0.24 0.16 0 0.28 0.16 0 0.32 0.16 0 0.36 0.16 0 0.4 0.16 0 0.44 0.16 0 0.48 0.16 0 0.52 0.16 0 0.56 0.16 0 0.6 0.16 0 0.64 0.16 0 0.68 0.16 0 0.72 0.16 0 0.76 0.16 0 0.8 0.16 0 0.84 0.16 0 0.88 0.16 0 0.92 0.16 0 0.96 0.16 0 1 0.16 0 1.04 0.16 0 1.08 0.16 0 1.12 0.16 0 1.16 0.16 0 1.2 0.16 0 0 0.2 0 0.04 0.2 0 0.08 0.2 0 0.12 0.2 0 0.16 0.2 0 0.2 0.2 0 0.24 0.2 0 0.28 0.2 0 0.32 0.2 0 0.36 0.2 0 0.4 0.2 0 0.44 0.2 0 0.48 0.2 0 0.52 0.2 0 0.56 0.2 0 0.6 0.2 0 0.64 0.2 0 0.68 0.2 0 0.72 0.2 0 0.76 0.2 0 0.8 0.2 0 0.84 0.2 0 0.88 0.2 0 0.92 0.2 0 0.96 0.2 0 1 0.2 0 1.04 0.2 0 1.08 0.2 0 1.12 0.2 0 1.16 0.2 0 1.2 0.2 0 0 0.24 0 0.04 0.24 0 0.08 0.24 0 0.12 0.24 0 0.16 0.24 0 0.2 0.24 0 0.24 0.24 0 0.28 0.24 0 0.32 0.24 0 0.36 0.24 0 0.4 0.24 0 0.44 0.24 0 0.48 0.24 0 0.52 0.24 0 0.56 0.24 0 0.6 0.24 0 0.64 0.24 0 0.68 0.24 0 0.72 0.24 0 0.76 0.24 0 0.8 0.24 0 0.84 0.24 0 0.88 0.24 0 0.92 0.24 0 0.96 0.24 0 1 0.24 0 1.04 0.24 0 1.08 0.24 0 1.12 0.24 0 1.16 0.24 0 1.2 0.24 0 0 0.28 0 0.04 0.28 0 0.08 0.28 0 0.12 0.28 0 0.16 0.28 0 0.2 0.28 0 0.24 0.28 0 0.28 0.28 0 0.32 0.28 0 0.36 0.28 0 0.4 0.28 0 0.44 0.28 0 0.48 0.28 0 0.52 0.28 0 0.56 0.28 0 0.6 0.28 0 0.64 0.28 0 0.68 0.28 0 0.72 0.28 0 0.76 0.28 0 0.8 0.28 0 0.84 0.28 0 0.88 0.28 0 0.92 0.28 0 0.96 0.28 0 1 0.28 0 1.04 0.28 0 1.08 0.28 0 1.12 0.28 0 1.16 0.28 0 1.2 0.28 0 0 0.32 0 0.04 0.32 0 0.08 0.32 0 0.12 0.32 0 0.16 0.32 0 0.2 0.32 0 0.24 0.32 0 0.28 0.32 0 0.32 0.32 0 0.36 0.32 0 0.4 0.32 0 0.44 0.32 0 0.48 0.32 0 0.52 0.32 0 0.56 0.32 0 0.6 0.32 0 0.64 0.32 0 0.68 0.32 0 0.72 0.32 0 0.76 0.32 0 0.8 0.32 0 0.84 0.32 0 0.88 0.32 0 0.92 0.32 0 0.96 0.32 0 1 0.32 0 1.04 0.32 0 1.08 0.32 0 1.12 0.32 0 1.16 0.32 0 1.2 0.32 0 0 0.36 0 0.04 0.36 0 0.08 0.36 0 0.12 0.36 0 0.16 0.36 0 0.2 0.36 0 0.24 0.36 0 0.28 0.36 0 0.32 0.36 0 0.36 0.36 0 0.4 0.36 0 0.44 0.36 0 0.48 0.36 0 0.52 0.36 0 0.56 0.36 0 0.6 0.36 0 0.64 0.36 0 0.68 0.36 0 0.72 0.36 0 0.76 0.36 0 0.8 0.36 0 0.84 0.36 0 0.88 0.36 0 0.92 0.36 0 0.96 0.36 0 1 0.36 0 1.04 0.36 0 1.08 0.36 0 1.12 0.36 0 1.16 0.36 0 1.2 0.36 0 0 0.4 0 0.04 0.4 0 0.08 0.4 0 0.12 0.4 0 0.16 0.4 0 0.2 0.4 0 0.24 0.4 0 0.28 0.4 0 0.32 0.4 0 0.36 0.4 0 0.4 0.4 0 0.44 0.4 0 0.48 0.4 0 0.52 0.4 0 0.56 0.4 0 0.6 0.4 0 0.64 0.4 0 0.68 0.4 0 0.72 0.4 0 0.76 0.4 0 0.8 0.4 0 0.84 0.4 0 0.88 0.4 0 0.92 0.4 0 0.96 0.4 0 1 0.4 0 1.04 0.4 0 1.08 0.4 0 1.12 0.4 0 1.16 0.4 0 1.2 0.4 0 0 0.44 0 0.04 0.44 0 0.08 0.44 0 0.12 0.44 0 0.16 0.44 0 0.2 0.44 0 0.24 0.44 0 0.28 0.44 0 0.32 0.44 0 0.36 0.44 0 0.4 0.44 0 0.44 0.44 0 0.48 0.44 0 0.52 0.44 0 0.56 0.44 0 0.6 0.44 0 0.64 0.44 0 0.68 0.44 0 0.72 0.44 0 0.76 0.44 0 0.8 0.44 0 0.84 0.44 0 0.88 0.44 0 0.92 0.44 0 0.96 0.44 0 1 0.44 0 1.04 0.44 0 1.08 0.44 0 1.12 0.44 0 1.16 0.44 0 1.2 0.44 0 0 0.48 0 0.04 0.48 0 0.08 0.48 0 0.12 0.48 0 0.16 0.48 0 0.2 0.48 0 0.24 0.48 0 0.28 0.48 0 0.32 0.48 0 0.36 0.48 0 0.4 0.48 0 0.44 0.48 0 0.48 0.48 0 0.52 0.48 0 0.56 0.48 0 0.6 0.48 0 0.64 0.48 0 0.68 0.48 0 0.72 0.48 0 0.76 0.48 0 0.8 0.48 0 0.84 0.48 0 0.88 0.48 0 0.92 0.48 0 0.96 0.48 0 1 0.48 0 1.04 0.48 0 1.08 0.48 0 1.12 0.48 0 1.16 0.48 0 1.2 0.48 0 0 0.52 0 0.04 0.52 0 0.08 0.52 0 0.12 0.52 0 0.16 0.52 0 0.2 0.52 0 0.24 0.52 0 0.28 0.52 0 0.32 0.52 0 0.36 0.52 0 0.4 0.52 0 0.44 0.52 0 0.48 0.52 0 0.52 0.52 0 0.56 0.52 0 0.6 0.52 0 0.64 0.52 0 0.68 0.52 0 0.72 0.52 0 0.76 0.52 0 0.8 0.52 0 0.84 0.52 0 0.88 0.52 0 0.92 0.52 0 0.96 0.52 0 1 0.52 0 1.04 0.52 0 1.08 0.52 0 1.12 0.52 0 1.16 0.52 0 1.2 0.52 0 0 0.56 0 0.04 0.56 0 0.08 0.56 0 0.12 0.56 0 0.16 0.56 0 0.2 0.56 0 0.24 0.56 0 0.28 0.56 0 0.32 0.56 0 0.36 0.56 0 0.4 0.56 0 0.44 0.56 0 0.48 0.56 0 0.52 0.56 0 0.56 0.56 0 0.6 0.56 0 0.64 0.56 0 0.68 0.56 0 0.72 0.56 0 0.76 0.56 0 0.8 0.56 0 0.84 0.56 0 0.88 0.56 0 0.92 0.56 0 0.96 0.56 0 1 0.56 0 1.04 0.56 0 1.08 0.56 0 1.12 0.56 0 1.16 0.56 0 1.2 0.56 0 0 0.6 0 0.04 0.6 0 0.08 0.6 0 0.12 0.6 0 0.16 0.6 0 0.2 0.6 0 0.24 0.6 0 0.28 0.6 0 0.32 0.6 0 0.36 0.6 0 0.4 0.6 0 0.44 0.6 0 0.48 0.6 0 0.52 0.6 0 0.56 0.6 0 0.6 0.6 0 0.64 0.6 0 0.68 0.6 0 0.72 0.6 0 0.76 0.6 0 0.8 0.6 0 0.84 0.6 0 0.88 0.6 0 0.92 0.6 0 0.96 0.6 0 1 0.6 0 1.04 0.6 0 1.08 0.6 0 1.12 0.6 0 1.16 0.6 0 1.2 0.6 0 0 0.64 0 0.04 0.64 0 0.08 0.64 0 0.12 0.64 0 0.16 0.64 0 0.2 0.64 0 0.24 0.64 0 0.28 0.64 0 0.32 0.64 0 0.36 0.64 0 0.4 0.64 0 0.44 0.64 0 0.48 0.64 0 0.52 0.64 0 0.56 0.64 0 0.6 0.64 0 0.64 0.64 0 0.68 0.64 0 0.72 0.64 0 0.76 0.64 0 0.8 0.64 0 0.84 0.64 0 0.88 0.64 0 0.92 0.64 0 0.96 0.64 0 1 0.64 0 1.04 0.64 0 1.08 0.64 0 1.12 0.64 0 1.16 0.64 0 1.2 0.64 0 0 0.68 0 0.04 0.68 0 0.08 0.68 0 0.12 0.68 0 0.16 0.68 0 0.2 0.68 0 0.24 0.68 0 0.28 0.68 0 0.32 0.68 0 0.36 0.68 0 0.4 0.68 0 0.44 0.68 0 0.48 0.68 0 0.52 0.68 0 0.56 0.68 0 0.6 0.68 0 0.64 0.68 0 0.68 0.68 0 0.72 0.68 0 0.76 0.68 0 0.8 0.68 0 0.84 0.68 0 0.88 0.68 0 0.92 0.68 0 0.96 0.68 0 1 0.68 0 1.04 0.68 0 1.08 0.68 0 1.12 0.68 0 1.16 0.68 0 1.2 0.68 0 0 0.72 0 0.04 0.72 0 0.08 0.72 0 0.12 0.72 0 0.16 0.72 0 0.2 0.72 0 0.24 0.72 0 0.28 0.72 0 0.32 0.72 0 0.36 0.72 0 0.4 0.72 0 0.44 0.72 0 0.48 0.72 0 0.52 0.72 0 0.56 0.72 0 0.6 0.72 0 0.64 0.72 0 0.68 0.72 0 0.72 0.72 0 0.76 0.72 0 0.8 0.72 0 0.84 0.72 0 0.88 0.72 0 0.92 0.72 0 0.96 0.72 0 1 0.72 0 1.04 0.72 0 1.08 0.72 0 1.12 0.72 0 1.16 0.72 0 1.2 0.72 0 0 0.76 0 0.04 0.76 0 0.08 0.76 0 0.12 0.76 0 0.16 0.76 0 0.2 0.76 0 0.24 0.76 0 0.28 0.76 0 0.32 0.76 0 0.36 0.76 0 0.4 0.76 0 0.44 0.76 0 0.48 0.76 0 0.52 0.76 0 0.56 0.76 0 0.6 0.76 0 0.64 0.76 0 0.68 0.76 0 0.72 0.76 0 0.76 0.76 0 0.8 0.76 0 0.84 0.76 0 0.88 0.76 0 0.92 0.76 0 0.96 0.76 0 1 0.76 0 1.04 0.76 0 1.08 0.76 0 1.12 0.76 0 1.16 0.76 0 1.2 0.76 0 0 0.8 0 0.04 0.8 0 0.08 0.8 0 0.12 0.8 0 0.16 0.8 0 0.2 0.8 0 0.24 0.8 0 0.28 0.8 0 0.32 0.8 0 0.36 0.8 0 0.4 0.8 0 0.44 0.8 0 0.48 0.8 0 0.52 0.8 0 0.56 0.8 0 0.6 0.8 0 0.64 0.8 0 0.68 0.8 0 0.72 0.8 0 0.76 0.8 0 0.8 0.8 0 0.84 0.8 0 0.88 0.8 0 0.92 0.8 0 0.96 0.8 0 1 0.8 0 1.04 0.8 0 1.08 0.8 0 1.12 0.8 0 1.16 0.8 0 1.2 0.8 0 0 0.84 0 0.04 0.84 0 0.08 0.84 0 0.12 0.84 0 0.16 0.84 0 0.2 0.84 0 0.24 0.84 0 0.28 0.84 0 0.32 0.84 0 0.36 0.84 0 0.4 0.84 0 0.44 0.84 0 0.48 0.84 0 0.52 0.84 0 0.56 0.84 0 0.6 0.84 0 0.64 0.84 0 0.68 0.84 0 0.72 0.84 0 0.76 0.84 0 0.8 0.84 0 0.84 0.84 0 0.88 0.84 0 0.92 0.84 0 0.96 0.84 0 1 0.84 0 1.04 0.84 0 1.08 0.84 0 1.12 0.84 0 1.16 0.84 0 1.2 0.84 0 0 0.88 0 0.04 0.88 0 0.08 0.88 0 0.12 0.88 0 0.16 0.88 0 0.2 0.88 0 0.24 0.88 0 0.28 0.88 0 0.32 0.88 0 0.36 0.88 0 0.4 0.88 0 0.44 0.88 0 0.48 0.88 0 0.52 0.88 0 0.56 0.88 0 0.6 0.88 0 0.64 0.88 0 0.68 0.88 0 0.72 0.88 0 0.76 0.88 0 0.8 0.88 0 0.84 0.88 0 0.88 0.88 0 0.92 0.88 0 0.96 0.88 0 1 0.88 0 1.04 0.88 0 1.08 0.88 0 1.12 0.88 0 1.16 0.88 0 1.2 0.88 0 0 0.92 0 0.04 0.92 0 0.08 0.92 0 0.12 0.92 0 0.16 0.92 0 0.2 0.92 0 0.24 0.92 0 0.28 0.92 0 0.32 0.92 0 0.36 0.92 0 0.4 0.92 0 0.44 0.92 0 0.48 0.92 0 0.52 0.92 0 0.56 0.92 0 0.6 0.92 0 0.64 0.92 0 0.68 0.92 0 0.72 0.92 0 0.76 0.92 0 0.8 0.92 0 0.84 0.92 0 0.88 0.92 0 0.92 0.92 0 0.96 0.92 0 1 0.92 0 1.04 0.92 0 1.08 0.92 0 1.12 0.92 0 1.16 0.92 0 1.2 0.92 0 0 0.96 0 0.04 0.96 0 0.08 0.96 0 0.12 0.96 0 0.16 0.96 0 0.2 0.96 0 0.24 0.96 0 0.28 0.96 0 0.32 0.96 0 0.36 0.96 0 0.4 0.96 0 0.44 0.96 0 0.48 0.96 0 0.52 0.96 0 0.56 0.96 0 0.6 0.96 0 0.64 0.96 0 0.68 0.96 0 0.72 0.96 0 0.76 0.96 0 0.8 0.96 0 0.84 0.96 0 0.88 0.96 0 0.92 0.96 0 0.96 0.96 0 1 0.96 0 1.04 0.96 0 1.08 0.96 0 1.12 0.96 0 1.16 0.96 0 1.2 0.96 0 0 1 0 0.04 1 0 0.08 1 0 0.12 1 0 0.16 1 0 0.2 1 0 0.24 1 0 0.28 1 0 0.32 1 0 0.36 1 0 0.4 1 0 0.44 1 0 0.48 1 0 0.52 1 0 0.56 1 0 0.6 1 0 0.64 1 0 0.68 1 0 0.72 1 0 0.76 1 0 0.8 1 0 0.84 1 0 0.88 1 0 0.92 1 0 0.96 1 0 1 1 0 1.04 1 0 1.08 1 0 1.12 1 0 1.16 1 0 1.2 1 0 0 1.04 0 0.04 1.04 0 0.08 1.04 0 0.12 1.04 0 0.16 1.04 0 0.2 1.04 0 0.24 1.04 0 0.28 1.04 0 0.32 1.04 0 0.36 1.04 0 0.4 1.04 0 0.44 1.04 0 0.48 1.04 0 0.52 1.04 0 0.56 1.04 0 0.6 1.04 0 0.64 1.04 0 0.68 1.04 0 0.72 1.04 0 0.76 1.04 0 0.8 1.04 0 0.84 1.04 0 0.88 1.04 0 0.92 1.04 0 0.96 1.04 0 1 1.04 0 1.04 1.04 0 1.08 1.04 0 1.12 1.04 0 1.16 1.04 0 1.2 1.04 0 0 1.08 0 0.04 1.08 0 0.08 1.08 0 0.12 1.08 0 0.16 1.08 0 0.2 1.08 0 0.24 1.08 0 0.28 1.08 0 0.32 1.08 0 0.36 1.08 0 0.4 1.08 0 0.44 1.08 0 0.48 1.08 0 0.52 1.08 0 0.56 1.08 0 0.6 1.08 0 0.64 1.08 0 0.68 1.08 0 0.72 1.08 0 0.76 1.08 0 0.8 1.08 0 0.84 1.08 0 0.88 1.08 0 0.92 1.08 0 0.96 1.08 0 1 1.08 0 1.04 1.08 0 1.08 1.08 0 1.12 1.08 0 1.16 1.08 0 1.2 1.08 0 0 1.12 0 
[...]
			<CellData Scalars="Density">
				<DataArray Name="Density" type="Float32" format="ascii">
 0.0124783 0.0129982 0.0143837 0.0171958 0.022084 0.0298299 0.0414779 0.0586503 0.0841347 0.122996 0.18465 0.288001 0.475236 0.847098 1.61576 2.39654 2.68385 1.67822 1.06214 1.00371 1.00001 1 1 1 1 1 1 1 1 1 0.0129985 0.0135001 0.0148379 0.0176282 0.0225488 0.0304289 0.0423602 0.0599801 0.0859476 0.124964 0.185894 0.28512 0.459165 0.797715 1.52502 2.29111 2.60146 1.64118 1.06372 1.0038 1.00001 1 1 1 1 1 1 1 1 1 0.0143848 0.0148404 0.0160606 0.0187751 0.0237018 0.0317419 0.0440553 0.0623207 0.089203 0.129354 0.191695 0.293422 0.47474 0.83356 1.57604 2.24074 2.49425 1.52875 1.05933 1.00364 1.00001 1 1 1 1 1 1 1 1 1 0.0171963 0.0176344 0.0187841 0.0217651 0.0274444 0.03694 0.0516863 0.073509 0.105118 0.151155 0.220341 0.332359 0.526269 0.928546 1.69765 2.26705 2.36111 1.34329 1.03831 1.00226 1 1 1 1 1 1 1 1 1 1 0.0220812 0.0225555 0.0237203 0.0274635 0.0349341 0.0475603 0.0671755 0.0961609 0.137531 0.19682 0.284891 0.425027 0.670186 1.20523 2.02194 2.41381 2.15316 1.19823 1.02537 1.00115 1 1 1 1 1 1 1 1 1 1 0.0298241 0.0304308 0.0317616 0.0369706 0.0475821 0.0654959 0.0929465 0.133132 0.190057 0.270529 0.390574 0.580415 0.952552 1.71444 2.44525 2.55881 1.72715 1.11438 1.01306 1.00026 1 1 1 1 1 1 1 1 1 1 0.041475 0.0423592 0.0440683 0.0517092 0.0671975 0.092978 0.132041 0.188179 0.268097 0.383342 0.555237 0.866855 1.51291 2.43547 2.78452 2.32452 1.28939 1.04646 1.00368 1.00002 1 1 1 1 1 1 1 1 1 1 0.0586595 0.0599835 0.0623315 0.0735136 0.0961582 0.133162 0.188314 0.267542 0.380335 0.545844 0.818096 1.38018 2.30344 2.82108 2.6888 1.5938 1.10003 1.01398 1.00038 1 1 1 1 1 1 1 1 1 1 1 0.0841612 0.0859624 0.0892242 0.105111 0.137493 0.190097 0.268153 0.380808 0.543241 0.803667 1.3078 2.17661 2.8672 2.89243 1.98024 1.18267 1.03278 1.00214 1.00001 1 1 1 1 1 1 1 1 1 1 1 0.123042 0.124999 0.129385 0.151205 0.19671 0.270455 0.383399 0.545954 0.801471 1.2822 2.13257 2.85162 2.9646 2.26276 1.29041 1.05635 1.00614 1.00009 1 1 1 1 1 1 1 1 1 1 1 1 0.184694 0.185952 0.191694 0.220401 0.284973 0.390249 0.554812 0.819313 1.30914 2.12275 2.82059 3.01156 2.44828 1.40242 1.07932 1.01207 1.00037 1 1 1 1 1 1 1 1 1 1 1 1 1 0.288047 0.285223 0.293437 0.332319 0.425032 0.580586 0.867201 1.37772 2.17884 2.86854 3.00448 2.51739 1.4647 1.09602 1.01831 1.0009 1.00001 1 1 1 1 1 1 1 1 1 1 1 1 1 0.475301 0.459305 0.474826 0.526347 0.670299 0.951111 1.51597 2.31107 2.85002 2.97118 2.43895 1.46626 1.10346 1.0221 1.00144 1.00001 1 1 1 1 1 1 1 1 1 1 1 1 1 1 0.847224 0.797765 0.833706 0.928289 1.20619 1.7116 2.42833 2.82421 2.8871 2.27089 1.40172 1.09575 1.0221 1.00171 1.00002 1 1 1 1 1 1 1 1 1 1 1 1 1 1 1 1.61596 1.52525 1.57654 1.69689 2.0236 2.44447 2.79194 2.69155 1.98102 1.28925 1.07951 1.01829 1.00144 1.00002 1 1 1 1 1 1 1 1 1 1 1 1 1 1 1 1 2.39651 2.29101 2.2411 2.26601 2.41595 2.55275 2.3268 1.58953 1.18406 1.05631 1.01209 1.0009 1.00001 1 1 1 1 1 1 1 1 1 1 1 1 1 1 1 1 1 2.684 2.6015 2.49492 2.35974 2.15619 1.72508 1.29094 1.09929 1.03281 1.00614 1.00037 1.00001 1 1 1 1 1 1 1 1 1 1 1 1 1 1 1 1 1 1 1.67808 1.64085 1.52872 1.34172 1.19859 1.11443 1.04646 1.01394 1.00214 1.00009 1 1 1 1 1 1 1 1 1 1 1 1 1 1 1 1 1 1 1 1 1.06212 1.06371 1.05984 1.03844 1.02506 1.01312 1.00369 1.00038 1.00001 1 1 1 1 1 1 1 1 1 1 1 1 1 1 1 1 1 1 1 1 1 1.00371 1.00379 1.00361 1.00225 1.00116 1.00026 1.00002 1 1 1 1 1 1 1 1 1 1 1 1 1 1 1 1 1 1 1 1 1 1 1 1.00001 1.00001 1.00001 1 1 1 1 1 1 1 1 1 1 1 1 1 1 1 1 1 1 1 1 1 1 1 1 1 1 1 1 1 1 1 1 1 1 1 1 1 1 1 1 1 1 1 1 1 1 1 1 1 1 1 1 1 1 1 1 1 1 1 1 1 1 1 1 1 1 1 1 1 1 1 1 1 1 1 1 1 1 1 1 1 1 1 1 1 1 1 1 1 1 1 1 1 1 1 1 1 1 1 1 1 1 1 1 1 1 1 1 1 1 1 1 1 1 1 1 1 1 1 1 1 1 1 1 1 1 1 1 1 1 1 1 1 1 1 1 1 1 1 1 1 1 1 1 1 1 1 1 1 1 1 1 1 1 1 1 1 1 1 1 1 1 1 1 1 1 1 1 1 1 1 1 1 1 1 1 1 1 1 1 1 1 1 1 1 1 1 1 1 1 1 1 1 1 1 1 1 1 1 1 1 1 1 1 1 1 1 1 1 1 1 1 1 1 1 1 1 1 1 1 1 1 1 1 1 1 1 1 1 1 1 1 1 1 1 1 1 1 1 1 1 1 1 1 1 1 1 1 1 1 1 1 1 1 1 1 1 1 1 1 1 1 1 1 1 1 1 1 1 1 1 1 1 1 1 1 1 1 1 1 1 1 1 1 1 1 1 1 1 1 1 1 1 1 1 1 1
				</DataArray>
				<DataArray Name="Energy" type="Float32" format="ascii">
 31.1844 29.8547 26.9946 22.6017 17.626 13.079 9.44079 6.71728 4.72991 3.28959 2.24975 1.51071 1.00265 0.665638 0.424171 0.263442 0.135066 0.0261087 0.000427761 2.83832e-06 2.50001e-06 2.5e-06 2.5e-06 2.5e-06 2.5e-06 2.5e-06 2.5e-06 2.5e-06 2.5e-06 2.5e-06 29.8538 28.6529 26.0709 21.9536 17.1799 12.7539 9.18907 6.52232 4.58748 3.19596 2.19828 1.48712 0.990582 0.655607 0.422661 0.259261 0.132161 0.0245394 0.00040374 2.82987e-06 2.50001e-06 2.5e-06 2.5e-06 2.5e-06 2.5e-06 2.5e-06 2.5e-06 2.5e-06 2.5e-06 2.5e-06 26.9925 26.0664 24.0967 20.6269 16.3579 12.2403 8.85074 6.29692 4.44743 3.12342 2.1735 1.48818 1.00234 0.66696 0.418928 0.257087 0.122971 0.0190009 0.000287356 2.73263e-06 2.50001e-06 2.5e-06 2.5e-06 2.5e-06 2.5e-06 2.5e-06 2.5e-06 2.5e-06 2.5e-06 2.5e-06 22.6009 21.9457 20.6164 17.8065 14.1411 10.5308 7.5589 5.3507 3.78257 2.67991 1.89597 1.32963 0.917383 0.626985 0.38837 0.243906 0.109278 0.012553 0.00012746 2.57591e-06 2.5e-06 2.5e-06 2.5e-06 2.5e-06 2.5e-06 2.5e-06 2.5e-06 2.5e-06 2.5e-06 2.5e-06 17.6281 17.1751 16.3449 14.1305 11.1282 8.19485 5.82794 4.10828 2.91434 2.08799 1.50651 1.08496 0.771016 0.538571 0.330363 0.209691 0.0736682 0.00458655 2.49291e-05 2.50846e-06 2.5e-06 2.5e-06 2.5e-06 2.5e-06 2.5e-06 2.5e-06 2.5e-06 2.5e-06 2.5e-06 2.5e-06 13.0815 12.7528 12.2328 10.5214 8.19069 5.975 4.23396 2.98978 2.13377 1.54444 1.12972 0.825843 0.603179 0.401412 0.257545 0.142343 0.0273821 0.00064444 3.89183e-06 2.50058e-06 2.5e-06 2.5e-06 2.5e-06 2.5e-06 2.5e-06 2.5e-06 2.5e-06 2.5e-06 2.5e-06 2.5e-06 9.44122 9.18926 8.84807 7.555 5.82595 4.23287 3.0075 2.13933 1.54322 1.13261 0.83818 0.625347 0.457777 0.289981 0.190694 0.0660755 0.00488575 3.65165e-05 2.54038e-06 2.50002e-06 2.5e-06 2.5e-06 2.5e-06 2.5e-06 2.5e-06 2.5e-06 2.5e-06 2.5e-06 2.5e-06 2.5e-06 6.716 6.52174 6.29599 5.34971 4.10819 2.98918 2.13891 1.53987 1.1271 0.838531 0.633381 0.481031 0.316484 0.22105 0.10637 0.0162634 0.00030447 3.19988e-06 2.50078e-06 2.5e-06 2.5e-06 2.5e-06 2.5e-06 2.5e-06 2.5e-06 2.5e-06 2.5e-06 2.5e-06 2.5e-06 2.5e-06 4.72825 4.58622 4.44663 3.78233 2.91471 2.13371 1.54275 1.12746 0.838412 0.634905 0.493898 0.342282 0.24005 0.141041 0.0324936 0.00139294 8.9963e-06 2.51244e-06 2.50001e-06 2.5e-06 2.5e-06 2.5e-06 2.5e-06 2.5e-06 2.5e-06 2.5e-06 2.5e-06 2.5e-06 2.5e-06 2.5e-06 3.28839 3.19487 3.12253 2.6795 2.08781 1.54433 1.13222 0.8382 0.635546 0.498731 0.351362 0.252073 0.163513 0.0495783 0.00395185 3.53724e-05 2.58156e-06 2.50011e-06 2.5e-06 2.5e-06 2.5e-06 2.5e-06 2.5e-06 2.5e-06 2.5e-06 2.5e-06 2.5e-06 2.5e-06 2.5e-06 2.5e-06 2.2491 2.19772 2.17278 1.89576 1.50636 1.12948 0.838448 0.633121 0.492409 0.353404 0.25634 0.174871 0.062648 0.00712502 0.000100514 2.81968e-06 2.50073e-06 2.5e-06 2.5e-06 2.5e-06 2.5e-06 2.5e-06 2.5e-06 2.5e-06 2.5e-06 2.5e-06 2.5e-06 2.5e-06 2.5e-06 2.5e-06 1.51043 1.48694 1.4879 1.32949 1.08512 0.825527 0.624814 0.482928 0.341658 0.251493 0.174588 0.0670811 0.00919381 0.000183195 3.28846e-06 2.50282e-06 2.50001e-06 2.5e-06 2.5e-06 2.5e-06 2.5e-06 2.5e-06 2.5e-06 2.5e-06 2.5e-06 2.5e-06 2.5e-06 2.5e-06 2.5e-06 2.5e-06 1.00254 0.990478 1.00227 0.917342 0.771175 0.603992 0.457012 0.31573 0.240703 0.163636 0.0626364 0.00919286 0.000223077 3.71686e-06 2.50613e-06 2.50002e-06 2.5e-06 2.5e-06 2.5e-06 2.5e-06 2.5e-06 2.5e-06 2.5e-06 2.5e-06 2.5e-06 2.5e-06 2.5e-06 2.5e-06 2.5e-06 2.5e-06 0.665586 0.655486 0.667031 0.626868 0.538517 0.401232 0.290828 0.220819 0.141029 0.0495699 0.00713212 0.000183203 3.71459e-06 2.50798e-06 2.50002e-06 2.5e-06 2.5e-06 2.5e-06 2.5e-06 2.5e-06 2.5e-06 2.5e-06 2.5e-06 2.5e-06 2.5e-06 2.5e-06 2.5e-06 2.5e-06 2.5e-06 2.5e-06 0.424108 0.422595 0.418913 0.388365 0.330594 0.257364 0.190736 0.106378 0.0325474 0.00394283 0.00010039 3.28651e-06 2.50612e-06 2.50002e-06 2.5e-06 2.5e-06 2.5e-06 2.5e-06 2.5e-06 2.5e-06 2.5e-06 2.5e-06 2.5e-06 2.5e-06 2.5e-06 2.5e-06 2.5e-06 2.5e-06 2.5e-06 2.5e-06 0.263428 0.259237 0.257122 0.243787 0.209715 0.142301 0.066021 0.0162012 0.00139424 3.54598e-05 2.81977e-06 2.50282e-06 2.50002e-06 2.5e-06 2.5e-06 2.5e-06 2.5e-06 2.5e-06 2.5e-06 2.5e-06 2.5e-06 2.5e-06 2.5e-06 2.5e-06 2.5e-06 2.5e-06 2.5e-06 2.5e-06 2.5e-06 2.5e-06 0.135052 0.13214 0.122982 0.109238 0.0736747 0.0273862 0.00488518 0.000301891 8.96901e-06 2.58182e-06 2.50073e-06 2.50001e-06 2.5e-06 2.5e-06 2.5e-06 2.5e-06 2.5e-06 2.5e-06 2.5e-06 2.5e-06 2.5e-06 2.5e-06 2.5e-06 2.5e-06 2.5e-06 2.5e-06 2.5e-06 2.5e-06 2.5e-06 2.5e-06 0.0260994 0.0245273 0.0189974 0.0125435 0.00457774 0.000645011 3.66973e-05 3.1954e-06 2.51234e-06 2.50011e-06 2.5e-06 2.5e-06 2.5e-06 2.5e-06 2.5e-06 2.5e-06 2.5e-06 2.5e-06 2.5e-06 2.5e-06 2.5e-06 2.5e-06 2.5e-06 2.5e-06 2.5e-06 2.5e-06 2.5e-06 2.5e-06 2.5e-06 2.5e-06 0.000427475 0.000403447 0.000287504 0.000127672 2.47666e-05 3.86216e-06 2.54094e-06 2.50079e-06 2.50001e-06 2.5e-06 2.5e-06 2.5e-06 2.5e-06 2.5e-06 2.5e-06 2.5e-06 2.5e-06 2.5e-06 2.5e-06 2.5e-06 2.5e-06 2.5e-06 2.5e-06 2.5e-06 2.5e-06 2.5e-06 2.5e-06 2.5e-06 2.5e-06 2.5e-06 2.83792e-06 2.82946e-06 2.73211e-06 2.57678e-06 2.50899e-06 2.50056e-06 2.50002e-06 2.5e-06 2.5e-06 2.5e-06 2.5e-06 2.5e-06 2.5e-06 2.5e-06 2.5e-06 2.5e-06 2.5e-06 2.5e-06 2.5e-06 2.5e-06 2.5e-06 2.5e-06 2.5e-06 2.5e-06 2.5e-06 2.5e-06 2.5e-06 2.5e-06 2.5e-06 2.5e-06 2.50001e-06 2.50001e-06 2.50001e-06 2.5e-06 2.5e-06 2.5e-06 2.5e-06 2.5e-06 2.5e-06 2.5e-06 2.5e-06 2.5e-06 2.5e-06 2.5e-06 2.5e-06 2.5e-06 2.5e-06 2.5e-06 2.5e-06 2.5e-06 2.5e-06 2.5e-06 2.5e-06 2.5e-06 2.5e-06 2.5e-06 2.5e-06 2.5e-06 2.5e-06 2.5e-06 2.5e-06 2.5e-06 2.5e-06 2.5e-06 2.5e-06 2.5e-06 2.5e-06 2.5e-06 2.5e-06 2.5e-06 2.5e-06 2.5e-06 2.5e-06 2.5e-06 2.5e-06 2.5e-06 2.5e-06 2.5e-06 2.5e-06 2.5e-06 2.5e-06 2.5e-06 2.5e-06 2.5e-06 2.5e-06 2.5e-06 2.5e-06 2.5e-06 2.5e-06 2.5e-06 2.5e-06 2.5e-06 2.5e-06 2.5e-06 2.5e-06 2.5e-06 2.5e-06 2.5e-06 2.5e-06 2.5e-06 2.5e-06 2.5e-06 2.5e-06 2.5e-06 2.5e-06 2.5e-06 2.5e-06 2.5e-06 2.5e-06 2.5e-06 2.5e-06 2.5e-06 2.5e-06 2.5e-06 2.5e-06 2.5e-06 2.5e-06 2.5e-06 2.5e-06 2.5e-06 2.5e-06 2.5e-06 2.5e-06 2.5e-06 2.5e-06 2.5e-06 2.5e-06 2.5e-06 2.5e-06 2.5e-06 2.5e-06 2.5e-06 2.5e-06 2.5e-06 2.5e-06 2.5e-06 2.5e-06 2.5e-06 2.5e-06 2.5e-06 2.5e-06 2.5e-06 2.5e-06 2.5e-06 2.5e-06 2.5e-06 2.5e-06 2.5e-06 2.5e-06 2.5e-06 2.5e-06 2.5e-06 2.5e-06 2.5e-06 2.5e-06 2.5e-06 2.5e-06 2.5e-06 2.5e-06 2.5e-06 2.5e-06 2.5e-06 2.5e-06 2.5e-06 2.5e-06 2.5e-06 2.5e-06 2.5e-06 2.5e-06 2.5e-06 2.5e-06 2.5e-06 2.5e-06 2.5e-06 2.5e-06 2.5e-06 2.5e-06 2.5e-06 2.5e-06 2.5e-06 2.5e-06 2.5e-06 2.5e-06 2.5e-06 2.5e-06 2.5e-06 2.5e-06 2.5e-06 2.5e-06 2.5e-06 2.5e-06 2.5e-06 2.5e-06 2.5e-06 2.5e-06 2.5e-06 2.5e-06 2.5e-06 2.5e-06 2.5e-06 2.5e-06 2.5e-06 2.5e-06 2.5e-06 2.5e-06 2.5e-06 2.5e-06 2.5e-06 2.5e-06 2.5e-06 2.5e-06 2.5e-06 2.5e-06 2.5e-06 2.5e-06 2.5e-06 2.5e-06 2.5e-06 2.5e-06 2.5e-06 2.5e-06 2.5e-06 2.5e-06 2.5e-06 2.5e-06 2.5e-06 2.5e-06 2.5e-06 2.5e-06 2.5e-06 2.5e-06 2.5e-06 2.5e-06 2.5e-06 2.5e-06 2.5e-06 2.5e-06 2.5e-06 2.5e-06 2.5e-06 2.5e-06 2.5e-06 2.5e-06 2.5e-06 2.5e-06 2.5e-06 2.5e-06 2.5e-06 2.5e-06 2.5e-06 2.5e-06 2.5e-06 2.5e-06 2.5e-06 2.5e-06 2.5e-06 2.5e-06 2.5e-06 2.5e-06 2.5e-06 2.5e-06 2.5e-06 2.5e-06 2.5e-06 2.5e-06 2.5e-06 2.5e-06 2.5e-06 2.5e-06 2.5e-06 2.5e-06 2.5e-06 2.5e-06 2.5e-06 2.5e-06 2.5e-06 2.5e-06 2.5e-06 2.5e-06 2.5e-06 2.5e-06 2.5e-06 2.5e-06 2.5e-06 2.5e-06 2.5e-06 2.5e-06 2.5e-06 2.5e-06 2.5e-06 2.5e-06 2.5e-06 2.5e-06 2.5e-06 2.5e-06 2.5e-06 2.5e-06 2.5e-06 2.5e-06 2.5e-06 2.5e-06 2.5e-06 2.5e-06 2.5e-06 2.5e-06 2.5e-06 2.5e-06 2.5e-06 2.5e-06 2.5e-06 2.5e-06 2.5e-06 2.5e-06 2.5e-06 2.5e-06 2.5e-06 2.5e-06 2.5e-06 2.5e-06 2.5e-06 2.5e-06 2.5e-06 2.5e-06 2.5e-06 2.5e-06 2.5e-06 2.5e-06 2.5e-06 2.5e-06 2.5e-06
				</DataArray>
				<DataArray Name="F1" type="Float32" format="ascii">
 1 1 1 1 1 1 1 1 1 1 1 1 1 1 1 1 1 1 1 1 1 1 1 1 1 1 1 1 1 1 1 1 1 1 1 1 1 1 1 1 1 1 1 1 1 1 1 1 1 1 1 1 1 1 1 1 1 1 1 1 1 1 1 1 1 1 1 1 1 1 1 1 1 1 1 1 1 1 1 1 1 1 1 1 1 1 1 1 1 1 1 1 1 1 1 1 1 1 1 1 1 1 1 1 1 1 1 1 1 1 1 1 1 1 1 1 1 1 1 1 1 1 1 1 1 1 1 1 1 1 1 1 1 1 1 1 1 1 1 1 1 1 1 1 1 1 1 1 1 1 1 1 1 1 1 1 1 1 1 1 1 1 1 1 1 1 1 1 1 1 1 1 1 1 1 1 1 1 1 1 1 1 1 1 1 1 1 1 1 1 1 1 1 1 1 1 1 1 1 1 1 1 1 1 1 1 1 1 1 1 1 1 1 1 1 1 1 1 1 1 1 1 1 1 1 1 1 1 1 1 1 1 1 1 1 1 1 1 1 1 1 1 1 1 1 1 1 1 1 1 1 1 1 1 1 1 1 1 1 1 1 1 1 1 1 1 1 1 1 1 1 1 1 1 1 1 1 1 1 1 1 1 1 1 1 1 1 1 1 1 1 1 1 1 1 1 1 1 1 1 1 1 1 1 1 1 1 1 1 1 1 1 1 1 1 1 1 1 1 1 1 1 1 1 1 1 1 1 1 1 1 1 1 1 1 1 1 1 1 1 1 1 1 1 1 1 1 1 1 1 1 1 1 1 1 1 1 1 1 1 1 1 1 1 1 1 1 1 1 1 1 1 1 1 1 1 1 1 1 1 1 1 1 1 1 1 1 1 1 1 1 1 1 1 1 1 1 1 1 1 1 1 1 1 1 1 1 1 1 1 1 1 1 1 1 1 1 1 1 1 1 1 1 1 1 1 1 1 1 1 1 1 1 1 1 1 1 1 1 1 1 1 1 1 1 1 1 1 1 1 1 1 1 1 1 1 1 1 1 1 1 1 1 1 1 1 1 1 1 1 1 1 1 1 1 1 1 1 1 1 1 1 1 1 1 1 1 1 1 1 1 1 1 1 1 1 1 1 1 1 1 1 1 1 1 1 1 1 1 1 1 1 1 1 1 1 1 1 1 1 1 1 1 1 1 1 1 1 1 1 1 1 1 1 1 1 1 1 1 1 1 1 1 1 1 1 1 1 1 1 1 1 1 1 1 1 1 1 1 1 1 1 1 1 1 1 1 1 1 1 1 1 1 1 1 1 1 1 1 1 1 1 1 1 1 1 1 1 1 1 1 1 1 1 1 1 1 1 1 1 1 1 1 1 1 1 1 1 1 1 1 1 1 1 1 1 1 1 1 1 1 1 1 1 1 1 1 1 1 1 1 1 1 1 1 1 1 1 1 1 1 1 1 1 1 1 1 1 1 1 1 1 1 1 1 1 1 1 1 1 1 1 1 1 1 1 1 1 1 1 1 1 1 1 1 1 1 1 1 1 1 1 1 1 1 1 1 1 1 1 1 1 1 1 1 1 1 1 1 1 1 1 1 1 1 1 1 1 1 1 1 1 1 1 1 1 1 1 1 1 1 1 1 1 1 1 1 1 1 1 1 1 1 1 1 1 1 1 1 1 1 1 1 1 1 1 1 1 1 1 1 1 1 1 1 1 1 1 1 1 1 1 1 1 1 1 1 1 1 1 1 1 1 1 1 1 1 1 1 1 1 1 1 1 1 1 1 1 1 1 1 1 1 1 1 1 1 1 1 1 1 1 1 1 1 1 1 1 1 1 1 1 1 1 1 1 1 1 1 1 1 1 1 1 1 1 1 1 1 1 1 1 1 1 1 1 1 1 1 1 1 1 1 1 1 1 1 1 1 1 1 1 1 1 1 1 1 1 1 1 1 1 1 1 1 1 1 1 1 1 1 1 1 1 1 1 1 1 1 1 1 1 1 1 1 1 1 1 1 1 1 1 1 1 1 1 1 1 1 1
				</DataArray>
				<DataArray Name="F2" type="Float32" format="ascii">
 0 0 0 0 0 0 0 0 0 0 0 0 0 0 0 0 0 0 0 0 0 0 0 0 0 0 0 0 0 0 0 0 0 0 0 0 0 0 0 0 0 0 0 0 0 0 0 0 0 0 0 0 0 0 0 0 0 0 0 0 0 0 0 0 0 0 0 0 0 0 0 0 0 0 0 0 0 0 0 0 0 0 0 0 0 0 0 0 0 0 0 0 0 0 0 0 0 0 0 0 0 0 0 0 0 0 0 0 0 0 0 0 0 0 0 0 0 0 0 0 0 0 0 0 0 0 0 0 0 0 0 0 0 0 0 0 0 0 0 0 0 0 0 0 0 0 0 0 0 0 0 0 0 0 0 0 0 0 0 0 0 0 0 0 0 0 0 0 0 0 0 0 0 0 0 0 0 0 0 0 0 0 0 0 0 0 0 0 0 0 0 0 0 0 0 0 0 0 0 0 0 0 0 0 0 0 0 0 0 0 0 0 0 0 0 0 0 0 0 0 0 0 0 0 0 0 0 0 0 0 0 0 0 0 0 0 0 0 0 0 0 0 0 0 0 0 0 0 0 0 0 0 0 0 0 0 0 0 0 0 0 0 0 0 0 0 0 0 0 0 0 0 0 0 0 0 0 0 0 0 0 0 0 0 0 0 0 0 0 0 0 0 0 0 0 0 0 0 0 0 0 0 0 0 0 0 0 0 0 0 0 0 0 0 0 0 0 0 0 0 0 0 0 0 0 0 0 0 0 0 0 0 0 0 0 0 0 0 0 0 0 0 0 0 0 0 0 0 0 0 0 0 0 0 0 0 0 0 0 0 0 0 0 0 0 0 0 0 0 0 0 0 0 0 0 0 0 0 0 0 0 0 0 0 0 0 0 0 0 0 0 0 0 0 0 0 0 0 0 0 0 0 0 0 0 0 0 0 0 0 0 0 0 0 0 0 0 0 0 0 0 0 0 0 0 0 0 0 0 0 0 0 0 0 0 0 0 0 0 0 0 0 0 0 0 0 0 0 0 0 0 0 0 0 0 0 0 0 0 0 0 0 0 0 0 0 0 0 0 0 0 0 0 0 0 0 0 0 0 0 0 0 0 0 0 0 0 0 0 0 0 0 0 0 0 0 0 0 0 0 0 0 0 0 0 0 0 0 0 0 0 0 0 0 0 0 0 0 0 0 0 0 0 0 0 0 0 0 0 0 0 0 0 0 0 0 0 0 0 0 0 0 0 0 0 0 0 0 0 0 0 0 0 0 0 0 0 0 0 0 0 0 0 0 0 0 0 0 0 0 0 0 0 0 0 0 0 0 0 0 0 0 0 0 0 0 0 0 0 0 0 0 0 0 0 0 0 0 0 0 0 0 0 0 0 0 0 0 0 0 0 0 0 0 0 0 0 0 0 0 0 0 0 0 0 0 0 0 0 0 0 0 0 0 0 0 0 0 0 0 0 0 0 0 0 0 0 0 0 0 0 0 0 0 0 0 0 0 0 0 0 0 0 0 0 0 0 0 0 0 0 0 0 0 0 0 0 0 0 0 0 0 0 0 0 0 0 0 0 0 0 0 0 0 0 0 0 0 0 0 0 0 0 0 0 0 0 0 0 0 0 0 0 0 0 0 0 0 0 0 0 0 0 0 0 0 0 0 0 0 0 0 0 0 0 0 0 0 0 0 0 0 0 0 0 0 0 0 0 0 0 0 0 0 0 0 0 0 0 0 0 0 0 0 0 0 0 0 0 0 0 0 0 0 0 0 0 0 0 0 0 0 0 0 0 0 0 0 0 0 0 0 0 0 0 0 0 0 0 0 0 0 0 0 0 0 0 0 0 0 0 0 0 0 0 0 0 0 0 0 0 0 0 0 0 0 0 0 0 0 0 0 0 0 0 0 0 0 0 0 0 0 0 0 0 0 0 0 0 0 0 0 0 0 0 0 0 0 0 0 0 0 0 0 0 0 0 0 0 0 0 0 0 0 0 0 0 0 0 0 0 0 0 0 0 0 0 0 0 0 0 0 0 0 0 0 0 0 0 0
				</DataArray>
				<DataArray Name="F3" type="Float32" format="ascii">
 0 0 0 0 0 0 0 0 0 0 0 0 0 0 0 0 0 0 0 0 0 0 0 0 0 0 0 0 0 0 0 0 0 0 0 0 0 0 0 0 0 0 0 0 0 0 0 0 0 0 0 0 0 0 0 0 0 0 0 0 0 0 0 0 0 0 0 0 0 0 0 0 0 0 0 0 0 0 0 0 0 0 0 0 0 0 0 0 0 0 0 0 0 0 0 0 0 0 0 0 0 0 0 0 0 0 0 0 0 0 0 0 0 0 0 0 0 0 0 0 0 0 0 0 0 0 0 0 0 0 0 0 0 0 0 0 0 0 0 0 0 0 0 0 0 0 0 0 0 0 0 0 0 0 0 0 0 0 0 0 0 0 0 0 0 0 0 0 0 0 0 0 0 0 0 0 0 0 0 0 0 0 0 0 0 0 0 0 0 0 0 0 0 0 0 0 0 0 0 0 0 0 0 0 0 0 0 0 0 0 0 0 0 0 0 0 0 0 0 0 0 0 0 0 0 0 0 0 0 0 0 0 0 0 0 0 0 0 0 0 0 0 0 0 0 0 0 0 0 0 0 0 0 0 0 0 0 0 0 0 0 0 0 0 0 0 0 0 0 0 0 0 0 0 0 0 0 0 0 0 0 0 0 0 0 0 0 0 0 0 0 0 0 0 0 0 0 0 0 0 0 0 0 0 0 0 0 0 0 0 0 0 0 0 0 0 0 0 0 0 0 0 0 0 0 0 0 0 0 0 0 0 0 0 0 0 0 0 0 0 0 0 0 0 0 0 0 0 0 0 0 0 0 0 0 0 0 0 0 0 0 0 0 0 0 0 0 0 0 0 0 0 0 0 0 0 0 0 0 0 0 0 0 0 0 0 0 0 0 0 0 0 0 0 0 0 0 0 0 0 0 0 0 0 0 0 0 0 0 0 0 0 0 0 0 0 0 0 0 0 0 0 0 0 0 0 0 0 0 0 0 0 0 0 0 0 0 0 0 0 0 0 0 0 0 0 0 0 0 0 0 0 0 0 0 0 0 0 0 0 0 0 0 0 0 0 0 0 0 0 0 0 0 0 0 0 0 0 0 0 0 0 0 0 0 0 0 0 0 0 0 0 0 0 0 0 0 0 0 0 0 0 0 0 0 0 0 0 0 0 0 0 0 0 0 0 0 0 0 0 0 0 0 0 0 0 0 0 0 0 0 0 0 0 0 0 0 0 0 0 0 0 0 0 0 0 0 0 0 0 0 0 0 0 0 0 0 0 0 0 0 0 0 0 0 0 0 0 0 0 0 0 0 0 0 0 0 0 0 0 0 0 0 0 0 0 0 0 0 0 0 0 0 0 0 0 0 0 0 0 0 0 0 0 0 0 0 0 0 0 0 0 0 0 0 0 0 0 0 0 0 0 0 0 0 0 0 0 0 0 0 0 0 0 0 0 0 0 0 0 0 0 0 0 0 0 0 0 0 0 0 0 0 0 0 0 0 0 0 0 0 0 0 0 0 0 0 0 0 0 0 0 0 0 0 0 0 0 0 0 0 0 0 0 0 0 0 0 0 0 0 0 0 0 0 0 0 0 0 0 0 0 0 0 0 0 0 0 0 0 0 0 0 0 0 0 0 0 0 0 0 0 0 0 0 0 0 0 0 0 0 0 0 0 0 0 0 0 0 0 0 0 0 0 0 0 0 0 0 0 0 0 0 0 0 0 0 0 0 0 0 0 0 0 0 0 0 0 0 0 0 0 0 0 0 0 0 0 0 0 0 0 0 0 0 0 0 0 0 0 0 0 0 0 0 0 0 0 0 0 0 0 0 0 0 0 0 0 0 0 0 0 0 0 0 0 0 0 0 0 0 0 0 0 0 0 0 0 0 0 0 0 0 0 0 0 0 0 0 0 0 0 0 0 0 0 0 0 0 0 0 0 0 0 0 0 0 0 0 0 0 0 0 0 0 0 0 0 0 0 0 0 0 0 0 0 0 0 0 0 0 0 0 0 0 0 0 0 0 0 0 0 0 0 0 0 0 0 0 0
				</DataArray>
				<DataArray Name="Pressure" type="Float32" format="ascii">