<?xml version="1.0"?>
<VTKFile type="PolyData">
	<PolyData>
		<Piece NumberOfPoints="961" NumberOfPolys="900">
			<Points>
				<DataArray type="Float32" NumberOfComponents="3" format="ascii">
 0 0 0 0.04 0 0 0.08 0 0 0.12 0 0 0.16 0 0 0.2 0 0 0.24 0 0 0.28 0 0 0.32 0 0 0.36 0 0 0.4 0 0 0.44 0 0 0.48 0 0 0.52 0 0 0.56 0 0 0.6 0 0 0.64 0 0 0.68 0 0 0.72 0 0 0.76 0 0 0.8 0 0 0.84 0 0 0.88 0 0 0.92 0 0 0.96 0 0 1 0 0 1.04 0 0 1.08 0 0 1.12 0 0 1.16 0 0 1.2 0 0 0 0.04 0 0.04 0.04 0 0.08 0.04 0 0.12 0.04 0 0.16 0.04 0 0.2 0.04 0 0.24 0.04 0 0.28 0.04 0 0.32 0.04 0 0.36 0.04 0 0.4 0.04 0 0.44 0.04 0 0.48 0.04 0 0.52 0.04 0 0.56 0.04 0 0.6 0.04 0 0.64 0.04 0 0.68 0.04 0 0.72 0.04 0 0.76 0.04 0 0.8 0.04 0 0.84 0.04 0 0.88 0.04 0 0.92 0.04 0 0.96 0.04 0 1 0.04 0 1.04 0.04 0 1.08 0.04 0 1.12 0.04 0 1.16 0.04 0 1.2 0.04 0 0 0.08 0 0.04 0.08 0 0.08 0.08 0 0.12 0.08 0 0.16 0.08 0 0.2 0.08 0 0.24 0.08 0 0.28 0.08 0 0.32 0.08 0 0.36 0.08 0 0.4 0.08 0 0.44 0.08 0 0.48 0.08 0 0.52 0.08 0 0.56 0.08 0 0.6 0.08 0 0.64 0.08 0 0.68 0.08 0 0.72 0.08 0 0.76 0.08 0 0.8 0.08 0 0.84 0.08 0 0.88 0.08 0 0.92 0.08 0 0.96 0.08 0 1 0.08 0 1.04 0.08 0 1.08 0.08 0 1.12 0.08 0 1.16 0.08 0 1.2 0.08 0 0 0.12 0 0.04 0.12 0 0.08 0.12 0 0.12 0.12 0 0.16 0.12 0 0.2 0.12 0 0.24 0.12 0 0.28 0.12 0 0.32 0.12 0 0.36 0.12 0 0.4 0.12 0 0.44 0.12 0 0.48 0.12 0 0.52 0.12 0 0.56 0.12 0 0.6 0.12 0 0.64 0.12 0 0.68 0.12 0 0.72 0.12 0 0.76 0.12 0 0.8 0.12 0 0.84 0.12 0 0.88 0.12 0 0.92 0.12 0 0.96 0.12 0 1 0.12 0 1.04 0.12 0 1.08 0.12 0 1.12 0.12 0 1.16 0.12 0 1.2 0.12 0 0 0.16 0 0.04 0.16 0 0.08 0.16 0 0.12 0.16 0 0.16 0.16 0 0.2 0.16 0 0.24 0.16 0 0.28 0.16 0 0.32 0.16 0 0.36 0.16 0 0.4 0.16 0 0.44 0.16 0 0.48 0.16 0 0.52 0.16 0 0.56 0.16 0 0.6 0.16 0 0.64 0.16 0 0.68 0.16 0 0.72 0.16 0 0.76 0.16 0 0.8 0.16 0 0.84 0.16 0 0.88 0.16 0 0.92 0.16 0 0.96 0.16 0 1 0.16 0 1.04 0.16 0 1.08 0.16 0 1.12 0.16 0 1.16 0.16 0 1.2 0.16 0 0 0.2 0 0.04 0.2 0 0.08 0.2 0 0.12 0.2 0 0.16 0.2 0 0.2 0.2 0 0.24 0.2 0 0.28 0.2 0 0.32 0.2 0 0.36 0.2 0 0.4 0.2 0 0.44 0.2 0 0.48 0.2 0 0.52 0.2 0 0.56 0.2 0 0.6 0.2 0 0.64 0.2 0 0.68 0.2 0 0.72 0.2 0 0.76 0.2 0 0.8 0.2 0 0.84 0.2 0 0.88 0.2 0 0.92 0.2 0 0.96 0.2 0 1 0.2 0 1.04 0.2 0 1.08 0.2 0 1.12 0.2 0 1.16 0.2 0 1.2 0.2 0 0 0.24 0 0.04 0.24 0 0.08 0.24 0 0.12 0.24 0 0.16 0.24 0 0.2 0.24 0 0.24 0.24 0 0.28 0.24 0 0.32 0.24 0 0.36 0.24 0 0.4 0.24 0 0.44 0.24 0 0.48 0.24 0 0.52 0.24 0 0.56 0.24 0 0.6 0.24 0 0.64 0.24 0 0.68 0.24 0 0.72 0.24 0 0.76 0.24 0 0.8 0.24 0 0.84 0.24 0 0.88 0.24 0 0.92 0.24 0 0.96 0.24 0 1 0.24 0 1.04 0.24 0 1.08 0.24 0 1.12 0.24 0 1.16 0.24 0 1.2 0.24 0 0 0.28 0 0.04 0.28 0 0.08 0.28 0 0.12 0.28 0 0.16 0.28 0 0.2 0.28 0 0.24 0.28 0 0.28 0.28 0 0.32 0.28 0 0.36 0.28 0 0.4 0.28 0 0.44 0.28 0 0.48 0.28 0 0.52 0.28 0 0.56 0.28 0 0.6 0.28 0 0.64 0.28 0 0.68 0.28 0 0.72 0.28 0 0.76 0.28 0 0.8 0.28 0 0.84 0.28 0 0.88 0.28 0 0.92 0.28 0 0.96 0.28 0 1 0.28 0 1.04 0.28 0 1.08 0.28 0 1.12 0.28 0 1.16 0.28 0 1.2 0.28 0 0 0.32 0 0.04 0.32 0 0.08 0.32 0 0.12 0.32 0 0.16 0.32 0 0.2 0.32 0 0.24 0.32 0 0.28 0.32 0 0.32 0.32 0 0.36 0.32 0 0.4 0.32 0 0.44 0.32 0 0.48 0.32 0 0.52 0.32 0 0.56 0.32 0 0.6 0.32 0 0.64 0.32 0 0.68 0.32 0 0.72 0.32 0 0.76 0.32 0 0.8 0.32 0 0.84 0.32 0 0.88 0.32 0 0.92 0.32 0 0.96 0.32 0 1 0.32 0 1.04 0.32 0 1.08 0.32 0 1.12 0.32 0 1.16 0.32 0 1.2 0.32 0 0 0.36 0 0.04 0.36 0 0.08 0.36 0 0.12 0.36 0 0.16 0.36 0 0.2 0.36 0 0.24 0.36 0 0.28 0.36 0 0.32 0.36 0 0.36 0.36 0 0.4 0.36 0 0.44 0.36 0 0.48 0.36 0 0.52 0.36 0 0.56 0.36 0 0.6 0.36 0 0.64 0.36 0 0.68 0.36 0 0.72 0.36 0 0.76 0.36 0 0.8 0.36 0 0.84 0.36 0 0.88 0.36 0 0.92 0.36 0 0.96 0.36 0 1 0.36 0 1.04 0.36 0 1.08 0.36 0 1.12 0.36 0 1.16 0.36 0 1.2 0.36 0 0 0.4 0 0.04 0.4 0 0.08 0.4 0 0.12 0.4 0 0.16 0.4 0 0.2 0.4 0 0.24 0.4 0 0.28 0.4 0 0.32 0.4 0 0.36 0.4 0 0.4 0.4 0 0.44 0.4 0 0.48 0.4 0 0.52 0.4 0 0.56 0.4 0 0.6 0.4 0 0.64 0.4 0 0.68 0.4 0 0.72 0.4 0 0.76 0.4 0 0.8 0.4 0 0.84 0.4 0 0.88 0.4 0 0.92 0.4 0 0.96 0.4 0 1 0.4 0 1.04 0.4 0 1.08 0.4 0 1.12 0.4 0 1.16 0.4 0 1.2 0.4 0 0 0.44 0 0.04 0.44 0 0.08 0.44 0 0.12 0.44 0 0.16 0.44 0 0.2 0.44 0 0.24 0.44 0 0.28 0.44 0 0.32 0.44 0 0.36 0.44 0 0.4 0.44 0 0.44 0.44 0 0.48 0.44 0 0.52 0.44 0 0.56 0.44 0 0.6 0.44 0 0.64 0.44 0 0.68 0.44 0 0.72 0.44 0 0.76 0.44 0 0.8 0.44 0 0.84 0.44 0 0.88 0.44 0 0.92 0.44 0 0.96 0.44 0 1 0.44 0 1.04 0.44 0 1.08 0.44 0 1.12 0.44 0 1.16 0.44 0 1.2 0.44 0 0 0.48 0 0.04 0.48 0 0.08 0.48 0 0.12 0.48 0 0.16 0.48 0 0.2 0.48 0 0.24 0.48 0 0.28 0.48 0 0.32 0.48 0 0.36 0.48 0 0.4 0.48 0 0.44 0.48 0 0.48 0.48 0 0.52 0.48 0 0.56 0.48 0 0.6 0.48 0 0.64 0.48 0 0.68 0.48 0 0.72 0.48 0 0.76 0.48 0 0.8 0.48 0 0.84 0.48 0 0.88 0.48 0 0.92 0.48 0 0.96 0.48 0 1 0.48 0 1.04 0.48 0 1.08 0.48 0 1.12 0.48 0 1.16 0.48 0 1.2 0.48 0 0 0.52 0 0.04 0.52 0 0.08 0.52 0 0.12 0.52 0 0.16 0.52 0 0.2 0.52 0 0.24 0.52 0 0.28 0.52 0 0.32 0.52 0 0.36 0.52 0 0.4 0.52 0 0.44 0.52 0 0.48 0.52 0 0.52 0.52 0 0.56 0.52 0 0.6 0.52 0 0.64 0.52 0 0.68 0.52 0 0.72 0.52 0 0.76 0.52 0 0.8 0.52 0 0.84 0.52 0 0.88 0.52 0 0.92 0.52 0 0.96 0.52 0 1 0.52 0 1.04 0.52 0 1.08 0.52 0 1.12 0.52 0 1.16 0.52 0 1.2 0.52 0 0 0.56 0 0.04 0.56 0 0.08 0.56 0 0.12 0.56 0 0.16 0.56 0 0.2 0.56 0 0.24 0.56 0 0.28 0.56 0 0.32 0.56 0 0.36 0.56 0 0.4 0.56 0 0.44 0.56 0 0.48 0.56 0 0.52 0.56 0 0.56 0.56 0 0.6 0.56 0 0.64 0.56 0 0.68 0.56 0 0.72 0.56 0 0.76 0.56 0 0.8 0.56 0 0.84 0.56 0 0.88 0.56 0 0.92 0.56 0 0.96 0.56 0 1 0.56 0 1.04 0.56 0 1.08 0.56 0 1.12 0.56 0 1.16 0.56 0 1.2 0.56 0 0 0.6 0 0.04 0.6 0 0.08 0.6 0 0.12 0.6 0 0.16 0.6 0 0.2 0.6 0 0.24 0.6 0 0.28 0.6 0 0.32 0.6 0 0.36 0.6 0 0.4 0.6 0 0.44 0.6 0 0.48 0.6 0 0.52 0.6 0 0.56 0.6 0 0.6 0.6 0 0.64 0.6 0 0.68 0.6 0 0.72 0.6 0 0.76 0.6 0 0.8 0.6 0 0.84 0.6 0 0.88 0.6 0 0.92 0.6 0 0.96 0.6 0 1 0.6 0 1.04 0.6 0 1.08 0.6 0 1.12 0.6 0 1.16 0.6 0 1.2 0.6 0 0 0.64 0 0.04 0.64 0 0.08 0.64 0 0.12 0.64 0 0.16 0.64 0 0.2 0.64 0 0.24 0.64 0 0.28 0.64 0 0.32 0.64 0 0.36 0.64 0 0.4 0.64 0 0.44 0.64 0 0.48 0.64 0 0.52 0.64 0 0.56 0.64 0 0.6 0.64 0 0.64 0.64 0 0.68 0.64 0 0.72 0.64 0 0.76 0.64 0 0.8 0.64 0 0.84 0.64 0 0.88 0.64 0 0.92 0.64 0 0.96 0.64 0 1 0.64 0 1.04 0.64 0 1.08 0.64 0 1.12 0.64 0 1.16 0.64 0 1.2 0.64 0 0 0.68 0 0.04 0.68 0 0.08 0.68 0 0.12 0.68 0 0.16 0.68 0 0.2 0.68 0 0.24 0.68 0 0.28 0.68 0 0.32 0.68 0 0.36 0.68 0 0.4 0.68 0 0.44 0.68 0 0.48 0.68 0 0.52 0.68 0 0.56 0.68 0 0.6 0.68 0 0.64 0.68 0 0.68 0.68 0 0.72 0.68 0 0.76 0.68 0 0.8 0.68 0 0.84 0.68 0 0.88 0.68 0 0.92 0.68 0 0.96 0.68 0 1 0.68 0 1.04 0.68 0 1.08 0.68 0 1.12 0.68 0 1.16 0.68 0 1.2 0.68 0 0 0.72 0 0.04 0.72 0 0.08 0.72 0 0.12 0.72 0 0.16 0.72 0 0.2 0.72 0 0.24 0.72 0 0.28 0.72 0 0.32 0.72 0 0.36 0.72 0 0.4 0.72 0 0.44 0.72 0 0.48 0.72 0 0.52 0.72 0 0.56 0.72 0 0.6 0.72 0 0.64 0.72 0 0.68 0.72 0 0.72 0.72 0 0.76 0.72 0 0.8 0.72 0 0.84 0.72 0 0.88 0.72 0 0.92 0.72 0 0.96 0.72 0 1 0.72 0 1.04 0.72 0 1.08 0.72 0 1.12 0.72 0 1.16 0.72 0 1.2 0.72 0 0 0.76 0 0.04 0.76 0 0.08 0.76 0 0.12 0.76 0 0.16 0.76 0 0.2 0.76 0 0.24 0.76 0 0.28 0.76 0 0.32 0.76 0 0.36 0.76 0 0.4 0.76 0 0.44 0.76 0 0.48 0.76 0 0.52 0.76 0 0.56 0.76 0 0.6 0.76 0 0.64 0.76 0 0.68 0.76 0 0.72 0.76 0 0.76 0.76 0 0.8 0.76 0 0.84 0.76 0 0.88 0.76 0 0.92 0.76 0 0.96 0.76 0 1 0.76 0 1.04 0.76 0 1.08 0.76 0 1.12 0.76 0 1.16 0.76 0 1.2 0.76 0 0 0.8 0 0.04 0.8 0 0.08 0.8 0 0.12 0.8 0 0.16 0.8 0 0.2 0.8 0 0.24 0.8 0 0.28 0.8 0 0.32 0.8 0 0.36 0.8 0 0.4 0.8 0 0.44 0.8 0 0.48 0.8 0 0.52 0.8 0 0.56 0.8 0 0.6 0.8 0 0.64 0.8 0 0.68 0.8 0 0.72 0.8 0 0.76 0.8 0 0.8 0.8 0 0.84 0.8 0 0.88 0.8 0 0.92 0.8 0 0.96 0.8 0 1 0.8 0 1.04 0.8 0 1.08 0.8 0 1.12 0.8 0 1.16 0.8 0 1.2 0.8 0 0 0.84 0 0.04 0.84 0 0.08 0.84 0 0.12 0.84 0 0.16 0.84 0 0.2 0.84 0 0.24 0.84 0 0.28 0.84 0 0.32 0.84 0 0.36 0.84 0 0.4 0.84 0 0.44 0.84 0 0.48 0.84 0 0.52 0.84 0 0.56 0.84 0 0.6 0.84 0 0.64 0.84 0 0.68 0.84 0 0.72 0.84 0 0.76 0.84 0 0.8 0.84 0 0.84 0.84 0 0.88 0.84 0 0.92 0.84 0 0.96 0.84 0 1 0.84 0 1.04 0.84 0 1.08 0.84 0 1.12 0.84 0 1.16 0.84 0 1.2 0.84 0 0 0.88 0 0.04 0.88 0 0.08 0.88 0 0.12 0.88 0 0.16 0.88 0 0.2 0.88 0 0.24 0.88 0 0.28 0.88 0 0.32 0.88 0 0.36 0.88 0 0.4 0.88 0 0.44 0.88 0 0.48 0.88 0 0.52 0.88 0 0.56 0.88 0 0.6 0.88 0 0.64 0.88 0 0.68 0.88 0 0.72 0.88 0 0.76 0.88 0 0.8 0.88 0 0.84 0.88 0 0.88 0.88 0 0.92 0.88 0 0.96 0.88 0 1 0.88 0 1.04 0.88 0 1.08 0.88 0 1.12 0.88 0 1.16 0.88 0 1.2 0.88 0 0 0.92 0 0.04 0.92 0 0.08 0.92 0 0.12 0.92 0 0.16 0.92 0 0.2 0.92 0 0.24 0.92 0 0.28 0.92 0 0.32 0.92 0 0.36 0.92 0 0.4 0.92 0 0.44 0.92 0 0.48 0.92 0 0.52 0.92 0 0.56 0.92 0 0.6 0.92 0 0.64 0.92 0 0.68 0.92 0 0.72 0.92 0 0.76 0.92 0 0.8 0.92 0 0.84 0.92 0 0.88 0.92 0 0.92 0.92 0 0.96 0.92 0 1 0.92 0 1.04 0.92 0 1.08 0.92 0 1.12 0.92 0 1.16 0.92 0 1.2 0.92 0 0 0.96 0 0.04 0.96 0 0.08 0.96 0 0.12 0.96 0 0.16 0.96 0 0.2 0.96 0 0.24 0.96 0 0.28 0.96 0 0.32 0.96 0 0.36 0.96 0 0.4 0.96 0 0.44 0.96 0 0.48 0.96 0 0.52 0.96 0 0.56 0.96 0 0.6 0.96 0 0.64 0.96 0 0.68 0.96 0 0.72 0.96 0 0.76 0.96 0 0.8 0.96 0 0.84 0.96 0 0.88 0.96 0 0.92 0.96 0 0.96 0.96 0 1 0.96 0 1.04 0.96 0 1.08 0.96 0 1.12 0.96 0 1.16 0.96 0 1.2 0.96 0 0 1 0 0.04 1 0 0.08 1 0 0.12 1 0 0.16 1 0 0.2 1 0 0.24 1 0 0.28 1 0 0.32 1 0 0.36 1 0 0.4 1 0 0.44 1 0 0.48 1 0 0.52 1 0 0.56 1 0 0.6 1 0 0.64 1 0 0.68 1 0 0.72 1 0 0.76 1 0 0.8 1 0 0.84 1 0 0.88 1 0 0.92 1 0 0.96 1 0 1 1 0 1.04 1 0 1.08 1 0 1.12 1 0 1.16 1 0 1.2 1 0 0 1.04 0 0.04 1.04 0 0.08 1.04 0 0.12 1.04 0 0.16 1.04 0 0.2 1.04 0 0.24 1.04 0 0.28 1.04 0 0.32 1.04 0 0.36 1.04 0 0.4 1.04 0 0.44 1.04 0 0.48 1.04 0 0.52 1.04 0 0.56 1.04 0 0.6 1.04 0 0.64 1.04 0 0.68 1.04 0 0.72 1.04 0 0.76 1.04 0 0.8 1.04 0 0.84 1.04 0 0.88 1.04 0 0.92 1.04 0 0.96 1.04 0 1 1.04 0 1.04 1.04 0 1.08 1.04 0 1.12 1.04 0 1.16 1.04 0 1.2 1.04 0 0 1.08 0 0.04 1.08 0 0.08 1.08 0 0.12 1.08 0 0.16 1.08 0 0.2 1.08 0 0.24 1.08 0 0.28 1.08 0 0.32 1.08 0 0.36 1.08 0 0.4 1.08 0 0.44 1.08 0 0.48 1.08 0 0.52 1.08 0 0.56 1.08 0 0.6 1.08 0 0.64 1.08 0 0.68 1.08 0 0.72 1.08 0 0.76 1.08 0 0.8 1.08 0 0.84 1.08 0 0.88 1.08 0 0.92 1.08 0 0.96 1.08 0 1 1.08 0 1.04 1.08 0 1.08 1.08 0 1.12 1.08 0 1.16 1.08 0 1.2 1.08 0 0 1.12 0 
[...]
			<CellData Scalars="Density">
				<DataArray Name="Density" type="Float32" format="ascii">
 0.00404742 0.00410794 0.0042567 0.00455161 0.00505479 0.00582662 0.00693375 0.0084396 0.010417 0.0129433 0.0161408 0.0201665 0.0253066 0.0319263 0.0405584 0.052031 0.0676649 0.089501 0.120701 0.166034 0.232365 0.328723 0.465577 0.652741 0.901116 1.22698 1.66923 2.14589 2.51374 2.71344 0.00410801 0.00415646 0.00428176 0.00455002 0.00501858 0.00576471 0.0068625 0.00837165 0.0103817 0.0129872 0.0163142 0.0205044 0.0258534 0.0327741 0.0417409 0.0535699 0.0695587 0.0916273 0.122783 0.167695 0.233305 0.329164 0.467184 0.659145 0.914581 1.24616 1.69433 2.17353 2.53734 2.71252 0.00425678 0.00428177 0.00434841 0.0045381 0.00490971 0.00551437 0.00646314 0.00785319 0.00978152 0.0123276 0.0155964 0.0197127 0.0249291 0.031634 0.040317 0.051711 0.0670365 0.0881886 0.118164 0.161463 0.224791 0.317364 0.451186 0.638304 0.890275 1.22117 1.66924 2.17049 2.56523 2.77673 0.00455147 0.00454966 0.0045377 0.00463896 0.0049057 0.00539952 0.00617315 0.00733671 0.00904079 0.0113992 0.0145258 0.0185368 0.0236639 0.0302539 0.0390165 0.0506518 0.0664963 0.0884632 0.119287 0.163232 0.226501 0.318457 0.45141 0.637505 0.887889 1.21718 1.66658 2.17314 2.56884 2.76649 0.00505396 0.00501722 0.00490819 0.00490479 0.00505953 0.0054345 0.00611848 0.00718299 0.00877312 0.0110388 0.0141321 0.0181954 0.0234172 0.0301017 0.0390918 0.051072 0.0672641 0.0895275 0.120506 0.164192 0.226383 0.315712 0.444306 0.625401 0.871391 1.1985 1.64671 2.15312 2.55073 2.7606 0.00582484 0.00576188 0.00551121 0.00539687 0.00543262 0.00565028 0.00617884 0.00711902 0.00858597 0.0107547 0.013791 0.0178734 0.0231867 0.03006 0.0392277 0.0514665 0.067956 0.0904979 0.121646 0.165464 0.227845 0.316788 0.443658 0.621773 0.86436 1.18771 1.63483 2.13892 2.52821 2.72593 0.00693066 0.00685798 0.00645738 0.00616801 0.00611415 0.006176 0.00648457 0.0072212 0.00847358 0.0104389 0.0133091 0.0172847 0.0226246 0.0295772 0.0387456 0.0511162 0.0677556 0.0905823 0.122084 0.166018 0.227861 0.315701 0.440953 0.615671 0.852999 1.16862 1.60249 2.09151 2.47072 2.67008 0.00843536 0.00836559 0.00784527 0.00732828 0.00717623 0.00711237 0.00721857 0.00771659 0.00871898 0.0104375 0.0130809 0.0168857 0.0221131 0.0290718 0.038241 0.0507757 0.0676514 0.090514 0.121821 0.165075 0.225505 0.31068 0.431685 0.600742 0.830518 1.13838 1.56662 2.06351 2.45005 2.64713 0.0104114 0.0103738 0.0097718 0.00902946 0.00876268 0.00857643 0.00846653 0.00871457 0.00938497 0.0107865 0.0131147 0.0166653 0.0216838 0.0285425 0.0376211 0.0500979 0.067054 0.0900214 0.121439 0.164506 0.223937 0.306888 0.424186 0.588567 0.813406 1.11688 1.54536 2.06802 2.48046 2.69012 0.0129367 0.0129778 0.0123172 0.0113863 0.0110268 0.0107401 0.0104321 0.0104282 0.010781 0.0117631 0.0137077 0.0169007 0.0216537 0.0283271 0.037264 0.049353 0.0660792 0.088658 0.119607 0.161961 0.220245 0.301019 0.41424 0.572911 0.792512 1.09383 1.52559 2.09404 2.56707 2.80818 0.0161329 0.0163034 0.0155852 0.0145128 0.0141197 0.0137715 0.0133011 0.013072 0.0131033 0.0137069 0.015137 0.017895 0.0223316 0.0287072 0.0375363 0.0493407 0.0657805 0.0878657 0.118279 0.159985 0.21712 0.296243 0.406393 0.560653 0.775651 1.07733 1.51411 2.13879 2.70766 3.00307 0.0201579 0.0204931 0.0197026 0.0185256 0.0181852 0.0178507 0.0172765 0.0168774 0.0166489 0.0168928 0.0178844 0.0201127 0.0240603 0.0301007 0.0387164 0.0502696 0.066353 0.0880032 0.11793 0.159013 0.215366 0.29262 0.399221 0.549387 0.760412 1.0599 1.50452 2.18688 2.88533 3.26678 0.0252983 0.0258419 0.0249192 0.0236549 0.0234082 0.0231634 0.0226223 0.0221071 0.0216573 0.0216393 0.0223142 0.0240525 0.0274984 0.0331645 0.0414266 0.0529511 0.0689945 0.0906227 0.12022 0.16071 0.21613 0.292098 0.39706 0.543815 0.75256 1.05372 1.50635 2.24029 3.0832 3.56511 0.0319194 0.0327636 0.0316257 0.0302469 0.0300946 0.0300373 0.0295841 0.0290727 0.0285035 0.0283028 0.0286838 0.0300851 0.0331449 0.0386742 0.0467626 0.0578817 0.0732296 0.094922 0.125716 0.167511 0.222883 0.297825 0.400471 0.544885 0.752543 1.05726 1.52143 2.29513 3.28803 3.90801 0.0405555 0.0417346 0.0403152 0.0390157 0.0390888 0.0392134 0.0387657 0.0382548 0.0375769 0.0372401 0.0375068 0.0386791 0.0413715 0.0467102 0.0549716 0.0662747 0.0807868 0.101813 0.132431 0.174725 0.233548 0.313155 0.416769 0.561051 0.766343 1.07619 1.55742 2.36881 3.50749 4.2941 0.0520325 0.0535703 0.0517101 0.0506624 0.0510745 0.051461 0.0511408 0.0508023 0.0500579 0.0493367 0.0493048 0.0502194 0.0528767 0.0577727 0.0662043 0.0782365 0.0928427 0.112834 0.142337 0.183927 0.243367 0.325978 0.440383 0.595112 0.806734 1.12153 1.61341 2.45236 3.73213 4.71506 0.0676729 0.0695653 0.0670433 0.0665136 0.0672647 0.0679607 0.0677882 0.0676791 0.0670444 0.0660915 0.0657492 0.0663021 0.0688851 0.0730724 0.0806371 0.0927336 0.107947 0.127022 0.155304 0.196589 0.253541 0.33469 0.451953 0.622322 0.862216 1.19982 1.70604 2.54736 3.94933 5.16737 0.0895196 0.0916421 0.0882076 0.0884878 0.0895374 0.0905228 0.090621 0.0905378 0.0900489 0.0887062 0.087857 0.0879611 0.0904795 0.094721 0.101522 0.112569 0.126876 0.14417 0.169624 0.208702 0.262245 0.342009 0.455053 0.628308 0.886454 1.26733 1.82397 2.67675 4.15912 5.6507 0.120734 0.12281 0.118199 0.119312 0.12053 0.121686 0.122134 0.121837 0.121516 0.119718 0.118338 0.117922 0.120132 0.125534 0.132104 0.141834 0.154974 0.169562 0.191649 0.225819 0.273469 0.343161 0.447405 0.613391 0.879218 1.28507 1.89167 2.81393 4.36965 6.16982 0.166089 0.167743 0.161517 0.163258 0.164231 0.165521 0.166102 0.16507 0.16463 0.162097 0.160078 0.159077 0.160673 0.167266 0.174443 0.183509 0.196319 0.208476 0.225792 0.25685 0.300952 0.35982 0.446236 0.585236 0.828207 1.24572 1.90303 2.90622 4.56577 6.75978 0.232451 0.233383 0.224871 0.226537 0.226416 0.227907 0.227943 0.225528 0.22406 0.220336 0.217331 0.21557 0.216167 0.222807 0.233448 0.242817 0.252895 0.262636 0.273516 0.300747 0.343611 0.400649 0.477063 0.589041 0.781885 1.14579 1.82945 2.91747 4.67246 7.41102 0.328852 0.32928 0.31748 0.318518 0.315754 0.316828 0.315759 0.310677 0.30699 0.301089 0.296434 0.292781 0.292245 0.298018 0.312878 0.325959 0.334607 0.341458 0.342071 0.359705 0.400733 0.458671 0.534725 0.637363 0.792866 1.07784 1.6709 2.82701 4.69687 8.09367 0.465758 0.467356 0.451356 0.451508 0.444389 0.443714 0.441014 0.43164 0.424284 0.41438 0.406426 0.39938 0.397263 0.400595 0.417058 0.4405 0.451229 0.454477 0.448217 0.446475 0.476822 0.534769 0.616123 0.722138 0.865905 1.10113 1.57276 2.62834 4.66524 8.69304 0.652979 0.659375 0.638531 0.637664 0.62554 0.621905 0.615832 0.600837 0.588622 0.573075 0.560815 0.549475 0.543733 0.545143 0.561077 0.595049 0.622769 0.628045 0.613631 0.584055 0.589237 0.637811 0.722245 0.841173 0.995913 1.21602 1.60787 2.4971 4.65379 8.9674 0.901406 0.914863 0.890562 0.888107 0.871596 0.864547 0.853175 0.830754 0.813581 0.792441 0.775743 0.760658 0.752277 0.752397 0.766144 0.807359 0.86278 0.887235 0.879867 0.829018 0.782893 0.79297 0.866033 0.996052 1.17976 1.42656 1.8095 2.60144 4.64122 8.81514 1.22732 1.24651 1.22153 1.21746 1.19881 1.18802 1.16893 1.13854 1.1173 1.09418 1.07699 1.06021 1.054 1.05707 1.07571 1.12124 1.19937 1.26798 1.28425 1.24664 1.14496 1.0785 1.1015 1.21623 1.42669 1.73347 2.20245 3.06893 4.60782 8.08161 1.66961 1.69472 1.66965 1.66688 1.64706 1.63513 1.6029 1.56682 1.54546 1.52615 1.51427 1.50417 1.50605 1.52201 1.55674 1.61255 1.70534 1.82356 1.8918 1.90327 1.82966 1.67187 1.57242 1.60806 1.80974 2.2026 2.84049 3.79149 4.50201 6.65815 2.14632 2.17398 2.171 2.17357 2.15367 2.13943 2.09205 2.06397 2.06833 2.09412 2.13911 2.18769 2.2383 2.29452 2.36922 2.45167 2.5461 2.67688 2.81458 2.90648 2.91846 2.82713 2.62841 2.49757 2.60178 3.06907 3.79167 4.27487 4.28333 4.48521 2.51419 2.53781 2.56578 2.56937 2.5514 2.52884 2.47131 2.45057 2.48093 2.56732 2.70726 2.8862 3.08234 3.28581 3.50688 3.73329 3.94911 4.15983 4.37012 4.56611 4.67335 4.69674 4.66597 4.65417 4.64153 4.60811 4.50207 4.28328 3.61834 2.35935 2.7139 2.71302 2.7773 2.76714 2.76135 2.72671 2.6708 2.64786 2.69059 2.80826 3.00232 3.26613 3.56465 3.90746 4.29306 4.71439 5.16729 5.65126 6.17041 6.76099 7.41195 8.09387 8.69365 8.96764 8.81535 8.08197 6.65818 4.48519 2.35937 1.37812
				</DataArray>
				<DataArray Name="Energy" type="Float32" format="ascii">
 833.88 820.291 789.01 734.021 656.54 564.65 469.778 381.339 304.701 241.674 191.468 152.083 121.254 96.9335 77.4277 61.5504 48.5055 37.7308 28.8813 21.741 16.1377 11.8897 8.77309 6.5423 4.98178 3.89649 3.11095 2.59966 2.33821 2.21963 820.3 809.245 783.242 733.956 661.644 571.977 476.61 386.641 307.916 242.636 190.464 149.743 118.154 93.6768 74.3725 58.9299 46.4465 36.2439 27.8847 21.101 15.7168 11.5747 8.50442 6.30661 4.77337 3.71917 2.99075 2.53173 2.29473 2.17888 789.049 783.282 769.391 734.778 676.552 599.233 508.371 415.011 329.972 258.645 201.66 157.561 123.652 97.7004 77.5876 61.6757 48.8161 38.214 29.4383 22.2877 16.6024 12.2292 8.98071 6.63683 4.99775 3.87032 3.07054 2.54655 2.28335 2.16447 734.138 734.096 734.886 717.603 677.13 613.612 534.845 447.877 361.171 283.825 219.975 170.206 132.08 103.026 80.8029 63.1874 49.1662 37.9919 29.0745 21.9838 16.4201 12.1521 8.95555 6.62113 4.97062 3.83307 3.03945 2.52462 2.26582 2.14375 656.773 661.933 676.826 677.322 656.789 611.722 543.511 461.814 377.283 298.055 230.582 176.945 135.807 104.676 81.1699 63.0426 48.9396 37.8728 29.0946 22.1494 16.6762 12.4321 9.2129 6.82707 5.12149 3.93702 3.10343 2.56229 2.29297 2.17095 564.99 572.399 599.686 614.006 611.969 589.901 542.102 471.944 391.236 311.838 241.512 184.296 140.043 106.74 81.7903 62.9611 48.5359 37.4174 28.7666 22.0026 16.6902 12.542 9.35822 6.97129 5.23651 4.01608 3.15901 2.60689 2.33038 2.20171 470.158 477.077 508.952 535.391 543.962 542.404 519.312 470.444 403.119 327.495 256.266 195.373 147.222 110.958 84.053 64.1913 49.2122 37.8004 29.0407 22.2309 16.9052 12.7527 9.56137 7.16376 5.41013 4.15962 3.26877 2.69001 2.39783 2.26291 381.711 387.083 415.587 448.511 462.381 472.417 470.678 444.144 397.237 333.981 266.505 205.236 154.791 115.867 86.9009 65.7049 49.9921 38.2707 29.4044 22.6025 17.3129 13.1727 9.95374 7.49696 5.67758 4.3629 3.40959 2.77584 2.45278 2.30045 305.021 308.298 330.436 361.754 377.839 391.806 403.462 397.508 373.082 328.393 271.482 213.417 162.325 121.45 90.5623 67.8376 51.275 39.041 29.9391 23.05 17.7426 13.5947 10.3452 7.83486 5.9456 4.56006 3.53806 2.83503 2.47598 2.30781 241.929 242.94 258.992 284.271 298.498 312.365 327.834 334.309 328.623 304.751 264.422 215.341 167.214 126.117 94.1801 70.4448 53.1414 40.3854 30.9756 23.8758 18.4328 14.1947 10.8605 8.2567 6.26684 4.7808 3.66662 2.8779 2.47683 2.29041 191.654 190.686 201.9 220.272 230.882 241.962 256.529 266.8 271.779 264.492 242.737 207.267 166.517 128.093 96.4411 72.2625 54.608 41.6169 32.0091 24.7435 19.1689 14.8161 11.3963 8.69383 6.59579 5.00154 3.79847 2.91127 2.45256 2.24804 152.213 149.898 157.717 170.388 177.129 184.616 195.549 205.434 213.704 215.48 207.411 187.356 158.026 125.591 96.4794 73.1117 55.5853 42.5518 32.9147 25.5867 19.9131 15.4746 11.9872 9.19683 6.98289 5.26676 3.95616 2.96683 2.43387 2.21267 121.338 118.254 123.745 132.183 135.915 140.245 147.31 154.903 162.579 167.334 166.639 158.083 139.853 116.303 92.3062 71.3279 54.9816 42.6273 33.3047 26.1143 20.4747 16.038 12.5022 9.67188 7.38282 5.55446 4.13124 3.04888 2.43708 2.19596 96.9863 93.737 97.7568 103.079 104.73 106.859 110.987 115.918 121.657 126.24 128.198 125.65 116.361 100.567 82.5901 65.7213 51.5363 40.666 32.3849 25.9275 20.711 16.4228 12.926 10.0976 7.76862 5.86994 4.34 3.15825 2.46263 2.19896 77.4599 74.4095 77.6193 80.8293 81.1953 81.8467 84.0544 86.9058 90.6982 94.265 96.5275 96.577 92.4312 82.6804 69.4108 56.5648 45.4376 36.6066 29.7867 24.3724 19.9744 16.2745 13.117 10.3876 8.07889 6.15073 4.55463 3.29493 2.50508 2.21201 61.5692 58.9514 61.6879 63.2073 63.0497 62.985 64.1887 65.6937 67.909 70.4712 72.313 73.1848 71.4321 65.8416 56.6236 46.4143 37.6286 30.8583 25.6292 21.5152 18.2133 15.3142 12.6907 10.3791 8.26325 6.35725 4.74326 3.44847 2.56758 2.23311 48.5161 46.4575 48.822 49.1752 48.9393 48.5439 49.1969 49.9812 51.2926 53.14 54.6308 55.6212 55.0722 51.6707 45.525 37.6761 30.3136 24.9026 20.8289 17.8168 15.4641 13.5355 11.7467 9.93243 8.14295 6.45535 4.90679 3.6031 2.64572 2.25545 37.7365 36.2498 38.217 37.9991 37.8754 37.4146 37.7894 38.2539 39.0328 40.3641 41.6202 42.5666 42.6868 40.7704 36.6948 30.9387 24.9338 20.0787 16.7869 14.3065 12.4473 11.1388 10.0807 9.03084 7.77116 6.35677 4.98467 3.7469 2.73669 2.27628 28.8843 27.888 29.4401 29.0792 29.0989 28.768 29.0384 29.3934 29.9193 30.9493 31.9935 32.912 33.3256 32.4457 29.8644 25.7014 20.877 16.8078 13.864 11.7614 10.146 8.95343 8.09413 7.52318 6.94684 6.07112 4.93266 3.83209 2.84046 2.2953 21.7425 21.1031 22.2889 21.9874 22.1537 22.0057 22.2334 22.5994 23.0337 23.8554 24.7277 25.5769 26.111 25.9491 24.4191 21.5699 17.8762 14.3257 11.7708 9.94937 8.56051 7.46467 6.63126 6.04541 5.69977 5.39304 4.7354 3.82684 2.93533 2.31201 16.1384 15.7181 16.6031 16.4227 16.6789 16.6931 16.9086 17.3146 17.7362 18.4276 19.1546 19.898 20.4628 20.7098 19.9826 18.2363 15.4916 12.4775 10.1514 8.55946 7.36403 6.41245 5.65665 5.04543 4.62719 4.42646 4.244 3.71084 2.97186 2.31977 11.89 11.5753 12.2297 12.1539 12.4343 12.5439 12.7551 13.1758 13.596 14.1942 14.8073 15.4667 16.0309 16.4085 16.2803 15.3194 13.542 11.1508 8.94434 7.47109 6.41278 5.58932 4.91406 4.36572 3.91261 3.60743 3.50714 3.36322 2.92916 2.30632 8.77339 8.5049 8.98111 8.95661 9.21442 9.35971 9.56319 9.95615 10.3459 10.862 11.3971 11.9831 12.4987 12.9235 13.1065 12.6912 11.7518 10.0758 8.10175 6.63194 5.65361 4.91435 4.31728 3.82532 3.40946 3.07099 2.85787 2.81195 2.74829 2.24492 6.5427 6.30706 6.6372 6.62196 6.82801 6.97241 7.16502 7.49884 7.83527 8.25769 8.69558 9.19631 9.67131 10.0953 10.3824 10.3783 9.92469 9.02709 7.52512 6.03372 5.04829 4.36489 3.82443 3.37512 2.99552 2.67855 2.42132 2.28267 2.40406 2.11427 4.9823 4.77387 4.99818 4.97128 5.1221 5.23706 5.41056 5.67866 5.94627 6.26729 6.59662 6.98388 7.38473 7.76756 8.07886 8.25814 8.14376 7.77172 6.94593 5.69849 4.62851 3.90898 3.40873 2.99514 2.64639 2.34697 2.10615 1.92964 1.98594 1.86601 3.89712 3.71978 3.87083 3.83365 3.93753 4.01651 4.15994 4.36334 4.56073 4.7817 5.00226 5.26637 5.55741 5.87032 6.15012 6.35524 6.4574 6.35401 6.06904 5.39189 4.42162 3.60637 3.06993 2.67778 2.34668 2.06936 1.83238 1.63483 1.57959 1.5095 3.11152 2.99132 3.07101 3.03992 3.10383 3.15932 3.26904 3.4098 3.53807 3.66716 3.79961 3.95558 4.13185 4.34226 4.55468 4.74293 4.90614 4.98524 4.93183 4.73434 4.24284 3.50658 2.85601 2.4207 2.10578 1.83224 1.62521 1.37792 1.27211 1.06836 2.60014 2.5322 2.54697 2.52499 2.5626 2.60712 2.69019 2.77605 2.83518 2.8781 2.91171 2.96784 3.04847 3.15841 3.29656 3.44919 3.60361 3.74787 3.83192 3.82673 3.71066 3.36239 2.81107 2.28238 1.92931 1.63469 1.37786 1.18053 0.996422 0.59077 2.33862 2.29512 2.28371 2.26611 2.29319 2.33054 2.39794 2.45289 2.47615 2.47712 2.45278 2.43493 2.4378 2.46226 2.50516 2.56826 2.64578 2.73666 2.84027 2.93546 2.97184 2.92919 2.74808 2.40388 1.98577 1.5795 1.27206 0.996419 0.650715 0.206658 2.22001 2.17924 2.1648 2.14403 2.17115 2.20187 2.26303 2.30056 2.30792 2.29063 2.24829 2.21309 2.19652 2.19921 2.21205 2.23299 2.25527 2.27617 2.29523 2.31202 2.31981 2.30637 2.24499 2.1143 1.86604 1.50952 1.06834 0.590789 0.206659 0.0216305
				</DataArray>
				<DataArray Name="F1" type="Float32" format="ascii">
 1 1 1 1 1 1 1 1 1 1 1 1 1 1 1 1 1 1 1 1 1 1 1 1 1 1 1 1 1 1 1 1 1 1 1 1 1 1 1 1 1 1 1 1 1 1 1 1 1 1 1 1 1 1 1 1 1 1 1 1 1 1 1 1 1 1 1 1 1 1 1 1 1 1 1 1 1 1 1 1 1 1 1 1 1 1 1 1 1 1 1 1 1 1 1 1 1 1 1 1 1 1 1 1 1 1 1 1 1 1 1 1 1 1 1 1 1 1 1 1 1 1 1 1 1 1 1 1 1 1 1 1 1 1 1 1 1 1 1 1 1 1 1 1 1 1 1 1 1 1 1 1 1 1 1 1 1 1 1 1 1 1 1 1 1 1 1 1 1 1 1 1 1 1 1 1 1 1 1 1 1 1 1 1 1 1 1 1 1 1 1 1 1 1 1 1 1 1 1 1 1 1 1 1 1 1 1 1 1 1 1 1 1 1 1 1 1 1 1 1 1 1 1 1 1 1 1 1 1 1 1 1 1 1 1 1 1 1 1 1 1 1 1 1 1 1 1 1 1 1 1 1 1 1 1 1 1 1 1 1 1 1 1 1 1 1 1 1 1 1 1 1 1 1 1 1 1 1 1 1 1 1 1 1 1 1 1 1 1 1 1 1 1 1 1 1 1 1 1 1 1 1 1 1 1 1 1 1 1 1 1 1 1 1 1 1 1 1 1 1 1 1 1 1 1 1 1 1 1 1 1 1 1 1 1 1 1 1 1 1 1 1 1 1 1 1 1 1 1 1 1 1 1 1 1 1 1 1 1 1 1 1 1 1 1 1 1 1 1 1 1 1 1 1 1 1 1 1 1 1 1 1 1 1 1 1 1 1 1 1 1 1 1 1 1 1 1 1 1 1 1 1 1 1 1 1 1 1 1 1 1 1 1 1 1 1 1 1 1 1 1 1 1 1 1 1 1 1 1 1 1 1 1 1 1 1 1 1 1 1 1 1 1 1 1 1 1 1 1 1 1 1 1 1 1 1 1 1 1 1 1 1 1 1 1 1 1 1 1 1 1 1 1 1 1 1 1 1 1 1 1 1 1 1 1 1 1 1 1 1 1 1 1 1 1 1 1 1 1 1 1 1 1 1 1 1 1 1 1 1 1 1 1 1 1 1 1 1 1 1 1 1 1 1 1 1 1 1 1 1 1 1 1 1 1 1 1 1 1 1 1 1 1 1 1 1 1 1 1 1 1 1 1 1 1 1 1 1 1 1 1 1 1 1 1 1 1 1 1 1 1 1 1 1 1 1 1 1 1 1 1 1 1 1 1 1 1 1 1 1 1 1 1 1 1 1 1 1 1 1 1 1 1 1 1 1 1 1 1 1 1 1 1 1 1 1 1 1 1 1 1 1 1 1 1 1 1 1 1 1 1 1 1 1 1 1 1 1 1 1 1 1 1 1 1 1 1 1 1 1 1 1 1 1 1 1 1 1 1 1 1 1 1 1 1 1 1 1 1 1 1 1 1 1 1 1 1 1 1 1 1 1 1 1 1 1 1 1 1 1 1 1 1 1 1 1 1 1 1 1 1 1 1 1 1 1 1 1 1 1 1 1 1 1 1 1 1 1 1 1 1 1 1 1 1 1 1 1 1 1 1 1 1 1 1 1 1 1 1 1 1 1 1 1 1 1 1 1 1 1 1 1 1 1 1 1 1 1 1 1 1 1 1 1 1 1 1 1 1 1 1 1 1 1 1 1 1 1 1 1 1 1 1 1 1 1 1 1 1 1 1 1 1 1 1 1 1 1 1 1 1 1 1 1 1 1 1 1 1 1 1 1 1 1 1 1 1 1 1 1 1 1 1 1 1 1 1 1 1 1 1 1 1 1 1 1 1 1 1 1 1 1 1 1 1 1 1 1 1 1 1 1 1 1 1 1 1 1 1 1 1 1 1 1 1 1 1 1 1 1 1 1 1 1 1 1 1 1 1 1 1 1 1 1 1 1 1 1 1 1 1 1 1 1 1 1 1 1 1 1
				</DataArray>
				<DataArray Name="F2" type="Float32" format="ascii">
 0 0 0 0 0 0 0 0 0 0 0 0 0 0 0 0 0 0 0 0 0 0 0 0 0 0 0 0 0 0 0 0 0 0 0 0 0 0 0 0 0 0 0 0 0 0 0 0 0 0 0 0 0 0 0 0 0 0 0 0 0 0 0 0 0 0 0 0 0 0 0 0 0 0 0 0 0 0 0 0 0 0 0 0 0 0 0 0 0 0 0 0 0 0 0 0 0 0 0 0 0 0 0 0 0 0 0 0 0 0 0 0 0 0 0 0 0 0 0 0 0 0 0 0 0 0 0 0 0 0 0 0 0 0 0 0 0 0 0 0 0 0 0 0 0 0 0 0 0 0 0 0 0 0 0 0 0 0 0 0 0 0 0 0 0 0 0 0 0 0 0 0 0 0 0 0 0 0 0 0 0 0 0 0 0 0 0 0 0 0 0 0 0 0 0 0 0 0 0 0 0 0 0 0 0 0 0 0 0 0 0 0 0 0 0 0 0 0 0 0 0 0 0 0 0 0 0 0 0 0 0 0 0 0 0 0 0 0 0 0 0 0 0 0 0 0 0 0 0 0 0 0 0 0 0 0 0 0 0 0 0 0 0 0 0 0 0 0 0 0 0 0 0 0 0 0 0 0 0 0 0 0 0 0 0 0 0 0 0 0 0 0 0 0 0 0 0 0 0 0 0 0 0 0 0 0 0 0 0 0 0 0 0 0 0 0 0 0 0 0 0 0 0 0 0 0 0 0 0 0 0 0 0 0 0 0 0 0 0 0 0 0 0 0 0 0 0 0 0 0 0 0 0 0 0 0 0 0 0 0 0 0 0 0 0 0 0 0 0 0 0 0 0 0 0 0 0 0 0 0 0 0 0 0 0 0 0 0 0 0 0 0 0 0 0 0 0 0 0 0 0 0 0 0 0 0 0 0 0 0 0 0 0 0 0 0 0 0 0 0 0 0 0 0 0 0 0 0 0 0 0 0 0 0 0 0 0 0 0 0 0 0 0 0 0 0 0 0 0 0 0 0 0 0 0 0 0 0 0 0 0 0 0 0 0 0 0 0 0 0 0 0 0 0 0 0 0 0 0 0 0 0 0 0 0 0 0 0 0 0 0 0 0 0 0 0 0 0 0 0 0 0 0 0 0 0 0 0 0 0 0 0 0 0 0 0 0 0 0 0 0 0 0 0 0 0 0 0 0 0 0 0 0 0 0 0 0 0 0 0 0 0 0 0 0 0 0 0 0 0 0 0 0 0 0 0 0 0 0 0 0 0 0 0 0 0 0 0 0 0 0 0 0 0 0 0 0 0 0 0 0 0 0 0 0 0 0 0 0 0 0 0 0 0 0 0 0 0 0 0 0 0 0 0 0 0 0 0 0 0 0 0 0 0 0 0 0 0 0 0 0 0 0 0 0 0 0 0 0 0 0 0 0 0 0 0 0 0 0 0 0 0 0 0 0 0 0 0 0 0 0 0 0 0 0 0 0 0 0 0 0 0 0 0 0 0 0 0 0 0 0 0 0 0 0 0 0 0 0 0 0 0 0 0 0 0 0 0 0 0 0 0 0 0 0 0 0 0 0 0 0 0 0 0 0 0 0 0 0 0 0 0 0 0 0 0 0 0 0 0 0 0 0 0 0 0 0 0 0 0 0 0 0 0 0 0 0 0 0 0 0 0 0 0 0 0 0 0 0 0 0 0 0 0 0 0 0 0 0 0 0 0 0 0 0 0 0 0 0 0 0 0 0 0 0 0 0 0 0 0 0 0 0 0 0 0 0 0 0 0 0 0 0 0 0 0 0 0 0 0 0 0 0 0 0 0 0 0 0 0 0 0 0 0 0 0 0 0 0 0 0 0 0 0 0 0 0 0 0 0 0 0 0 0 0 0 0 0 0 0 0 0 0 0 0 0 0 0 0 0 0 0 0 0 0 0 0 0 0 0 0 0 0 0 0 0 0 0 0 0 0 0 0 0 0 0 0 0 0 0 0 0 0 0 0 0 0 0 0 0 0 0 0 0 0 0 0 0 0 0
				</DataArray>
				<DataArray Name="F3" type="Float32" format="ascii">