<?xml version="1.0"?>
<VTKFile type="PolyData">
	<PolyData>
		<Piece NumberOfPoints="961" NumberOfPolys="900">
			<Points>
				<DataArray type="Float32" NumberOfComponents="3" format="ascii">
 0 0 0 0.04 0 0 0.08 0 0 0.12 0 0 0.16 0 0 0.2 0 0 0.24 0 0 0.28 0 0 0.32 0 0 0.36 0 0 0.4 0 0 0.44 0 0 0.48 0 0 0.52 0 0 0.56 0 0 0.6 0 0 0.64 0 0 0.68 0 0 0.72 0 0 0.76 0 0 0.8 0 0 0.84 0 0 0.88 0 0 0.92 0 0 0.96 0 0 1 0 0 1.04 0 0 1.08 0 0 1.12 0 0 1.16 0 0 1.2 0 0 0 0.04 0 0.04 0.04 0 0.08 0.04 0 0.12 0.04 0 0.16 0.04 0 0.2 0.04 0 0.24 0.04 0 0.28 0.04 0 0.32 0.04 0 0.36 0.04 0 0.4 0.04 0 0.44 0.04 0 0.48 0.04 0 0.52 0.04 0 0.56 0.04 0 0.6 0.04 0 0.64 0.04 0 0.68 0.04 0 0.72 0.04 0 0.76 0.04 0 0.8 0.04 0 0.84 0.04 0 0.88 0.04 0 0.92 0.04 0 0.96 0.04 0 1 0.04 0 1.04 0.04 0 1.08 0.04 0 1.12 0.04 0 1.16 0.04 0 1.2 0.04 0 0 0.08 0 0.04 0.08 0 0.08 0.08 0 0.12 0.08 0 0.16 0.08 0 0.2 0.08 0 0.24 0.08 0 0.28 0.08 0 0.32 0.08 0 0.36 0.08 0 0.4 0.08 0 0.44 0.08 0 0.48 0.08 0 0.52 0.08 0 0.56 0.08 0 0.6 0.08 0 0.64 0.08 0 0.68 0.08 0 0.72 0.08 0 0.76 0.08 0 0.8 0.08 0 0.84 0.08 0 0.88 0.08 0 0.92 0.08 0 0.96 0.08 0 1 0.08 0 1.04 0.08 0 1.08 0.08 0 1.12 0.08 0 1.16 0.08 0 1.2 0.08 0 0 0.12 0 0.04 0.12 0 0.08 0.12 0 0.12 0.12 0 0.16 0.12 0 0.2 0.12 0 0.24 0.12 0 0.28 0.12 0 0.32 0.12 0 0.36 0.12 0 0.4 0.12 0 0.44 0.12 0 0.48 0.12 0 0.52 0.12 0 0.56 0.12 0 0.6 0.12 0 0.64 0.12 0 0.68 0.12 0 0.72 0.12 0 0.76 0.12 0 0.8 0.12 0 0.84 0.12 0 0.88 0.12 0 0.92 0.12 0 0.96 0.12 0 1 0.12 0 1.04 0.12 0 1.08 0.12 0 1.12 0.12 0 1.16 0.12 0 1.2 0.12 0 0 0.16 0 0.04 0.16 0 0.08 0.16 0 0.12 0.16 0 0.16 0.16 0 0.2 0.16 0 0.24 0.16 0 0.28 0.16 0 0.32 0.16 0 0.36 0.16 0 0.4 0.16 0 0.44 0.16 0 0.48 0.16 0 0.52 0.16 0 0.56 0.16 0 0.6 0.16 0 0.64 0.16 0 0.68 0.16 0 0.72 0.16 0 0.76 0.16 0 0.8 0.16 0 0.84 0.16 0 0.88 0.16 0 0.92 0.16 0 0.96 0.16 0 1 0.16 0 1.04 0.16 0 1.08 0.16 0 1.12 0.16 0 1.16 0.16 0 1.2 0.16 0 0 0.2 0 0.04 0.2 0 0.08 0.2 0 0.12 0.2 0 0.16 0.2 0 0.2 0.2 0 0.24 0.2 0 0.28 0.2 0 0.32 0.2 0 0.36 0.2 0 0.4 0.2 0 0.44 0.2 0 0.48 0.2 0 0.52 0.2 0 0.56 0.2 0 0.6 0.2 0 0.64 0.2 0 0.68 0.2 0 0.72 0.2 0 0.76 0.2 0 0.8 0.2 0 0.84 0.2 0 0.88 0.2 0 0.92 0.2 0 0.96 0.2 0 1 0.2 0 1.04 0.2 0 1.08 0.2 0 1.12 0.2 0 1.16 0.2 0 1.2 0.2 0 0 0.24 0 0.04 0.24 0 0.08 0.24 0 0.12 0.24 0 0.16 0.24 0 0.2 0.24 0 0.24 0.24 0 0.28 0.24 0 0.32 0.24 0 0.36 0.24 0 0.4 0.24 0 0.44 0.24 0 0.48 0.24 0 0.52 0.24 0 0.56 0.24 0 0.6 0.24 0 0.64 0.24 0 0.68 0.24 0 0.72 0.24 0 0.76 0.24 0 0.8 0.24 0 0.84 0.24 0 0.88 0.24 0 0.92 0.24 0 0.96 0.24 0 1 0.24 0 1.04 0.24 0 1.08 0.24 0 1.12 0.24 0 1.16 0.24 0 1.2 0.24 0 0 0.28 0 0.04 0.28 0 0.08 0.28 0 0.12 0.28 0 0.16 0.28 0 0.2 0.28 0 0.24 0.28 0 0.28 0.28 0 0.32 0.28 0 0.36 0.28 0 0.4 0.28 0 0.44 0.28 0 0.48 0.28 0 0.52 0.28 0 0.56 0.28 0 0.6 0.28 0 0.64 0.28 0 0.68 0.28 0 0.72 0.28 0 0.76 0.28 0 0.8 0.28 0 0.84 0.28 0 0.88 0.28 0 0.92 0.28 0 0.96 0.28 0 1 0.28 0 1.04 0.28 0 1.08 0.28 0 1.12 0.28 0 1.16 0.28 0 1.2 0.28 0 0 0.32 0 0.04 0.32 0 0.08 0.32 0 0.12 0.32 0 0.16 0.32 0 0.2 0.32 0 0.24 0.32 0 0.28 0.32 0 0.32 0.32 0 0.36 0.32 0 0.4 0.32 0 0.44 0.32 0 0.48 0.32 0 0.52 0.32 0 0.56 0.32 0 0.6 0.32 0 0.64 0.32 0 0.68 0.32 0 0.72 0.32 0 0.76 0.32 0 0.8 0.32 0 0.84 0.32 0 0.88 0.32 0 0.92 0.32 0 0.96 0.32 0 1 0.32 0 1.04 0.32 0 1.08 0.32 0 1.12 0.32 0 1.16 0.32 0 1.2 0.32 0 0 0.36 0 0.04 0.36 0 0.08 0.36 0 0.12 0.36 0 0.16 0.36 0 0.2 0.36 0 0.24 0.36 0 0.28 0.36 0 0.32 0.36 0 0.36 0.36 0 0.4 0.36 0 0.44 0.36 0 0.48 0.36 0 0.52 0.36 0 0.56 0.36 0 0.6 0.36 0 0.64 0.36 0 0.68 0.36 0 0.72 0.36 0 0.76 0.36 0 0.8 0.36 0 0.84 0.36 0 0.88 0.36 0 0.92 0.36 0 0.96 0.36 0 1 0.36 0 1.04 0.36 0 1.08 0.36 0 1.12 0.36 0 1.16 0.36 0 1.2 0.36 0 0 0.4 0 0.04 0.4 0 0.08 0.4 0 0.12 0.4 0 0.16 0.4 0 0.2 0.4 0 0.24 0.4 0 0.28 0.4 0 0.32 0.4 0 0.36 0.4 0 0.4 0.4 0 0.44 0.4 0 0.48 0.4 0 0.52 0.4 0 0.56 0.4 0 0.6 0.4 0 0.64 0.4 0 0.68 0.4 0 0.72 0.4 0 0.76 0.4 0 0.8 0.4 0 0.84 0.4 0 0.88 0.4 0 0.92 0.4 0 0.96 0.4 0 1 0.4 0 1.04 0.4 0 1.08 0.4 0 1.12 0.4 0 1.16 0.4 0 1.2 0.4 0 0 0.44 0 0.04 0.44 0 0.08 0.44 0 0.12 0.44 0 0.16 0.44 0 0.2 0.44 0 0.24 0.44 0 0.28 0.44 0 0.32 0.44 0 0.36 0.44 0 0.4 0.44 0 0.44 0.44 0 0.48 0.44 0 0.52 0.44 0 0.56 0.44 0 0.6 0.44 0 0.64 0.44 0 0.68 0.44 0 0.72 0.44 0 0.76 0.44 0 0.8 0.44 0 0.84 0.44 0 0.88 0.44 0 0.92 0.44 0 0.96 0.44 0 1 0.44 0 1.04 0.44 0 1.08 0.44 0 1.12 0.44 0 1.16 0.44 0 1.2 0.44 0 0 0.48 0 0.04 0.48 0 0.08 0.48 0 0.12 0.48 0 0.16 0.48 0 0.2 0.48 0 0.24 0.48 0 0.28 0.48 0 0.32 0.48 0 0.36 0.48 0 0.4 0.48 0 0.44 0.48 0 0.48 0.48 0 0.52 0.48 0 0.56 0.48 0 0.6 0.48 0 0.64 0.48 0 0.68 0.48 0 0.72 0.48 0 0.76 0.48 0 0.8 0.48 0 0.84 0.48 0 0.88 0.48 0 0.92 0.48 0 0.96 0.48 0 1 0.48 0 1.04 0.48 0 1.08 0.48 0 1.12 0.48 0 1.16 0.48 0 1.2 0.48 0 0 0.52 0 0.04 0.52 0 0.08 0.52 0 0.12 0.52 0 0.16 0.52 0 0.2 0.52 0 0.24 0.52 0 0.28 0.52 0 0.32 0.52 0 0.36 0.52 0 0.4 0.52 0 0.44 0.52 0 0.48 0.52 0 0.52 0.52 0 0.56 0.52 0 0.6 0.52 0 0.64 0.52 0 0.68 0.52 0 0.72 0.52 0 0.76 0.52 0 0.8 0.52 0 0.84 0.52 0 0.88 0.52 0 0.92 0.52 0 0.96 0.52 0 1 0.52 0 1.04 0.52 0 1.08 0.52 0 1.12 0.52 0 1.16 0.52 0 1.2 0.52 0 0 0.56 0 0.04 0.56 0 0.08 0.56 0 0.12 0.56 0 0.16 0.56 0 0.2 0.56 0 0.24 0.56 0 0.28 0.56 0 0.32 0.56 0 0.36 0.56 0 0.4 0.56 0 0.44 0.56 0 0.48 0.56 0 0.52 0.56 0 0.56 0.56 0 0.6 0.56 0 0.64 0.56 0 0.68 0.56 0 0.72 0.56 0 0.76 0.56 0 0.8 0.56 0 0.84 0.56 0 0.88 0.56 0 0.92 0.56 0 0.96 0.56 0 1 0.56 0 1.04 0.56 0 1.08 0.56 0 1.12 0.56 0 1.16 0.56 0 1.2 0.56 0 0 0.6 0 0.04 0.6 0 0.08 0.6 0 0.12 0.6 0 0.16 0.6 0 0.2 0.6 0 0.24 0.6 0 0.28 0.6 0 0.32 0.6 0 0.36 0.6 0 0.4 0.6 0 0.44 0.6 0 0.48 0.6 0 0.52 0.6 0 0.56 0.6 0 0.6 0.6 0 0.64 0.6 0 0.68 0.6 0 0.72 0.6 0 0.76 0.6 0 0.8 0.6 0 0.84 0.6 0 0.88 0.6 0 0.92 0.6 0 0.96 0.6 0 1 0.6 0 1.04 0.6 0 1.08 0.6 0 1.12 0.6 0 1.16 0.6 0 1.2 0.6 0 0 0.64 0 0.04 0.64 0 0.08 0.64 0 0.12 0.64 0 0.16 0.64 0 0.2 0.64 0 0.24 0.64 0 0.28 0.64 0 0.32 0.64 0 0.36 0.64 0 0.4 0.64 0 0.44 0.64 0 0.48 0.64 0 0.52 0.64 0 0.56 0.64 0 0.6 0.64 0 0.64 0.64 0 0.68 0.64 0 0.72 0.64 0 0.76 0.64 0 0.8 0.64 0 0.84 0.64 0 0.88 0.64 0 0.92 0.64 0 0.96 0.64 0 1 0.64 0 1.04 0.64 0 1.08 0.64 0 1.12 0.64 0 1.16 0.64 0 1.2 0.64 0 0 0.68 0 0.04 0.68 0 0.08 0.68 0 0.12 0.68 0 0.16 0.68 0 0.2 0.68 0 0.24 0.68 0 0.28 0.68 0 0.32 0.68 0 0.36 0.68 0 0.4 0.68 0 0.44 0.68 0 0.48 0.68 0 0.52 0.68 0 0.56 0.68 0 0.6 0.68 0 0.64 0.68 0 0.68 0.68 0 0.72 0.68 0 0.76 0.68 0 0.8 0.68 0 0.84 0.68 0 0.88 0.68 0 0.92 0.68 0 0.96 0.68 0 1 0.68 0 1.04 0.68 0 1.08 0.68 0 1.12 0.68 0 1.16 0.68 0 1.2 0.68 0 0 0.72 0 0.04 0.72 0 0.08 0.72 0 0.12 0.72 0 0.16 0.72 0 0.2 0.72 0 0.24 0.72 0 0.28 0.72 0 0.32 0.72 0 0.36 0.72 0 0.4 0.72 0 0.44 0.72 0 0.48 0.72 0 0.52 0.72 0 0.56 0.72 0 0.6 0.72 0 0.64 0.72 0 0.68 0.72 0 0.72 0.72 0 0.76 0.72 0 0.8 0.72 0 0.84 0.72 0 0.88 0.72 0 0.92 0.72 0 0.96 0.72 0 1 0.72 0 1.04 0.72 0 1.08 0.72 0 1.12 0.72 0 1.16 0.72 0 1.2 0.72 0 0 0.76 0 0.04 0.76 0 0.08 0.76 0 0.12 0.76 0 0.16 0.76 0 0.2 0.76 0 0.24 0.76 0 0.28 0.76 0 0.32 0.76 0 0.36 0.76 0 0.4 0.76 0 0.44 0.76 0 0.48 0.76 0 0.52 0.76 0 0.56 0.76 0 0.6 0.76 0 0.64 0.76 0 0.68 0.76 0 0.72 0.76 0 0.76 0.76 0 0.8 0.76 0 0.84 0.76 0 0.88 0.76 0 0.92 0.76 0 0.96 0.76 0 1 0.76 0 1.04 0.76 0 1.08 0.76 0 1.12 0.76 0 1.16 0.76 0 1.2 0.76 0 0 0.8 0 0.04 0.8 0 0.08 0.8 0 0.12 0.8 0 0.16 0.8 0 0.2 0.8 0 0.24 0.8 0 0.28 0.8 0 0.32 0.8 0 0.36 0.8 0 0.4 0.8 0 0.44 0.8 0 0.48 0.8 0 0.52 0.8 0 0.56 0.8 0 0.6 0.8 0 0.64 0.8 0 0.68 0.8 0 0.72 0.8 0 0.76 0.8 0 0.8 0.8 0 0.84 0.8 0 0.88 0.8 0 0.92 0.8 0 0.96 0.8 0 1 0.8 0 1.04 0.8 0 1.08 0.8 0 1.12 0.8 0 1.16 0.8 0 1.2 0.8 0 0 0.84 0 0.04 0.84 0 0.08 0.84 0 0.12 0.84 0 0.16 0.84 0 0.2 0.84 0 0.24 0.84 0 0.28 0.84 0 0.32 0.84 0 0.36 0.84 0 0.4 0.84 0 0.44 0.84 0 0.48 0.84 0 0.52 0.84 0 0.56 0.84 0 0.6 0.84 0 0.64 0.84 0 0.68 0.84 0 0.72 0.84 0 0.76 0.84 0 0.8 0.84 0 0.84 0.84 0 0.88 0.84 0 0.92 0.84 0 0.96 0.84 0 1 0.84 0 1.04 0.84 0 1.08 0.84 0 1.12 0.84 0 1.16 0.84 0 1.2 0.84 0 0 0.88 0 0.04 0.88 0 0.08 0.88 0 0.12 0.88 0 0.16 0.88 0 0.2 0.88 0 0.24 0.88 0 0.28 0.88 0 0.32 0.88 0 0.36 0.88 0 0.4 0.88 0 0.44 0.88 0 0.48 0.88 0 0.52 0.88 0 0.56 0.88 0 0.6 0.88 0 0.64 0.88 0 0.68 0.88 0 0.72 0.88 0 0.76 0.88 0 0.8 0.88 0 0.84 0.88 0 0.88 0.88 0 0.92 0.88 0 0.96 0.88 0 1 0.88 0 1.04 0.88 0 1.08 0.88 0 1.12 0.88 0 1.16 0.88 0 1.2 0.88 0 0 0.92 0 0.04 0.92 0 0.08 0.92 0 0.12 0.92 0 0.16 0.92 0 0.2 0.92 0 0.24 0.92 0 0.28 0.92 0 0.32 0.92 0 0.36 0.92 0 0.4 0.92 0 0.44 0.92 0 0.48 0.92 0 0.52 0.92 0 0.56 0.92 0 0.6 0.92 0 0.64 0.92 0 0.68 0.92 0 0.72 0.92 0 0.76 0.92 0 0.8 0.92 0 0.84 0.92 0 0.88 0.92 0 0.92 0.92 0 0.96 0.92 0 1 0.92 0 1.04 0.92 0 1.08 0.92 0 1.12 0.92 0 1.16 0.92 0 1.2 0.92 0 0 0.96 0 0.04 0.96 0 0.08 0.96 0 0.12 0.96 0 0.16 0.96 0 0.2 0.96 0 0.24 0.96 0 0.28 0.96 0 0.32 0.96 0 0.36 0.96 0 0.4 0.96 0 0.44 0.96 0 0.48 0.96 0 0.52 0.96 0 0.56 0.96 0 0.6 0.96 0 0.64 0.96 0 0.68 0.96 0 0.72 0.96 0 0.76 0.96 0 0.8 0.96 0 0.84 0.96 0 0.88 0.96 0 0.92 0.96 0 0.96 0.96 0 1 0.96 0 1.04 0.96 0 1.08 0.96 0 1.12 0.96 0 1.16 0.96 0 1.2 0.96 0 0 1 0 0.04 1 0 0.08 1 0 0.12 1 0 0.16 1 0 0.2 1 0 0.24 1 0 0.28 1 0 0.32 1 0 0.36 1 0 0.4 1 0 0.44 1 0 0.48 1 0 0.52 1 0 0.56 1 0 0.6 1 0 0.64 1 0 0.68 1 0 0.72 1 0 0.76 1 0 0.8 1 0 0.84 1 0 0.88 1 0 0.92 1 0 0.96 1 0 1 1 0 1.04 1 0 1.08 1 0 1.12 1 0 1.16 1 0 1.2 1 0 0 1.04 0 0.04 1.04 0 0.08 1.04 0 0.12 1.04 0 0.16 1.04 0 0.2 1.04 0 0.24 1.04 0 0.28 1.04 0 0.32 1.04 0 0.36 1.04 0 0.4 1.04 0 0.44 1.04 0 0.48 1.04 0 0.52 1.04 0 0.56 1.04 0 0.6 1.04 0 0.64 1.04 0 0.68 1.04 0 0.72 1.04 0 0.76 1.04 0 0.8 1.04 0 0.84 1.04 0 0.88 1.04 0 0.92 1.04 0 0.96 1.04 0 1 1.04 0 1.04 1.04 0 1.08 1.04 0 1.12 1.04 0 1.16 1.04 0 1.2 1.04 0 0 1.08 0 0.04 1.08 0 0.08 1.08 0 0.12 1.08 0 0.16 1.08 0 0.2 1.08 0 0.24 1.08 0 0.28 1.08 0 0.32 1.08 0 0.36 1.08 0 0.4 1.08 0 0.44 1.08 0 0.48 1.08 0 0.52 1.08 0 0.56 1.08 0 0.6 1.08 0 0.64 1.08 0 0.68 1.08 0 0.72 1.08 0 0.76 1.08 0 0.8 1.08 0 0.84 1.08 0 0.88 1.08 0 0.92 1.08 0 0.96 1.08 0 1 1.08 0 1.04 1.08 0 1.08 1.08 0 1.12 1.08 0 1.16 1.08 0 1.2 1.08 0 0 1.12 0 
[...]
			<CellData Scalars="Density">
				<DataArray Name="Density" type="Float32" format="ascii">
 0.00568451 0.00582521 0.00619287 0.00691221 0.00811205 0.00997465 0.0127587 0.0168051 0.0225732 0.0306513 0.0418348 0.0573349 0.0791175 0.110488 0.15679 0.220165 0.28006 0.307194 0.320527 0.374428 0.449556 0.551169 0.676437 0.825434 1.00797 1.1874 1.33595 1.45955 1.55932 1.6116 0.00582501 0.00591558 0.00619508 0.00677873 0.00773886 0.00927984 0.0116881 0.0153018 0.0206353 0.0284201 0.0396355 0.0555633 0.0780646 0.110039 0.156673 0.220593 0.283192 0.316407 0.330083 0.389174 0.470064 0.576848 0.708284 0.863391 1.0438 1.21412 1.3586 1.4827 1.57976 1.61409 0.00619201 0.00619462 0.00633903 0.00676836 0.00755521 0.0088019 0.010821 0.0140531 0.0190417 0.0265107 0.0374143 0.0529982 0.0750472 0.105923 0.149435 0.208089 0.266804 0.301661 0.314333 0.370779 0.448092 0.552583 0.680419 0.832419 1.01972 1.20648 1.3612 1.48877 1.59194 1.64706 0.00690954 0.00677688 0.00676704 0.00708793 0.0077516 0.00892951 0.0109152 0.0141809 0.0193975 0.027292 0.0388466 0.0554139 0.0789406 0.112368 0.158446 0.217377 0.273771 0.30613 0.3212 0.378739 0.455046 0.561427 0.693249 0.848962 1.0368 1.22702 1.3856 1.51346 1.61121 1.64745 0.0081061 0.00773423 0.00755146 0.00774927 0.00826824 0.00924491 0.0111798 0.0146288 0.0203888 0.0291962 0.0419668 0.0599708 0.085102 0.120103 0.167502 0.224576 0.278227 0.312167 0.328888 0.384452 0.457989 0.563042 0.695654 0.854253 1.045 1.23259 1.38861 1.51403 1.60862 1.64902 0.00996355 0.00927042 0.00879391 0.00892394 0.00924119 0.00974841 0.011141 0.0141734 0.0197475 0.0289856 0.042341 0.0609357 0.0865949 0.121711 0.168921 0.225891 0.280696 0.320299 0.338338 0.390152 0.460569 0.562474 0.694686 0.854076 1.04773 1.23693 1.39087 1.51332 1.60685 1.64615 0.012741 0.0116735 0.0108075 0.0109055 0.0111691 0.01113 0.0114774 0.0134464 0.0175862 0.0251556 0.0373008 0.0549722 0.0798477 0.114793 0.163368 0.222908 0.282425 0.330697 0.353834 0.399782 0.467816 0.564731 0.694848 0.852781 1.0452 1.23162 1.3819 1.50017 1.59351 1.63313 0.0167794 0.0152802 0.0140327 0.014167 0.0146106 0.0141556 0.0134469 0.0136337 0.0161495 0.0214812 0.0309315 0.045856 0.0682659 0.101193 0.148023 0.209881 0.275998 0.333217 0.370179 0.407495 0.472427 0.561607 0.687321 0.840881 1.02962 1.21907 1.37498 1.5004 1.60107 1.64686 0.022541 0.020605 0.0190134 0.0193796 0.0203619 0.0197091 0.0175907 0.0161429 0.0161543 0.0194382 0.0259944 0.0376875 0.0568508 0.0865665 0.130497 0.191071 0.261673 0.328267 0.381676 0.41574 0.472909 0.555249 0.675092 0.825804 1.01462 1.21794 1.38823 1.52509 1.63474 1.68658 0.0306196 0.0283802 0.0264729 0.0272731 0.029157 0.0289273 0.0251716 0.0214711 0.0194213 0.0194919 0.0237967 0.0322157 0.0474853 0.0728785 0.111897 0.167424 0.239729 0.315458 0.381333 0.425074 0.474356 0.551524 0.662289 0.810924 0.999989 1.22235 1.41745 1.5715 1.69171 1.75015 0.0418106 0.0395826 0.0373668 0.0388251 0.0419104 0.0422636 0.0373536 0.0309305 0.0259728 0.0237677 0.0241276 0.0298502 0.0409456 0.0613141 0.0946851 0.143946 0.211255 0.29155 0.368834 0.433216 0.479775 0.547897 0.649463 0.797023 0.987533 1.23143 1.46144 1.64165 1.77582 1.83569 0.0573171 0.0555061 0.052946 0.0553938 0.0599041 0.0608735 0.0550522 0.0458707 0.0376563 0.0321649 0.0298228 0.0305013 0.0381689 0.0530992 0.0802321 0.122996 0.182924 0.260699 0.34733 0.426098 0.486131 0.546993 0.641881 0.783227 0.976488 1.23566 1.50759 1.72018 1.87232 1.93622 0.079105 0.0780213 0.075004 0.0789273 0.0850385 0.0865598 0.0799272 0.0682488 0.0568053 0.0474113 0.0409349 0.0381972 0.0387787 0.0489041 0.0685739 0.103769 0.156663 0.227581 0.315512 0.407319 0.488458 0.550722 0.636078 0.768839 0.964921 1.23431 1.54721 1.79984 1.97709 2.04593 0.110486 0.110008 0.105897 0.11235 0.120057 0.121732 0.114862 0.101145 0.086564 0.0728252 0.0613366 0.0531573 0.0489145 0.0494632 0.0625801 0.0881909 0.13284 0.197221 0.281539 0.378769 0.476284 0.558021 0.63553 0.760517 0.953381 1.23235 1.58331 1.88238 2.09086 2.16942 0.156804 0.156649 0.149398 0.158404 0.167465 0.168952 0.163382 0.147951 0.130601 0.111918 0.0947976 0.080317 0.0685833 0.0625845 0.0634077 0.0801649 0.113285 0.168964 0.246788 0.347954 0.457644 0.561771 0.645461 0.761157 0.947054 1.23312 1.61739 1.96737 2.21481 2.31189 0.220178 0.220563 0.208065 0.217371 0.224487 0.225875 0.222936 0.209869 0.191224 0.167535 0.14417 0.123079 0.103759 0.0881925 0.080115 0.0818167 0.103351 0.14579 0.214802 0.312839 0.43351 0.559203 0.665263 0.770204 0.946404 1.23405 1.65067 2.05667 2.35277 2.47766 0.280083 0.283182 0.266772 0.273759 0.278106 0.280723 0.282432 0.275863 0.261848 0.239829 0.211636 0.183044 0.15674 0.132885 0.113212 0.103291 0.107036 0.13547 0.190166 0.280056 0.405352 0.547473 0.686044 0.799895 0.967024 1.24756 1.68678 2.15286 2.50981 2.67353 0.307278 0.316464 0.301674 0.306125 0.312081 0.320388 0.33062 0.333206 0.328337 0.315438 0.291916 0.260768 0.227928 0.1974 0.168978 0.145651 0.135283 0.142914 0.181212 0.254475 0.375845 0.535599 0.704902 0.843155 0.991288 1.26529 1.7191 2.25648 2.68898 2.89904 0.320631 0.330133 0.314417 0.321274 0.328891 0.338254 0.353735 0.370237 0.38145 0.381484 0.368961 0.347732 0.315773 0.281867 0.247065 0.214888 0.189815 0.180937 0.196083 0.250479 0.353019 0.521937 0.716584 0.900156 1.04809 1.3025 1.74761 2.3574 2.87771 3.14789 0.37455 0.389263 0.370869 0.378769 0.384458 0.390219 0.399886 0.407247 0.415636 0.425207 0.43303 0.426341 0.407283 0.379136 0.348358 0.313164 0.279941 0.254005 0.250136 0.278535 0.357471 0.507483 0.732068 0.969365 1.14412 1.36359 1.79432 2.46451 3.08279 3.42644 0.449699 0.470165 0.448202 0.455102 0.45804 0.460613 0.467758 0.472504 0.473141 0.474057 0.47973 0.485995 0.488479 0.476465 0.458191 0.433943 0.405604 0.375857 0.352586 0.357175 0.40769 0.528435 0.753276 1.02452 1.2633 1.45701 1.85418 2.56146 3.29878 3.73747 0.551308 0.576942 0.552711 0.561491 0.563071 0.562546 0.564754 0.561634 0.555135 0.551441 0.548153 0.546741 0.55085 0.557842 0.562003 0.559439 0.547913 0.53599 0.522101 0.507036 0.528129 0.615414 0.808631 1.10446 1.41407 1.62393 1.94733 2.65568 3.52662 4.0855 0.676588 0.708393 0.680547 0.693341 0.695685 0.694732 0.694924 0.68737 0.675112 0.662392 0.649397 0.641886 0.636428 0.635467 0.645616 0.665396 0.68624 0.705198 0.716965 0.732359 0.753 0.808488 0.956734 1.2386 1.57522 1.86341 2.12253 2.77652 3.77425 4.48135 0.825593 0.863523 0.832589 0.849064 0.854381 0.854159 0.852865 0.840986 0.82587 0.811031 0.796955 0.783244 0.768691 0.760458 0.761012 0.770114 0.799729 0.843288 0.900532 0.969748 1.02486 1.10465 1.23868 1.48437 1.8222 2.16453 2.42665 2.9294 4.02766 4.93433 1.00818 1.04394 1.01992 1.03691 1.04511 1.04788 1.04531 1.02971 1.01475 1.00017 0.987499 0.976526 0.964805 0.953346 0.947007 0.946534 0.966748 0.991103 1.04783 1.14386 1.26335 1.41443 1.57568 1.82311 2.21955 2.56949 2.90426 3.28026 4.34893 5.48912 1.18762 1.2143 1.2067 1.22719 1.23276 1.23711 1.23183 1.21924 1.21809 1.22255 1.23145 1.23559 1.23409 1.23222 1.23305 1.23397 1.24728 1.26505 1.30242 1.36363 1.45704 1.6241 1.86402 2.16531 2.57049 3.12342 3.55036 3.93712 4.7491 6.23929 1.33621 1.35885 1.36148 1.38582 1.38884 1.39112 1.38216 1.37524 1.38844 1.41759 1.46146 1.50744 1.54687 1.58315 1.61721 1.6505 1.68651 1.71884 1.74747 1.79438 1.85418 1.94734 2.12254 2.42719 2.90547 3.55189 4.31109 4.90881 5.51417 7.36802 1.45983 1.48299 1.48907 1.51375 1.51433 1.51363 1.50047 1.50067 1.52534 1.57162 1.64164 1.71991 1.79948 1.88223 1.9672 2.05652 2.15287 2.25644 2.35753 2.46459 2.56174 2.65584 2.77689 2.93001 3.28116 3.93839 4.91052 6.09733 7.0582 9.68961 1.55963 1.58007 1.59223 1.61152 1.60894 1.60717 1.59381 1.60137 1.63498 1.69185 1.77576 1.87205 1.97668 2.09057 2.21465 2.35265 2.51011 2.68919 2.8778 3.083 3.29907 3.52688 3.77453 4.02815 4.34948 4.74997 5.51555 7.05981 8.9011 14.5846 1.61194 1.61445 1.64741 1.64778 1.64936 1.64651 1.63337 1.64718 1.68676 1.75028 1.83573 1.93595 2.04561 2.16896 2.31158 2.47727 2.67364 2.8993 3.14815 3.42671 3.73788 4.08592 4.48181 4.93478 5.48964 6.23985 7.36859 9.69046 14.5852 17.7756
				</DataArray>
				<DataArray Name="Energy" type="Float32" format="ascii">
 950.61 927.754 872.629 781.723 666.009 541.609 423.318 321.248 238.981 175.764 128.509 93.461 67.3368 47.741 33.0154 22.3577 14.9569 9.89202 6.97732 5.44309 4.42139 3.73624 3.19644 2.7653 2.41634 2.16743 1.99932 1.89018 1.83375 1.80535 927.783 913.46 872.313 797.161 698.205 582.115 462.063 352.794 261.425 189.623 135.698 96.4356 68.2246 47.9386 33.0166 22.2614 14.829 9.74782 6.81128 5.24795 4.22419 3.53382 3.00624 2.59583 2.28456 2.07685 1.93806 1.85251 1.80392 1.77091 872.751 872.382 852.459 798.329 715.045 613.691 499.009 384.093 283.274 203.211 143.733 101.168 71.1052 49.8754 34.6067 23.5898 15.8709 10.4789 7.32344 5.624 4.5098 3.76156 3.19089 2.74583 2.38964 2.1312 1.95713 1.84323 1.78651 1.75841 782.029 797.379 798.487 762.183 696.88 604.765 494.649 380.534 278.031 197.43 138.447 96.7542 67.4852 46.8921 32.5898 22.5695 15.4446 10.3813 7.35276 5.65198 4.53365 3.77213 3.18987 2.73091 2.3667 2.11298 1.94467 1.83782 1.77818 1.74218 666.503 698.626 715.4 697.089 653.08 584.034 482.767 368.832 264.413 184.47 128.168 89.4304 62.7636 44.1463 31.0596 21.9626 15.2893 10.4623 7.49475 5.75687 4.62541 3.83869 3.24689 2.7789 2.40605 2.14583 1.97294 1.86311 1.80207 1.76797 542.217 582.709 614.248 605.143 584.269 553.623 484.324 380.439 272.93 185.727 126.922 87.9674 61.6015 43.4677 30.6911 21.789 15.4122 10.7053 7.73988 5.91119 4.75022 3.92682 3.32419 2.84316 2.45704 2.18987 2.01287 1.9007 1.83789 1.80139 423.904 462.641 499.633 495.081 483.233 484.812 469.774 400.834 306.18 213.87 143.991 97.4818 66.916 46.2278 31.928 22.3241 15.7706 11.0543 8.00869 6.08432 4.88597 4.01488 3.40623 2.9156 2.52495 2.25814 2.08101 1.96605 1.90063 1.86101 321.732 353.295 384.646 380.912 369.285 380.928 400.83 394.934 333.199 250.183 173.519 116.755 78.0782 52.2006 35.1635 23.9032 16.6938 11.8015 8.45596 6.38741 5.07328 4.15398 3.5307 3.02899 2.62577 2.34205 2.1511 2.02348 1.94839 1.90418 239.312 261.808 283.695 278.282 264.771 273.46 306.116 333.347 332.7 276.242 206.247 141.981 93.8459 61.3284 40.1649 26.5948 18.2088 12.8729 9.16029 6.8201 5.34501 4.35155 3.67846 3.15395 2.72411 2.40529 2.19215 2.04775 1.96165 1.91415 175.938 189.889 203.502 197.568 184.719 186.108 213.73 250.309 276.49 275.121 225.102 165.965 112.24 72.7246 46.8506 30.6303 20.4437 14.2796 10.1699 7.43525 5.73466 4.62742 3.84684 3.28682 2.82141 2.45156 2.2065 2.04049 1.94213 1.89193 128.579 135.869 143.919 138.523 128.349 127.158 143.791 173.518 206.416 225.38 221.707 178.979 130.182 86.574 55.6082 35.9617 23.7683 16.2257 11.5134 8.29175 6.26199 4.95825 4.04308 3.41714 2.90589 2.48092 2.19323 2.00491 1.89526 1.84046 93.4797 96.5284 101.267 96.7954 89.5247 88.0637 97.336 116.719 142.091 166.218 179.143 174.92 139.544 100.001 65.7744 42.4539 27.9479 18.8376 13.2222 9.46748 6.96823 5.39244 4.31802 3.56802 2.99669 2.52044 2.17925 1.9683 1.849 1.78982 67.3379 68.2574 71.148 67.4981 62.8069 61.6298 66.8496 78.094 93.9229 112.406 130.21 139.437 137.211 108.594 77.1853 50.6938 33.1372 22.2727 15.3635 11.0084 7.94332 5.97302 4.67803 3.75402 3.10472 2.567 2.17609 1.94563 1.81981 1.75515 47.7336 47.9473 49.8829 46.9012 44.1612 43.4623 46.2031 52.2215 61.3327 72.7739 86.5345 99.8922 108.567 107.338 84.7951 60.0379 39.6523 26.3455 18.0628 12.8147 9.24002 6.74967 5.13855 4.02188 3.24265 2.63895 2.19395 1.94085 1.80502 1.73589 33.0062 33.0149 34.6078 32.5999 31.0578 30.6865 31.9255 35.1761 40.1356 46.8296 55.5436 65.6965 77.1729 84.78 83.9471 66.5553 47.1869 31.4844 21.3744 14.9398 10.7777 7.73958 5.7137 4.36238 3.40916 2.73591 2.2284 1.94687 1.80004 1.72669 22.3518 22.2589 23.5871 22.5692 21.9639 21.7895 22.3186 23.9033 26.5681 30.6093 35.902 42.4196 50.6944 60.0337 66.5963 65.7087 52.4716 37.4966 25.4239 17.6162 12.4833 8.98747 6.4346 4.75754 3.62324 2.85355 2.2852 1.96706 1.80671 1.72816 14.9545 14.8279 15.8685 15.4473 15.2904 15.4096 15.7695 16.6958 18.1996 20.4294 23.7167 27.931 33.109 39.6448 47.2184 52.5056 51.2997 41.3607 29.9713 20.6915 14.5292 10.3752 7.3343 5.26823 3.90972 2.99507 2.36915 2.00068 1.82217 1.73649 9.89137 9.747 10.4791 10.3843 10.4635 10.704 11.0545 11.8032 12.867 14.2659 16.2093 18.8225 22.2364 26.3133 31.4717 37.528 41.4217 40.1137 32.6292 24.028 16.86 11.9189 8.43128 5.89041 4.23742 3.16753 2.47412 2.04756 1.84515 1.74895 6.9775 6.81193 7.32369 7.35335 7.49549 7.7425 8.01191 8.4527 9.15677 10.1711 11.5072 13.206 15.3525 18.0365 21.3585 25.4196 30.0235 32.6829 31.3828 25.7487 19.234 13.704 9.61394 6.65582 4.65515 3.39015 2.59984 2.10534 1.87214 1.76329 5.44323 5.24817 5.62429 5.65293 5.75795 5.91161 6.08316 6.38866 6.82422 7.43295 8.28652 9.46446 10.9956 12.8002 14.9179 17.597 20.7027 24.0691 25.7881 24.5864 20.3457 15.3725 10.98 7.58772 5.18062 3.66903 2.75278 2.18117 1.90371 1.77816 4.42158 4.22452 4.51001 4.53408 4.62592 4.75092 4.88713 5.07371 5.34328 5.7332 6.26353 6.9655 7.9391 9.23366 10.7679 12.4725 14.5188 16.8627 19.254 20.367 19.3059 16.1379 12.269 8.617 5.82486 4.0105 2.9294 2.27458 1.93928 1.79355 3.73649 3.53421 3.76173 3.77245 3.83906 3.92721 4.01506 4.15413 4.35194 4.62727 4.9565 5.39016 5.97438 6.74785 7.73551 8.97955 10.3658 11.9108 13.7037 15.3846 16.1512 15.2434 12.8568 9.6353 6.67432 4.46257 3.15036 2.3857 1.98073 1.81003 3.19681 3.00667 3.19114 3.19036 3.24729 3.32429 3.40657 3.53097 3.67825 3.84664 4.04334 4.31791 4.67708 5.13724 5.71258 6.43174 7.32992 8.42646 9.60836 10.9783 12.2719 12.8606 12.1362 10.1728 7.51527 5.08333 3.45704 2.52363 2.03263 1.82711 2.76574 2.59631 2.74616 2.7312 2.77937 2.84338 2.91561 3.02941 3.15399 3.28657 3.41719 3.56789 3.75437 4.02142 4.3617 4.75679 5.26649 5.88832 6.65238 7.5837 8.61448 9.6343 10.1738 9.60369 7.97337 5.81742 3.86843 2.69955 2.09427 1.84565 2.41677 2.28494 2.39001 2.36701 2.40633 2.45733 2.52502 2.62588 2.72432 2.82139 2.90587 2.99679 3.1052 3.24309 3.40895 3.62282 3.909 4.23713 4.65506 5.18045 5.82416 6.67305 7.51381 7.97161 7.52948 6.26254 4.46402 2.97064 2.18713 1.86947 2.16782 2.07721 2.13153 2.11324 2.14604 2.19004 2.25818 2.34212 2.40537 2.45175 2.48122 2.52076 2.56744 2.63948 2.73621 2.85372 2.99522 3.16786 3.39044 3.66893 4.00998 4.46193 5.0824 5.81651 6.26203 5.89025 4.88902 3.3859 2.33064 1.90394 1.99969 1.93841 1.95744 1.9449 1.97311 2.01298 2.08103 2.15115 2.19223 2.20679 2.19363 2.17977 2.17666 2.19418 2.22865 2.28561 2.36942 2.47422 2.59991 2.75283 2.92936 3.15045 3.45726 3.86844 4.46362 4.88848 4.61819 3.76932 2.66359 1.96166 1.89053 1.85284 1.84353 1.83804 1.86324 1.90076 1.96609 2.02353 2.04785 2.04077 2.00531 1.96881 1.94617 1.94099 1.94699 1.96722 2.0008 2.0476 2.10516 2.18113 2.27449 2.38576 2.5237 2.69965 2.97071 3.38593 3.76906 3.60164 2.93817 2.17282 1.83409 1.80424 1.78676 1.77838 1.80219 1.83796 1.90065 1.94842 1.96175 1.94239 1.89565 1.84945 1.82024 1.80516 1.80013 1.80674 1.82218 1.84506 1.872 1.90364 1.93926 1.98085 2.03277 2.09444 2.18729 2.33075 2.66371 2.93813 2.84401 2.36375 1.80569 1.77123 1.75868 1.74238 1.76809 1.80146 1.86101 1.90421 1.91421 1.89217 1.84089 1.79022 1.75555 1.73603 1.7268 1.72804 1.73639 1.74886 1.76323 1.77812 1.79358 1.81012 1.82722 1.84576 1.86958 1.90403 1.96172 2.17284 2.36373 2.00013
				</DataArray>
				<DataArray Name="F1" type="Float32" format="ascii">
 1 1 1 1 1 1 1 1 1 1 1 1 1 1 1 1 1 1 1 1 1 1 1 1 1 1 1 1 1 1 1 1 1 1 1 1 1 1 1 1 1 1 1 1 1 1 1 1 1 1 1 1 1 1 1 1 1 1 1 1 1 1 1 1 1 1 1 1 1 1 1 1 1 1 1 1 1 1 1 1 1 1 1 1 1 1 1 1 1 1 1 1 1 1 1 1 1 1 1 1 1 1 1 1 1 1 1 1 1 1 1 1 1 1 1 1 1 1 1 1 1 1 1 1 1 1 1 1 1 1 1 1 1 1 1 1 1 1 1 1 1 1 1 1 1 1 1 1 1 1 1 1 1 1 1 1 1 1 1 1 1 1 1 1 1 1 1 1 1 1 1 1 1 1 1 1 1 1 1 1 1 1 1 1 1 1 1 1 1 1 1 1 1 1 1 1 1 1 1 1 1 1 1 1 1 1 1 1 1 1 1 1 1 1 1 1 1 1 1 1 1 1 1 1 1 1 1 1 1 1 1 1 1 1 1 1 1 1 1 1 1 1 1 1 1 1 1 1 1 1 1 1 1 1 1 1 1 1 1 1 1 1 1 1 1 1 1 1 1 1 1 1 1 1 1 1 1 1 1 1 1 1 1 1 1 1 1 1 1 1 1 1 1 1 1 1 1 1 1 1 1 1 1 1 1 1 1 1 1 1 1 1 1 1 1 1 1 1 1 1 1 1 1 1 1 1 1 1 1 1 1 1 1 1 1 1 1 1 1 1 1 1 1 1 1 1 1 1 1 1 1 1 1 1 1 1 1 1 1 1 1 1 1 1 1 1 1 1 1 1 1 1 1 1 1 1 1 1 1 1 1 1 1 1 1 1 1 1 1 1 1 1 1 1 1 1 1 1 1 1 1 1 1 1 1 1 1 1 1 1 1 1 1 1 1 1 1 1 1 1 1 1 1 1 1 1 1 1 1 1 1 1 1 1 1 1 1 1 1 1 1 1 1 1 1 1 1 1 1 1 1 1 1 1 1 1 1 1 1 1 1 1 1 1 1 1 1 1 1 1 1 1 1 1 1 1 1 1 1 1 1 1 1 1 1 1 1 1 1 1 1 1 1 1 1 1 1 1 1 1 1 1 1 1 1 1 1 1 1 1 1 1 1 1 1 1 1 1 1 1 1 1 1 1 1 1 1 1 1 1 1 1 1 1 1 1 1 1 1 1 1 1 1 1 1 1 1 1 1 1 1 1 1 1 1 1 1 1 1 1 1 1 1 1 1 1 1 1 1 1 1 1 1 1 1 1 1 1 1 1 1 1 1 1 1 1 1 1 1 1 1 1 1 1 1 1 1 1 1 1 1 1 1 1 1 1 1 1 1 1 1 1 1 1 1 1 1 1 1 1 1 1 1 1 1 1 1 1 1 1 1 1 1 1 1 1 1 1 1 1 1 1 1 1 1 1 1 1 1 1 1 1 1 1 1 1 1 1 1 1 1 1 1 1 1 1 1 1 1 1 1 1 1 1 1 1 1 1 1 1 1 1 1 1 1 1 1 1 1 1 1 1 1 1 1 1 1 1 1 1 1 1 1 1 1 1 1 1 1 1 1 1 1 1 1 1 1 1 1 1 1 1 1 1 1 1 1 1 1 1 1 1 1 1 1 1 1 1 1 1 1 1 1 1 1 1 1 1 1 1 1 1 1 1 1 1 1 1 1 1 1 1 1 1 1 1 1 1 1 1 1 1 1 1 1 1 1 1 1 1 1 1 1 1 1 1 1 1 1 1 1 1 1 1 1 1 1 1 1 1 1 1 1 1 1 1 1 1 1 1 1 1 1 1 1 1 1 1 1 1 1 1 1 1 1 1 1 1 1 1 1 1 1 1 1 1 1 1 1 1 1 1 1 1 1 1 1 1 1 1 1 1 1 1 1 1 1 1 1 1 1 1 1 1 1 1 1 1 1 1 1 1 1 1 1 1 1 1 1 1 1 1 1 1 1 1 1 1 1 1 1 1 1 1 1 1 1 1 1 1
				</DataArray>
				<DataArray Name="F2" type="Float32" format="ascii">
 0 0 0 0 0 0 0 0 0 0 0 0 0 0 0 0 0 0 0 0 0 0 0 0 0 0 0 0 0 0 0 0 0 0 0 0 0 0 0 0 0 0 0 0 0 0 0 0 0 0 0 0 0 0 0 0 0 0 0 0 0 0 0 0 0 0 0 0 0 0 0 0 0 0 0 0 0 0 0 0 0 0 0 0 0 0 0 0 0 0 0 0 0 0 0 0 0 0 0 0 0 0 0 0 0 0 0 0 0 0 0 0 0 0 0 0 0 0 0 0 0 0 0 0 0 0 0 0 0 0 0 0 0 0 0 0 0 0 0 0 0 0 0 0 0 0 0 0 0 0 0 0 0 0 0 0 0 0 0 0 0 0 0 0 0 0 0 0 0 0 0 0 0 0 0 0 0 0 0 0 0 0 0 0 0 0 0 0 0 0 0 0 0 0 0 0 0 0 0 0 0 0 0 0 0 0 0 0 0 0 0 0 0 0 0 0 0 0 0 0 0 0 0 0 0 0 0 0 0 0 0 0 0 0 0 0 0 0 0 0 0 0 0 0 0 0 0 0 0 0 0 0 0 0 0 0 0 0 0 0 0 0 0 0 0 0 0 0 0 0 0 0 0 0 0 0 0 0 0 0 0 0 0 0 0 0 0 0 0 0 0 0 0 0 0 0 0 0 0 0 0 0 0 0 0 0 0 0 0 0 0 0 0 0 0 0 0 0 0 0 0 0 0 0 0 0 0 0 0 0 0 0 0 0 0 0 0 0 0 0 0 0 0 0 0 0 0 0 0 0 0 0 0 0 0 0 0 0 0 0 0 0 0 0 0 0 0 0 0 0 0 0 0 0 0 0 0 0 0 0 0 0 0 0 0 0 0 0 0 0 0 0 0 0 0 0 0 0 0 0 0 0 0 0 0 0 0 0 0 0 0 0 0 0 0 0 0 0 0 0 0 0 0 0 0 0 0 0 0 0 0 0 0 0 0 0 0 0 0 0 0 0 0 0 0 0 0 0 0 0 0 0 0 0 0 0 0 0 0 0 0 0 0 0 0 0 0 0 0 0 0 0 0 0 0 0 0 0 0 0 0 0 0 0 0 0 0 0 0 0 0 0 0 0 0 0 0 0 0 0 0 0 0 0 0 0 0 0 0 0 0 0 0 0 0 0 0 0 0 0 0 0 0 0 0 0 0 0 0 0 0 0 0 0 0 0 0 0 0 0 0 0 0 0 0 0 0 0 0 0 0 0 0 0 0 0 0 0 0 0 0 0 0 0 0 0 0 0 0 0 0 0 0 0 0 0 0 0 0 0 0 0 0 0 0 0 0 0 0 0 0 0 0 0 0 0 0 0 0 0 0 0 0 0 0 0 0 0 0 0 0 0 0 0 0 0 0 0 0 0 0 0 0 0 0 0 0 0 0 0 0 0 0 0 0 0 0 0 0 0 0 0 0 0 0 0 0 0 0 0 0 0 0 0 0 0 0 0 0 0 0 0 0 0 0 0 0 0 0 0 0 0 0 0 0 0 0 0 0 0 0 0 0 0 0 0 0 0 0 0 0 0 0 0 0 0 0 0 0 0 0 0 0 0 0 0 0 0 0 0 0 0 0 0 0 0 0 0 0 0 0 0 0 0 0 0 0 0 0 0 0 0 0 0 0 0 0 0 0 0 0 0 0 0 0 0 0 0 0 0 0 0 0 0 0 0 0 0 0 0 0 0 0 0 0 0 0 0 0 0 0 0 0 0 0 0 0 0 0 0 0 0 0 0 0 0 0 0 0 0 0 0 0 0 0 0 0 0 0 0 0 0 0 0 0 0 0 0 0 0 0 0 0 0 0 0 0 0 0 0 0 0 0 0 0 0 0 0 0 0 0 0 0 0 0 0 0 0 0 0 0 0 0 0 0 0 0 0 0 0 0 0 0 0 0 0 0 0 0 0 0 0 0 0 0 0 0 0 0 0 0 0 0 0 0 0 0 0 0 0 0 0 0 0 0 0 0 0 0 0 0 0 0 0 0 0 0 0 0 0
				</DataArray>
				<DataArray Name="F3" type="Float32" format="ascii">