<?xml version="1.0"?>
<VTKFile type="PolyData">
	<PolyData>
		<Piece NumberOfPoints="961" NumberOfPolys="900">
			<Points>
				<DataArray type="Float32" NumberOfComponents="3" format="ascii">
 0 0 0 0.04 0 0 0.08 0 0 0.12 0 0 0.16 0 0 0.2 0 0 0.24 0 0 0.28 0 0 0.32 0 0 0.36 0 0 0.4 0 0 0.44 0 0 0.48 0 0 0.52 0 0 0.56 0 0 0.6 0 0 0.64 0 0 0.68 0 0 0.72 0 0 0.76 0 0 0.8 0 0 0.84 0 0 0.88 0 0 0.92 0 0 0.96 0 0 1 0 0 1.04 0 0 1.08 0 0 1.12 0 0 1.16 0 0 1.2 0 0 0 0.04 0 0.04 0.04 0 0.08 0.04 0 0.12 0.04 0 0.16 0.04 0 0.2 0.04 0 0.24 0.04 0 0.28 0.04 0 0.32 0.04 0 0.36 0.04 0 0.4 0.04 0 0.44 0.04 0 0.48 0.04 0 0.52 0.04 0 0.56 0.04 0 0.6 0.04 0 0.64 0.04 0 0.68 0.04 0 0.72 0.04 0 0.76 0.04 0 0.8 0.04 0 0.84 0.04 0 0.88 0.04 0 0.92 0.04 0 0.96 0.04 0 1 0.04 0 1.04 0.04 0 1.08 0.04 0 1.12 0.04 0 1.16 0.04 0 1.2 0.04 0 0 0.08 0 0.04 0.08 0 0.08 0.08 0 0.12 0.08 0 0.16 0.08 0 0.2 0.08 0 0.24 0.08 0 0.28 0.08 0 0.32 0.08 0 0.36 0.08 0 0.4 0.08 0 0.44 0.08 0 0.48 0.08 0 0.52 0.08 0 0.56 0.08 0 0.6 0.08 0 0.64 0.08 0 0.68 0.08 0 0.72 0.08 0 0.76 0.08 0 0.8 0.08 0 0.84 0.08 0 0.88 0.08 0 0.92 0.08 0 0.96 0.08 0 1 0.08 0 1.04 0.08 0 1.08 0.08 0 1.12 0.08 0 1.16 0.08 0 1.2 0.08 0 0 0.12 0 0.04 0.12 0 0.08 0.12 0 0.12 0.12 0 0.16 0.12 0 0.2 0.12 0 0.24 0.12 0 0.28 0.12 0 0.32 0.12 0 0.36 0.12 0 0.4 0.12 0 0.44 0.12 0 0.48 0.12 0 0.52 0.12 0 0.56 0.12 0 0.6 0.12 0 0.64 0.12 0 0.68 0.12 0 0.72 0.12 0 0.76 0.12 0 0.8 0.12 0 0.84 0.12 0 0.88 0.12 0 0.92 0.12 0 0.96 0.12 0 1 0.12 0 1.04 0.12 0 1.08 0.12 0 1.12 0.12 0 1.16 0.12 0 1.2 0.12 0 0 0.16 0 0.04 0.16 0 0.08 0.16 0 0.12 0.16 0 0.16 0.16 0 0.2 0.16 0 0.24 0.16 0 0.28 0.16 0 0.32 0.16 0 0.36 0.16 0 0.4 0.16 0 0.44 0.16 0 0.48 0.16 0 0.52 0.16 0 0.56 0.16 0 0.6 0.16 0 0.64 0.16 0 0.68 0.16 0 0.72 0.16 0 0.76 0.16 0 0.8 0.16 0 0.84 0.16 0 0.88 0.16 0 0.92 0.16 0 0.96 0.16 0 1 0.16 0 1.04 0.16 0 1.08 0.16 0 1.12 0.16 0 1.16 0.16 0 1.2 0.16 0 0 0.2 0 0.04 0.2 0 0.08 0.2 0 0.12 0.2 0 0.16 0.2 0 0.2 0.2 0 0.24 0.2 0 0.28 0.2 0 0.32 0.2 0 0.36 0.2 0 0.4 0.2 0 0.44 0.2 0 0.48 0.2 0 0.52 0.2 0 0.56 0.2 0 0.6 0.2 0 0.64 0.2 0 0.68 0.2 0 0.72 0.2 0 0.76 0.2 0 0.8 0.2 0 0.84 0.2 0 0.88 0.2 0 0.92 0.2 0 0.96 0.2 0 1 0.2 0 1.04 0.2 0 1.08 0.2 0 1.12 0.2 0 1.16 0.2 0 1.2 0.2 0 0 0.24 0 0.04 0.24 0 0.08 0.24 0 0.12 0.24 0 0.16 0.24 0 0.2 0.24 0 0.24 0.24 0 0.28 0.24 0 0.32 0.24 0 0.36 0.24 0 0.4 0.24 0 0.44 0.24 0 0.48 0.24 0 0.52 0.24 0 0.56 0.24 0 0.6 0.24 0 0.64 0.24 0 0.68 0.24 0 0.72 0.24 0 0.76 0.24 0 0.8 0.24 0 0.84 0.24 0 0.88 0.24 0 0.92 0.24 0 0.96 0.24 0 1 0.24 0 1.04 0.24 0 1.08 0.24 0 1.12 0.24 0 1.16 0.24 0 1.2 0.24 0 0 0.28 0 0.04 0.28 0 0.08 0.28 0 0.12 0.28 0 0.16 0.28 0 0.2 0.28 0 0.24 0.28 0 0.28 0.28 0 0.32 0.28 0 0.36 0.28 0 0.4 0.28 0 0.44 0.28 0 0.48 0.28 0 0.52 0.28 0 0.56 0.28 0 0.6 0.28 0 0.64 0.28 0 0.68 0.28 0 0.72 0.28 0 0.76 0.28 0 0.8 0.28 0 0.84 0.28 0 0.88 0.28 0 0.92 0.28 0 0.96 0.28 0 1 0.28 0 1.04 0.28 0 1.08 0.28 0 1.12 0.28 0 1.16 0.28 0 1.2 0.28 0 0 0.32 0 0.04 0.32 0 0.08 0.32 0 0.12 0.32 0 0.16 0.32 0 0.2 0.32 0 0.24 0.32 0 0.28 0.32 0 0.32 0.32 0 0.36 0.32 0 0.4 0.32 0 0.44 0.32 0 0.48 0.32 0 0.52 0.32 0 0.56 0.32 0 0.6 0.32 0 0.64 0.32 0 0.68 0.32 0 0.72 0.32 0 0.76 0.32 0 0.8 0.32 0 0.84 0.32 0 0.88 0.32 0 0.92 0.32 0 0.96 0.32 0 1 0.32 0 1.04 0.32 0 1.08 0.32 0 1.12 0.32 0 1.16 0.32 0 1.2 0.32 0 0 0.36 0 0.04 0.36 0 0.08 0.36 0 0.12 0.36 0 0.16 0.36 0 0.2 0.36 0 0.24 0.36 0 0.28 0.36 0 0.32 0.36 0 0.36 0.36 0 0.4 0.36 0 0.44 0.36 0 0.48 0.36 0 0.52 0.36 0 0.56 0.36 0 0.6 0.36 0 0.64 0.36 0 0.68 0.36 0 0.72 0.36 0 0.76 0.36 0 0.8 0.36 0 0.84 0.36 0 0.88 0.36 0 0.92 0.36 0 0.96 0.36 0 1 0.36 0 1.04 0.36 0 1.08 0.36 0 1.12 0.36 0 1.16 0.36 0 1.2 0.36 0 0 0.4 0 0.04 0.4 0 0.08 0.4 0 0.12 0.4 0 0.16 0.4 0 0.2 0.4 0 0.24 0.4 0 0.28 0.4 0 0.32 0.4 0 0.36 0.4 0 0.4 0.4 0 0.44 0.4 0 0.48 0.4 0 0.52 0.4 0 0.56 0.4 0 0.6 0.4 0 0.64 0.4 0 0.68 0.4 0 0.72 0.4 0 0.76 0.4 0 0.8 0.4 0 0.84 0.4 0 0.88 0.4 0 0.92 0.4 0 0.96 0.4 0 1 0.4 0 1.04 0.4 0 1.08 0.4 0 1.12 0.4 0 1.16 0.4 0 1.2 0.4 0 0 0.44 0 0.04 0.44 0 0.08 0.44 0 0.12 0.44 0 0.16 0.44 0 0.2 0.44 0 0.24 0.44 0 0.28 0.44 0 0.32 0.44 0 0.36 0.44 0 0.4 0.44 0 0.44 0.44 0 0.48 0.44 0 0.52 0.44 0 0.56 0.44 0 0.6 0.44 0 0.64 0.44 0 0.68 0.44 0 0.72 0.44 0 0.76 0.44 0 0.8 0.44 0 0.84 0.44 0 0.88 0.44 0 0.92 0.44 0 0.96 0.44 0 1 0.44 0 1.04 0.44 0 1.08 0.44 0 1.12 0.44 0 1.16 0.44 0 1.2 0.44 0 0 0.48 0 0.04 0.48 0 0.08 0.48 0 0.12 0.48 0 0.16 0.48 0 0.2 0.48 0 0.24 0.48 0 0.28 0.48 0 0.32 0.48 0 0.36 0.48 0 0.4 0.48 0 0.44 0.48 0 0.48 0.48 0 0.52 0.48 0 0.56 0.48 0 0.6 0.48 0 0.64 0.48 0 0.68 0.48 0 0.72 0.48 0 0.76 0.48 0 0.8 0.48 0 0.84 0.48 0 0.88 0.48 0 0.92 0.48 0 0.96 0.48 0 1 0.48 0 1.04 0.48 0 1.08 0.48 0 1.12 0.48 0 1.16 0.48 0 1.2 0.48 0 0 0.52 0 0.04 0.52 0 0.08 0.52 0 0.12 0.52 0 0.16 0.52 0 0.2 0.52 0 0.24 0.52 0 0.28 0.52 0 0.32 0.52 0 0.36 0.52 0 0.4 0.52 0 0.44 0.52 0 0.48 0.52 0 0.52 0.52 0 0.56 0.52 0 0.6 0.52 0 0.64 0.52 0 0.68 0.52 0 0.72 0.52 0 0.76 0.52 0 0.8 0.52 0 0.84 0.52 0 0.88 0.52 0 0.92 0.52 0 0.96 0.52 0 1 0.52 0 1.04 0.52 0 1.08 0.52 0 1.12 0.52 0 1.16 0.52 0 1.2 0.52 0 0 0.56 0 0.04 0.56 0 0.08 0.56 0 0.12 0.56 0 0.16 0.56 0 0.2 0.56 0 0.24 0.56 0 0.28 0.56 0 0.32 0.56 0 0.36 0.56 0 0.4 0.56 0 0.44 0.56 0 0.48 0.56 0 0.52 0.56 0 0.56 0.56 0 0.6 0.56 0 0.64 0.56 0 0.68 0.56 0 0.72 0.56 0 0.76 0.56 0 0.8 0.56 0 0.84 0.56 0 0.88 0.56 0 0.92 0.56 0 0.96 0.56 0 1 0.56 0 1.04 0.56 0 1.08 0.56 0 1.12 0.56 0 1.16 0.56 0 1.2 0.56 0 0 0.6 0 0.04 0.6 0 0.08 0.6 0 0.12 0.6 0 0.16 0.6 0 0.2 0.6 0 0.24 0.6 0 0.28 0.6 0 0.32 0.6 0 0.36 0.6 0 0.4 0.6 0 0.44 0.6 0 0.48 0.6 0 0.52 0.6 0 0.56 0.6 0 0.6 0.6 0 0.64 0.6 0 0.68 0.6 0 0.72 0.6 0 0.76 0.6 0 0.8 0.6 0 0.84 0.6 0 0.88 0.6 0 0.92 0.6 0 0.96 0.6 0 1 0.6 0 1.04 0.6 0 1.08 0.6 0 1.12 0.6 0 1.16 0.6 0 1.2 0.6 0 0 0.64 0 0.04 0.64 0 0.08 0.64 0 0.12 0.64 0 0.16 0.64 0 0.2 0.64 0 0.24 0.64 0 0.28 0.64 0 0.32 0.64 0 0.36 0.64 0 0.4 0.64 0 0.44 0.64 0 0.48 0.64 0 0.52 0.64 0 0.56 0.64 0 0.6 0.64 0 0.64 0.64 0 0.68 0.64 0 0.72 0.64 0 0.76 0.64 0 0.8 0.64 0 0.84 0.64 0 0.88 0.64 0 0.92 0.64 0 0.96 0.64 0 1 0.64 0 1.04 0.64 0 1.08 0.64 0 1.12 0.64 0 1.16 0.64 0 1.2 0.64 0 0 0.68 0 0.04 0.68 0 0.08 0.68 0 0.12 0.68 0 0.16 0.68 0 0.2 0.68 0 0.24 0.68 0 0.28 0.68 0 0.32 0.68 0 0.36 0.68 0 0.4 0.68 0 0.44 0.68 0 0.48 0.68 0 0.52 0.68 0 0.56 0.68 0 0.6 0.68 0 0.64 0.68 0 0.68 0.68 0 0.72 0.68 0 0.76 0.68 0 0.8 0.68 0 0.84 0.68 0 0.88 0.68 0 0.92 0.68 0 0.96 0.68 0 1 0.68 0 1.04 0.68 0 1.08 0.68 0 1.12 0.68 0 1.16 0.68 0 1.2 0.68 0 0 0.72 0 0.04 0.72 0 0.08 0.72 0 0.12 0.72 0 0.16 0.72 0 0.2 0.72 0 0.24 0.72 0 0.28 0.72 0 0.32 0.72 0 0.36 0.72 0 0.4 0.72 0 0.44 0.72 0 0.48 0.72 0 0.52 0.72 0 0.56 0.72 0 0.6 0.72 0 0.64 0.72 0 0.68 0.72 0 0.72 0.72 0 0.76 0.72 0 0.8 0.72 0 0.84 0.72 0 0.88 0.72 0 0.92 0.72 0 0.96 0.72 0 1 0.72 0 1.04 0.72 0 1.08 0.72 0 1.12 0.72 0 1.16 0.72 0 1.2 0.72 0 0 0.76 0 0.04 0.76 0 0.08 0.76 0 0.12 0.76 0 0.16 0.76 0 0.2 0.76 0 0.24 0.76 0 0.28 0.76 0 0.32 0.76 0 0.36 0.76 0 0.4 0.76 0 0.44 0.76 0 0.48 0.76 0 0.52 0.76 0 0.56 0.76 0 0.6 0.76 0 0.64 0.76 0 0.68 0.76 0 0.72 0.76 0 0.76 0.76 0 0.8 0.76 0 0.84 0.76 0 0.88 0.76 0 0.92 0.76 0 0.96 0.76 0 1 0.76 0 1.04 0.76 0 1.08 0.76 0 1.12 0.76 0 1.16 0.76 0 1.2 0.76 0 0 0.8 0 0.04 0.8 0 0.08 0.8 0 0.12 0.8 0 0.16 0.8 0 0.2 0.8 0 0.24 0.8 0 0.28 0.8 0 0.32 0.8 0 0.36 0.8 0 0.4 0.8 0 0.44 0.8 0 0.48 0.8 0 0.52 0.8 0 0.56 0.8 0 0.6 0.8 0 0.64 0.8 0 0.68 0.8 0 0.72 0.8 0 0.76 0.8 0 0.8 0.8 0 0.84 0.8 0 0.88 0.8 0 0.92 0.8 0 0.96 0.8 0 1 0.8 0 1.04 0.8 0 1.08 0.8 0 1.12 0.8 0 1.16 0.8 0 1.2 0.8 0 0 0.84 0 0.04 0.84 0 0.08 0.84 0 0.12 0.84 0 0.16 0.84 0 0.2 0.84 0 0.24 0.84 0 0.28 0.84 0 0.32 0.84 0 0.36 0.84 0 0.4 0.84 0 0.44 0.84 0 0.48 0.84 0 0.52 0.84 0 0.56 0.84 0 0.6 0.84 0 0.64 0.84 0 0.68 0.84 0 0.72 0.84 0 0.76 0.84 0 0.8 0.84 0 0.84 0.84 0 0.88 0.84 0 0.92 0.84 0 0.96 0.84 0 1 0.84 0 1.04 0.84 0 1.08 0.84 0 1.12 0.84 0 1.16 0.84 0 1.2 0.84 0 0 0.88 0 0.04 0.88 0 0.08 0.88 0 0.12 0.88 0 0.16 0.88 0 0.2 0.88 0 0.24 0.88 0 0.28 0.88 0 0.32 0.88 0 0.36 0.88 0 0.4 0.88 0 0.44 0.88 0 0.48 0.88 0 0.52 0.88 0 0.56 0.88 0 0.6 0.88 0 0.64 0.88 0 0.68 0.88 0 0.72 0.88 0 0.76 0.88 0 0.8 0.88 0 0.84 0.88 0 0.88 0.88 0 0.92 0.88 0 0.96 0.88 0 1 0.88 0 1.04 0.88 0 1.08 0.88 0 1.12 0.88 0 1.16 0.88 0 1.2 0.88 0 0 0.92 0 0.04 0.92 0 0.08 0.92 0 0.12 0.92 0 0.16 0.92 0 0.2 0.92 0 0.24 0.92 0 0.28 0.92 0 0.32 0.92 0 0.36 0.92 0 0.4 0.92 0 0.44 0.92 0 0.48 0.92 0 0.52 0.92 0 0.56 0.92 0 0.6 0.92 0 0.64 0.92 0 0.68 0.92 0 0.72 0.92 0 0.76 0.92 0 0.8 0.92 0 0.84 0.92 0 0.88 0.92 0 0.92 0.92 0 0.96 0.92 0 1 0.92 0 1.04 0.92 0 1.08 0.92 0 1.12 0.92 0 1.16 0.92 0 1.2 0.92 0 0 0.96 0 0.04 0.96 0 0.08 0.96 0 0.12 0.96 0 0.16 0.96 0 0.2 0.96 0 0.24 0.96 0 0.28 0.96 0 0.32 0.96 0 0.36 0.96 0 0.4 0.96 0 0.44 0.96 0 0.48 0.96 0 0.52 0.96 0 0.56 0.96 0 0.6 0.96 0 0.64 0.96 0 0.68 0.96 0 0.72 0.96 0 0.76 0.96 0 0.8 0.96 0 0.84 0.96 0 0.88 0.96 0 0.92 0.96 0 0.96 0.96 0 1 0.96 0 1.04 0.96 0 1.08 0.96 0 1.12 0.96 0 1.16 0.96 0 1.2 0.96 0 0 1 0 0.04 1 0 0.08 1 0 0.12 1 0 0.16 1 0 0.2 1 0 0.24 1 0 0.28 1 0 0.32 1 0 0.36 1 0 0.4 1 0 0.44 1 0 0.48 1 0 0.52 1 0 0.56 1 0 0.6 1 0 0.64 1 0 0.68 1 0 0.72 1 0 0.76 1 0 0.8 1 0 0.84 1 0 0.88 1 0 0.92 1 0 0.96 1 0 1 1 0 1.04 1 0 1.08 1 0 1.12 1 0 1.16 1 0 1.2 1 0 0 1.04 0 0.04 1.04 0 0.08 1.04 0 0.12 1.04 0 0.16 1.04 0 0.2 1.04 0 0.24 1.04 0 0.28 1.04 0 0.32 1.04 0 0.36 1.04 0 0.4 1.04 0 0.44 1.04 0 0.48 1.04 0 0.52 1.04 0 0.56 1.04 0 0.6 1.04 0 0.64 1.04 0 0.68 1.04 0 0.72 1.04 0 0.76 1.04 0 0.8 1.04 0 0.84 1.04 0 0.88 1.04 0 0.92 1.04 0 0.96 1.04 0 1 1.04 0 1.04 1.04 0 1.08 1.04 0 1.12 1.04 0 1.16 1.04 0 1.2 1.04 0 0 1.08 0 0.04 1.08 0 0.08 1.08 0 0.12 1.08 0 0.16 1.08 0 0.2 1.08 0 0.24 1.08 0 0.28 1.08 0 0.32 1.08 0 0.36 1.08 0 0.4 1.08 0 0.44 1.08 0 0.48 1.08 0 0.52 1.08 0 0.56 1.08 0 0.6 1.08 0 0.64 1.08 0 0.68 1.08 0 0.72 1.08 0 0.76 1.08 0 0.8 1.08 0 0.84 1.08 0 0.88 1.08 0 0.92 1.08 0 0.96 1.08 0 1 1.08 0 1.04 1.08 0 1.08 1.08 0 1.12 1.08 0 1.16 1.08 0 1.2 1.08 0 0 1.12 0 
[...]
			<CellData Scalars="Density">
				<DataArray Name="Density" type="Float32" format="ascii">
 0.0061857 0.00635967 0.00683557 0.00774747 0.00919359 0.0113558 0.0145473 0.0191684 0.0256745 0.0346118 0.0466792 0.0628724 0.0849853 0.116587 0.165213 0.24446 0.369771 0.549713 0.777718 0.978101 0.974312 0.769873 0.741396 0.772137 0.834012 0.896112 0.94556 0.983401 1.01239 1.02774 0.00635865 0.00645023 0.00678481 0.00748296 0.0085485 0.0101879 0.0127667 0.016712 0.022514 0.030882 0.0427116 0.0590311 0.0813235 0.112263 0.158017 0.230821 0.351265 0.541433 0.800924 1.03315 1.03553 0.823778 0.79019 0.813168 0.869566 0.926774 0.972619 1.00833 1.03693 1.04161 0.00683217 0.00678356 0.00692735 0.00744249 0.00833185 0.00968887 0.0119042 0.0155119 0.0212617 0.0299928 0.042834 0.0611305 0.0856609 0.117147 0.158746 0.220948 0.321095 0.488142 0.728991 0.971292 1.00187 0.802842 0.776189 0.810543 0.873342 0.937649 0.990197 1.03015 1.06128 1.0741 0.00773883 0.00747911 0.00744138 0.00795062 0.00885242 0.0103279 0.0130237 0.0177154 0.0258239 0.0385759 0.0574858 0.0836204 0.116988 0.157678 0.207225 0.272676 0.370553 0.527093 0.757382 0.984736 1.01136 0.822156 0.798568 0.833336 0.895137 0.960476 1.01343 1.05427 1.08621 1.09688 0.00917593 0.00853901 0.00832781 0.00884872 0.00975239 0.0111079 0.0141539 0.020445 0.0312089 0.0474681 0.0698389 0.0991632 0.136732 0.184969 0.245991 0.32199 0.423461 0.568236 0.773153 0.988019 1.01793 0.8417 0.818968 0.849497 0.905209 0.969534 1.02175 1.06278 1.09528 1.10595 0.0113256 0.0101699 0.00967907 0.0103147 0.0110931 0.0116353 0.0137775 0.0196755 0.0308612 0.0479172 0.0699286 0.0983681 0.136183 0.18758 0.256512 0.344286 0.457662 0.607449 0.801872 0.996689 1.02155 0.863633 0.836118 0.86272 0.91112 0.974268 1.02521 1.06485 1.09799 1.1122 0.0145015 0.0127386 0.0118858 0.0129986 0.0141158 0.0137577 0.0132864 0.0164202 0.0241412 0.0369761 0.0546216 0.0775088 0.111797 0.165957 0.246003 0.347439 0.471338 0.625106 0.806356 0.984564 1.03423 0.907362 0.859279 0.872632 0.906954 0.967548 1.01829 1.05757 1.09013 1.10489 0.0191053 0.0166694 0.0154799 0.0176724 0.0203835 0.0196396 0.0164333 0.0153088 0.0184509 0.0262509 0.0390124 0.0571341 0.0860425 0.134195 0.209717 0.317442 0.455485 0.61592 0.795703 0.965615 1.04655 0.956474 0.884745 0.882448 0.903694 0.963306 1.01703 1.05973 1.09403 1.11002 0.0255973 0.0224557 0.0212091 0.0257455 0.0311142 0.0308046 0.0241692 0.0184457 0.0178765 0.0213179 0.0294075 0.0434102 0.0668453 0.107701 0.175277 0.276635 0.417464 0.585455 0.762736 0.930034 1.03982 1.01501 0.927813 0.907758 0.91991 0.974867 1.03328 1.08097 1.11816 1.13297 0.0345273 0.0308037 0.0299126 0.0384482 0.0473429 0.0478621 0.0370533 0.0262372 0.0212857 0.021475 0.0259798 0.0360825 0.0542606 0.0868445 0.142816 0.23044 0.356931 0.523491 0.701728 0.878106 1.01473 1.07181 0.996507 0.952696 0.958883 1.00218 1.06548 1.11871 1.15942 1.17512 0.0465953 0.0426102 0.0427141 0.0573023 0.0697135 0.0699151 0.0547548 0.0389959 0.0293551 0.0259444 0.0269439 0.0338935 0.0481814 0.073403 0.117539 0.189927 0.297721 0.444884 0.62476 0.807607 0.974683 1.08774 1.0875 1.03154 1.02523 1.0518 1.11283 1.17141 1.21536 1.2322 0.0627956 0.0589162 0.060964 0.0833898 0.0990481 0.0984067 0.0775949 0.05708 0.0433453 0.0360506 0.0338931 0.0367366 0.047648 0.0675754 0.101091 0.158009 0.246731 0.371163 0.531955 0.717099 0.907542 1.07158 1.16175 1.13216 1.10634 1.12116 1.16417 1.22253 1.2698 1.28787 0.0849236 0.0812153 0.0854706 0.116736 0.136632 0.136194 0.111752 0.0859515 0.0668207 0.0543162 0.048274 0.0477314 0.0515446 0.0667826 0.0929376 0.135609 0.20554 0.308761 0.445702 0.614365 0.812454 1.01476 1.17542 1.24012 1.21633 1.20977 1.22079 1.26986 1.31834 1.33713 0.116561 0.112176 0.116952 0.15739 0.184853 0.187573 0.165889 0.134223 0.107869 0.087079 0.0736112 0.0677154 0.066875 0.0713934 0.0914048 0.124336 0.176783 0.259195 0.374919 0.521888 0.704402 0.923434 1.14673 1.30955 1.34047 1.3145 1.29766 1.31923 1.36255 1.38523 0.165258 0.157971 0.15858 0.206911 0.245823 0.256472 0.245953 0.209873 0.175694 0.143232 0.11787 0.101315 0.0931029 0.0915295 0.0961864 0.121785 0.161974 0.224369 0.319096 0.446766 0.609797 0.81852 1.06961 1.31333 1.46291 1.45511 1.40641 1.38886 1.41379 1.43832 0.244636 0.230854 0.220882 0.272374 0.32177 0.34425 0.34744 0.317554 0.277188 0.230988 0.190371 0.158349 0.13587 0.124502 0.12187 0.126056 0.158332 0.206457 0.279447 0.387055 0.533612 0.723753 0.975874 1.27083 1.53112 1.61576 1.55315 1.49041 1.47779 1.49627 0.370102 0.351402 0.321168 0.370249 0.423232 0.457581 0.471226 0.455589 0.417896 0.357694 0.298363 0.247333 0.206052 0.177108 0.162098 0.158355 0.162546 0.201903 0.258818 0.344379 0.471417 0.645519 0.878752 1.19613 1.54769 1.77775 1.74766 1.63378 1.57666 1.56903 0.550146 0.541687 0.488304 0.526966 0.567939 0.607349 0.624934 0.615998 0.585633 0.524126 0.445604 0.371972 0.309578 0.259785 0.224604 0.206441 0.201809 0.206748 0.25365 0.322263 0.42573 0.578379 0.79189 1.10375 1.50034 1.87509 1.99292 1.84457 1.72223 1.66525 0.7781 0.801278 0.729125 0.757462 0.772871 0.801967 0.806282 0.795744 0.762868 0.702199 0.625232 0.532601 0.446594 0.375749 0.319608 0.27959 0.258759 0.25353 0.261475 0.31683 0.40055 0.527297 0.717519 1.00312 1.41944 1.894 2.22657 2.1348 1.94192 1.81127 0.978151 1.03319 0.971199 0.9847 0.987754 0.996786 0.984459 0.965673 0.930173 0.878511 0.808045 0.717711 0.615259 0.522899 0.447639 0.387585 0.344607 0.322286 0.316777 0.33091 0.394619 0.500601 0.661081 0.915423 1.31239 1.85516 2.39139 2.51931 2.27018 2.0471 0.973908 1.03511 1.0016 1.01111 1.01765 1.02132 1.03383 1.04633 1.03972 1.01489 0.974936 0.907977 0.813044 0.705168 0.610649 0.534412 0.472041 0.426083 0.400685 0.394452 0.415661 0.494696 0.632321 0.843225 1.19546 1.74964 2.41928 2.8869 2.75091 2.4484 0.769595 0.823548 0.802663 0.82194 0.841482 0.863321 0.907005 0.95597 1.01435 1.07147 1.08775 1.07173 1.01521 0.923994 0.819236 0.724602 0.64628 0.578852 0.527574 0.500757 0.493748 0.525709 0.626882 0.80978 1.10263 1.59994 2.34177 3.12609 3.30669 3.07338 0.741383 0.790156 0.776174 0.79853 0.81891 0.836001 0.859125 0.884493 0.927506 0.996029 1.08682 1.16134 1.17528 1.14681 1.07003 0.976396 0.879396 0.792344 0.717784 0.661617 0.632934 0.625561 0.676638 0.8114 1.06081 1.48227 2.20448 3.2008 3.9373 3.9932 0.772171 0.813197 0.810577 0.833346 0.849518 0.862701 0.872657 0.882377 0.90766 0.952445 1.03116 1.13159 1.23926 1.30929 1.31328 1.27112 1.19657 1.10385 1.00396 0.915601 0.843711 0.811513 0.809407 0.88835 1.08408 1.4409 2.09856 3.20172 4.55668 5.26951 0.834077 0.86963 0.873414 0.895195 0.905303 0.911211 0.907054 0.903741 0.919929 0.95865 1.02498 1.10586 1.21568 1.34018 1.4626 1.53128 1.54783 1.5005 1.41956 1.31357 1.19581 1.10233 1.06387 1.08175 1.21006 1.52184 2.09837 3.20646 5.05847 6.86368 0.896192 0.92686 0.937731 0.960572 0.969631 0.974388 0.967663 0.963381 0.974903 1.00207 1.05162 1.12069 1.20952 1.31423 1.45487 1.61543 1.77747 1.87476 1.89347 1.85376 1.75052 1.60032 1.48135 1.44628 1.51587 1.76804 2.33878 3.41946 5.46456 8.61055 0.94566 0.972718 0.990301 1.01354 1.0219 1.02535 1.01843 1.01714 1.03333 1.06543 1.11269 1.16391 1.22061 1.29747 1.40637 1.55293 1.74784 1.99294 2.2265 2.39106 2.41755 2.34186 2.20194 2.09347 2.10248 2.32735 2.88848 4.0181 5.98263 9.96228 0.983527 1.00843 1.03028 1.0544 1.06295 1.06502 1.05772 1.05985 1.08103 1.11865 1.17127 1.22235 1.26973 1.31924 1.3888 1.49039 1.63386 1.84472 2.13538 2.51983 2.88763 3.12648 3.20376 3.19475 3.20053 3.42556 4.00346 5.10663 7.20044 10.9606 1.01254 1.03706 1.06141 1.08635 1.09544 1.09817 1.0903 1.09417 1.11824 1.15939 1.21523 1.26966 1.31822 1.36258 1.41382 1.47791 1.57676 1.72241 1.9422 2.27052 2.75171 3.30788 3.93996 4.56009 5.05311 5.46165 5.97055 7.22699 9.84349 13.8286 1.02789 1.04174 1.07426 1.09703 1.10611 1.11239 1.10505 1.11018 1.13306 1.17508 1.23209 1.28775 1.33706 1.38523 1.43835 1.49634 1.56913 1.66532 1.81128 2.04721 2.4484 3.07327 3.99567 5.2735 6.86564 8.62157 9.95091 10.9453 13.8548 17.7416
				</DataArray>
				<DataArray Name="Energy" type="Float32" format="ascii">
 981.779 954.939 888.477 783.759 660.582 534.703 417.362 316.712 236.427 175.312 129.907 96.3345 71.1237 51.6654 36.2494 24.3558 15.9274 10.4729 7.01538 4.8599 3.3698 2.31562 1.94623 1.7522 1.66784 1.60972 1.56483 1.53391 1.51736 1.50917 955.09 941.511 895.028 811.563 710.322 596.003 475.584 363.238 269.588 196.524 142.021 102.647 74.364 53.7017 37.9811 25.7835 16.7152 10.6589 6.88832 4.64328 3.1821 2.19197 1.85748 1.69504 1.62263 1.57586 1.53963 1.51385 1.50091 1.48568 888.917 895.192 876.629 815.877 728.81 626.609 509.987 391.203 285.461 202.329 141.613 99.1142 70.5618 51.4287 37.7345 26.9404 18.2455 11.7116 7.44872 4.94401 3.37119 2.30982 1.93184 1.7355 1.64644 1.58656 1.54133 1.50992 1.49265 1.48249 784.637 811.979 815.995 763.773 685.798 587.781 466.001 342.511 234.997 157.254 105.489 72.4786 51.7147 38.2008 28.8972 21.7852 15.8366 10.9199 7.28827 4.92654 3.37791 2.32659 1.9373 1.73769 1.64431 1.58586 1.54201 1.51168 1.49433 1.48141 661.846 711.108 729.151 686.083 622.505 546.412 428.718 296.69 194.321 127.692 86.6741 61.0558 44.1728 32.5574 24.3271 18.4062 13.804 10.0319 7.01925 4.88045 3.3934 2.36894 1.96841 1.76903 1.66942 1.61305 1.57001 1.5401 1.52273 1.50882 536.122 597.052 627.246 588.52 547.137 521.408 440.169 308.132 196.292 126.329 86.4105 61.3935 44.2813 32.0352 23.3468 17.2446 12.8129 9.50566 6.92225 4.91585 3.46307 2.45419 2.02821 1.81747 1.70875 1.65332 1.61004 1.57824 1.56002 1.54533 418.671 476.63 510.77 466.898 429.856 440.794 456.229 368.847 250.689 163.422 110.479 77.7021 53.8161 36.1435 24.3297 17.0973 12.4321 9.19615 6.85612 5.01312 3.58872 2.59496 2.11553 1.8877 1.76709 1.71064 1.66618 1.63225 1.61154 1.59679 317.753 364.16 392.006 343.346 297.597 308.669 368.521 395.399 327.607 229.942 154.443 105.276 69.7849 44.6476 28.43 18.6889 12.9461 9.39755 7.00203 5.22602 3.79951 2.8051 2.23921 1.97157 1.83068 1.75953 1.70788 1.66856 1.64391 1.62862 237.136 270.284 286.166 235.706 194.913 196.666 250.387 327.699 337.498 282.867 204.641 138.432 89.6994 55.5641 34.031 21.4063 14.091 9.85323 7.28741 5.5091 4.09552 3.06797 2.39508 2.04964 1.87824 1.77592 1.71591 1.67092 1.64432 1.63022 175.737 197.019 202.866 157.774 128.023 126.476 163.078 230.066 283.314 280.205 231.454 166.274 110.413 68.7705 41.6643 25.6775 16.4218 11.0251 7.95657 5.95215 4.51628 3.38021 2.59516 2.1377 1.90711 1.76703 1.69574 1.64498 1.61682 1.60474 130.137 142.354 142.005 105.826 86.8356 86.4326 110.214 154.505 205.018 231.779 222.678 176.849 124.099 81.272 50.5274 31.0512 19.6151 12.9152 8.94225 6.57219 4.96716 3.75961 2.83983 2.25174 1.92067 1.74897 1.65202 1.59755 1.5683 1.55742 96.4487 102.843 99.3809 72.6743 61.1194 61.3697 77.6197 105.375 138.639 166.43 176.854 162.831 125.299 88.0364 58.6306 37.2905 23.64 15.4653 10.5235 7.50915 5.56417 4.20398 3.15141 2.41051 1.96632 1.7405 1.61329 1.55323 1.52252 1.51047 71.1724 74.4595 70.7162 51.8237 44.2049 44.2756 53.838 69.8619 89.7352 110.301 123.871 125.083 115.518 88.8627 63.5361 43.2868 28.3111 18.5897 12.6024 8.85766 6.40139 4.74039 3.54158 2.63447 2.06701 1.74742 1.59884 1.51684 1.4863 1.47249 51.6742 53.7397 51.5114 38.2686 32.5767 32.0361 36.1577 44.6395 55.4787 68.5878 81.0418 87.8616 88.7417 82.8262 64.3613 46.9976 32.785 22.0971 15.0117 10.5243 7.53305 5.45238 4.00782 2.95305 2.2148 1.79365 1.60129 1.49436 1.45826 1.44465 36.2357 37.9896 37.7708 28.9399 24.343 23.3503 24.3349 28.4083 33.9502 41.5436 50.3857 58.4993 63.4257 64.273 60.8825 47.764 35.6237 25.4639 17.6618 12.3724 8.83499 6.35517 4.58537 3.33782 2.44038 1.89184 1.61872 1.49347 1.43826 1.42354 24.3365 25.7787 26.9479 21.8093 18.4187 17.2457 17.0971 18.6813 21.3626 25.615 30.9773 37.2099 43.2015 46.9367 47.73 45.9048 36.274 27.5769 20.1522 14.3474 10.232 7.36921 5.27957 3.78745 2.74035 2.04131 1.6766 1.50741 1.42982 1.40885 15.9111 16.7079 18.2396 15.8495 13.8108 12.8143 12.434 12.9423 14.0755 16.3869 19.5707 23.5822 28.24 32.7237 35.5976 36.2683 35.1545 28.0886 21.7161 16.1931 11.7157 8.44637 6.07877 4.32313 3.10123 2.26334 1.77036 1.54102 1.43547 1.40012 10.4632 10.6536 11.7054 10.9243 10.0342 9.50681 9.1965 9.39682 9.84936 11.0124 12.8931 15.4302 18.5407 22.0464 25.4373 27.5799 28.1018 27.3676 22.1938 17.3766 13.129 9.60949 6.95776 4.95933 3.53002 2.54107 1.9166 1.6062 1.45671 1.3989 7.01032 6.88533 7.44496 7.28879 7.01877 6.92202 6.85535 7.00149 7.28495 7.9509 8.9345 10.5094 12.577 14.9778 17.6337 20.1429 21.7225 22.2048 21.5959 17.8479 14.0954 10.7759 7.94564 5.71558 4.06254 2.90171 2.1268 1.70881 1.50308 1.41283 4.85716 4.64148 4.9421 4.92597 4.87963 4.91477 5.01163 5.22471 5.50665 5.94854 6.56745 7.50152 8.84398 10.5027 12.3481 14.3289 16.1842 17.3781 17.8528 17.2896 14.5796 11.6148 8.94694 6.58604 4.70692 3.34485 2.40997 1.85693 1.5827 1.44933 3.36831 3.18107 3.37011 3.37725 3.39286 3.46203 3.58743 3.79816 4.09315 4.51341 4.96385 5.55977 6.39531 7.52362 8.8217 10.2166 11.7017 13.1202 14.1022 14.5803 14.1066 12.1206 9.69982 7.48976 5.4839 3.89791 2.76753 2.0543 1.71114 1.525 2.31525 2.19174 2.30956 2.32639 2.36871 2.45358 2.59395 2.80393 3.06646 3.37814 3.75726 4.20141 4.7367 5.44773 6.34838 7.3605 8.43672 9.60052 10.7678 11.6321 12.1213 11.7233 10.2396 8.222 6.31085 4.58815 3.25888 2.34541 1.89562 1.63701 1.94633 1.85762 1.93193 1.93737 1.9684 2.02815 2.11526 2.23865 2.3943 2.59404 2.83857 3.14972 3.53976 4.00563 4.58211 5.27552 6.07431 6.95549 7.94099 8.93306 9.72412 10.2389 9.8864 8.73563 7.03613 5.35943 3.89513 2.76326 2.12274 1.8024 1.75239 1.6952 1.73562 1.73779 1.76902 1.81739 1.88745 1.97133 2.04947 2.13713 2.25112 2.41017 2.6338 2.95179 3.33668 3.7861 4.32119 4.95824 5.71455 6.58213 7.47991 8.24408 8.73182 8.45524 7.4979 6.06512 4.61647 3.37763 2.45454 2.01588 1.66808 1.62285 1.64661 1.64445 1.6695 1.70876 1.76701 1.83055 1.87812 1.90716 1.9209 1.96625 2.06695 2.2146 2.4397 2.73966 3.10038 3.52858 4.06129 4.70551 5.48252 6.30718 7.05548 7.48205 7.29999 6.48618 5.29157 4.07408 2.97238 2.24737 1.60995 1.57608 1.58674 1.58599 1.61311 1.65331 1.71058 1.75948 1.77595 1.76716 1.7492 1.74088 1.74779 1.79354 1.89179 2.04127 2.26306 2.54117 2.90114 3.34363 3.89568 4.58945 5.35657 6.07901 6.45845 6.34312 5.67394 4.61632 3.51365 2.47916 1.56507 1.53985 1.54151 1.54213 1.57005 1.61003 1.66615 1.70785 1.71598 1.69596 1.65241 1.61369 1.59918 1.60142 1.61883 1.67658 1.77041 1.91659 2.12656 2.40989 2.76656 3.25874 3.89535 4.61517 5.29834 5.64392 5.52654 4.82834 3.86942 2.66114 1.53416 1.51407 1.5101 1.5118 1.54014 1.57823 1.63223 1.66854 1.67098 1.64521 1.59791 1.55367 1.51723 1.49452 1.49353 1.50745 1.54092 1.60613 1.70883 1.85712 2.05494 2.34557 2.76666 3.37747 4.07166 4.61965 4.80142 4.50536 3.72394 2.74018 1.5176 1.50112 1.49283 1.49445 1.52279 1.56003 1.61153 1.64391 1.64439 1.61704 1.56865 1.52293 1.48667 1.45847 1.43839 1.42983 1.4354 1.45666 1.50304 1.58274 1.71139 1.89595 2.12324 2.45728 2.97036 3.51379 3.87125 3.7165 3.04869 2.46292 1.50941 1.4859 1.48268 1.48154 1.50887 1.54536 1.59678 1.62861 1.63027 1.60494 1.55776 1.51084 1.47288 1.44487 1.42369 1.40884 1.40003 1.3988 1.41275 1.4493 1.52495 1.63694 1.80301 2.01722 2.24755 2.4802 2.66071 2.73968 2.4642 2.05762
				</DataArray>
				<DataArray Name="F1" type="Float32" format="ascii">
 1 1 1 1 1 1 1 1 1 1 1 1 1 1 1 1 1 1 1 1 1 1 1 1 1 1 1 1 1 1 1 1 1 1 1 1 1 1 1 1 1 1 1 1 1 1 1 1 1 1 1 1 1 1 1 1 1 1 1 1 1 1 1 1 1 1 1 1 1 1 1 1 1 1 1 1 1 1 1 1 1 1 1 1 1 1 1 1 1 1 1 1 1 1 1 1 1 1 1 1 1 1 1 1 1 1 1 1 1 1 1 1 1 1 1 1 1 1 1 1 1 1 1 1 1 1 1 1 1 1 1 1 1 1 1 1 1 1 1 1 1 1 1 1 1 1 1 1 1 1 1 1 1 1 1 1 1 1 1 1 1 1 1 1 1 1 1 1 1 1 1 1 1 1 1 1 1 1 1 1 1 1 1 1 1 1 1 1 1 1 1 1 1 1 1 1 1 1 1 1 1 1 1 1 1 1 1 1 1 1 1 1 1 1 1 1 1 1 1 1 1 1 1 1 1 1 1 1 1 1 1 1 1 1 1 1 1 1 1 1 1 1 1 1 1 1 1 1 1 1 1 1 1 1 1 1 1 1 1 1 1 1 1 1 1 1 1 1 1 1 1 1 1 1 1 1 1 1 1 1 1 1 1 1 1 1 1 1 1 1 1 1 1 1 1 1 1 1 1 1 1 1 1 1 1 1 1 1 1 1 1 1 1 1 1 1 1 1 1 1 1 1 1 1 1 1 1 1 1 1 1 1 1 1 1 1 1 1 1 1 1 1 1 1 1 1 1 1 1 1 1 1 1 1 1 1 1 1 1 1 1 1 1 1 1 1 1 1 1 1 1 1 1 1 1 1 1 1 1 1 1 1 1 1 1 1 1 1 1 1 1 1 1 1 1 1 1 1 1 1 1 1 1 1 1 1 1 1 1 1 1 1 1 1 1 1 1 1 1 1 1 1 1 1 1 1 1 1 1 1 1 1 1 1 1 1 1 1 1 1 1 1 1 1 1 1 1 1 1 1 1 1 1 1 1 1 1 1 1 1 1 1 1 1 1 1 1 1 1 1 1 1 1 1 1 1 1 1 1 1 1 1 1 1 1 1 1 1 1 1 1 1 1 1 1 1 1 1 1 1 1 1 1 1 1 1 1 1 1 1 1 1 1 1 1 1 1 1 1 1 1 1 1 1 1 1 1 1 1 1 1 1 1 1 1 1 1 1 1 1 1 1 1 1 1 1 1 1 1 1 1 1 1 1 1 1 1 1 1 1 1 1 1 1 1 1 1 1 1 1 1 1 1 1 1 1 1 1 1 1 1 1 1 1 1 1 1 1 1 1 1 1 1 1 1 1 1 1 1 1 1 1 1 1 1 1 1 1 1 1 1 1 1 1 1 1 1 1 1 1 1 1 1 1 1 1 1 1 1 1 1 1 1 1 1 1 1 1 1 1 1 1 1 1 1 1 1 1 1 1 1 1 1 1 1 1 1 1 1 1 1 1 1 1 1 1 1 1 1 1 1 1 1 1 1 1 1 1 1 1 1 1 1 1 1 1 1 1 1 1 1 1 1 1 1 1 1 1 1 1 1 1 1 1 1 1 1 1 1 1 1 1 1 1 1 1 1 1 1 1 1 1 1 1 1 1 1 1 1 1 1 1 1 1 1 1 1 1 1 1 1 1 1 1 1 1 1 1 1 1 1 1 1 1 1 1 1 1 1 1 1 1 1 1 1 1 1 1 1 1 1 1 1 1 1 1 1 1 1 1 1 1 1 1 1 1 1 1 1 1 1 1 1 1 1 1 1 1 1 1 1 1 1 1 1 1 1 1 1 1 1 1 1 1 1 1 1 1 1 1 1 1 1 1 1 1 1 1 1 1 1 1 1 1 1 1 1 1 1 1 1 1 1 1 1 1 1 1 1 1 1 1 1 1 1 1 1 1 1 1 1 1 1 1 1 1 1 1 1 1 1 1 1 1 1 1 1 1 1 1 1 1 1 1 1 1 1 1 1 1 1 1 1 1 1 1 1 1 1 1
				</DataArray>
				<DataArray Name="F2" type="Float32" format="ascii">
 0 0 0 0 0 0 0 0 0 0 0 0 0 0 0 0 0 0 0 0 0 0 0 0 0 0 0 0 0 0 0 0 0 0 0 0 0 0 0 0 0 0 0 0 0 0 0 0 0 0 0 0 0 0 0 0 0 0 0 0 0 0 0 0 0 0 0 0 0 0 0 0 0 0 0 0 0 0 0 0 0 0 0 0 0 0 0 0 0 0 0 0 0 0 0 0 0 0 0 0 0 0 0 0 0 0 0 0 0 0 0 0 0 0 0 0 0 0 0 0 0 0 0 0 0 0 0 0 0 0 0 0 0 0 0 0 0 0 0 0 0 0 0 0 0 0 0 0 0 0 0 0 0 0 0 0 0 0 0 0 0 0 0 0 0 0 0 0 0 0 0 0 0 0 0 0 0 0 0 0 0 0 0 0 0 0 0 0 0 0 0 0 0 0 0 0 0 0 0 0 0 0 0 0 0 0 0 0 0 0 0 0 0 0 0 0 0 0 0 0 0 0 0 0 0 0 0 0 0 0 0 0 0 0 0 0 0 0 0 0 0 0 0 0 0 0 0 0 0 0 0 0 0 0 0 0 0 0 0 0 0 0 0 0 0 0 0 0 0 0 0 0 0 0 0 0 0 0 0 0 0 0 0 0 0 0 0 0 0 0 0 0 0 0 0 0 0 0 0 0 0 0 0 0 0 0 0 0 0 0 0 0 0 0 0 0 0 0 0 0 0 0 0 0 0 0 0 0 0 0 0 0 0 0 0 0 0 0 0 0 0 0 0 0 0 0 0 0 0 0 0 0 0 0 0 0 0 0 0 0 0 0 0 0 0 0 0 0 0 0 0 0 0 0 0 0 0 0 0 0 0 0 0 0 0 0 0 0 0 0 0 0 0 0 0 0 0 0 0 0 0 0 0 0 0 0 0 0 0 0 0 0 0 0 0 0 0 0 0 0 0 0 0 0 0 0 0 0 0 0 0 0 0 0 0 0 0 0 0 0 0 0 0 0 0 0 0 0 0 0 0 0 0 0 0 0 0 0 0 0 0 0 0 0 0 0 0 0 0 0 0 0 0 0 0 0 0 0 0 0 0 0 0 0 0 0 0 0 0 0 0 0 0 0 0 0 0 0 0 0 0 0 0 0 0 0 0 0 0 0 0 0 0 0 0 0 0 0 0 0 0 0 0 0 0 0 0 0 0 0 0 0 0 0 0 0 0 0 0 0 0 0 0 0 0 0 0 0 0 0 0 0 0 0 0 0 0 0 0 0 0 0 0 0 0 0 0 0 0 0 0 0 0 0 0 0 0 0 0 0 0 0 0 0 0 0 0 0 0 0 0 0 0 0 0 0 0 0 0 0 0 0 0 0 0 0 0 0 0 0 0 0 0 0 0 0 0 0 0 0 0 0 0 0 0 0 0 0 0 0 0 0 0 0 0 0 0 0 0 0 0 0 0 0 0 0 0 0 0 0 0 0 0 0 0 0 0 0 0 0 0 0 0 0 0 0 0 0 0 0 0 0 0 0 0 0 0 0 0 0 0 0 0 0 0 0 0 0 0 0 0 0 0 0 0 0 0 0 0 0 0 0 0 0 0 0 0 0 0 0 0 0 0 0 0 0 0 0 0 0 0 0 0 0 0 0 0 0 0 0 0 0 0 0 0 0 0 0 0 0 0 0 0 0 0 0 0 0 0 0 0 0 0 0 0 0 0 0 0 0 0 0 0 0 0 0 0 0 0 0 0 0 0 0 0 0 0 0 0 0 0 0 0 0 0 0 0 0 0 0 0 0 0 0 0 0 0 0 0 0 0 0 0 0 0 0 0 0 0 0 0 0 0 0 0 0 0 0 0 0 0 0 0 0 0 0 0 0 0 0 0 0 0 0 0 0 0 0 0 0 0 0 0 0 0 0 0 0 0 0 0 0 0 0 0 0 0 0 0 0 0 0 0 0 0 0 0 0 0 0 0 0 0 0 0 0 0 0 0 0 0 0 0 0 0 0 0 0 0 0 0 0 0 0 0 0 0 0 0 0
				</DataArray>
				<DataArray Name="F3" type="Float32" format="ascii">