<?xml version="1.0"?>
<VTKFile type="PolyData">
	<PolyData>
		<Piece NumberOfPoints="961" NumberOfPolys="900">
			<Points>
				<DataArray type="Float32" NumberOfComponents="3" format="ascii">
 0 0 0 0.04 0 0 0.08 0 0 0.12 0 0 0.16 0 0 0.2 0 0 0.24 0 0 0.28 0 0 0.32 0 0 0.36 0 0 0.4 0 0 0.44 0 0 0.48 0 0 0.52 0 0 0.56 0 0 0.6 0 0 0.64 0 0 0.68 0 0 0.72 0 0 0.76 0 0 0.8 0 0 0.84 0 0 0.88 0 0 0.92 0 0 0.96 0 0 1 0 0 1.04 0 0 1.08 0 0 1.12 0 0 1.16 0 0 1.2 0 0 0 0.04 0 0.04 0.04 0 0.08 0.04 0 0.12 0.04 0 0.16 0.04 0 0.2 0.04 0 0.24 0.04 0 0.28 0.04 0 0.32 0.04 0 0.36 0.04 0 0.4 0.04 0 0.44 0.04 0 0.48 0.04 0 0.52 0.04 0 0.56 0.04 0 0.6 0.04 0 0.64 0.04 0 0.68 0.04 0 0.72 0.04 0 0.76 0.04 0 0.8 0.04 0 0.84 0.04 0 0.88 0.04 0 0.92 0.04 0 0.96 0.04 0 1 0.04 0 1.04 0.04 0 1.08 0.04 0 1.12 0.04 0 1.16 0.04 0 1.2 0.04 0 0 0.08 0 0.04 0.08 0 0.08 0.08 0 0.12 0.08 0 0.16 0.08 0 0.2 0.08 0 0.24 0.08 0 0.28 0.08 0 0.32 0.08 0 0.36 0.08 0 0.4 0.08 0 0.44 0.08 0 0.48 0.08 0 0.52 0.08 0 0.56 0.08 0 0.6 0.08 0 0.64 0.08 0 0.68 0.08 0 0.72 0.08 0 0.76 0.08 0 0.8 0.08 0 0.84 0.08 0 0.88 0.08 0 0.92 0.08 0 0.96 0.08 0 1 0.08 0 1.04 0.08 0 1.08 0.08 0 1.12 0.08 0 1.16 0.08 0 1.2 0.08 0 0 0.12 0 0.04 0.12 0 0.08 0.12 0 0.12 0.12 0 0.16 0.12 0 0.2 0.12 0 0.24 0.12 0 0.28 0.12 0 0.32 0.12 0 0.36 0.12 0 0.4 0.12 0 0.44 0.12 0 0.48 0.12 0 0.52 0.12 0 0.56 0.12 0 0.6 0.12 0 0.64 0.12 0 0.68 0.12 0 0.72 0.12 0 0.76 0.12 0 0.8 0.12 0 0.84 0.12 0 0.88 0.12 0 0.92 0.12 0 0.96 0.12 0 1 0.12 0 1.04 0.12 0 1.08 0.12 0 1.12 0.12 0 1.16 0.12 0 1.2 0.12 0 0 0.16 0 0.04 0.16 0 0.08 0.16 0 0.12 0.16 0 0.16 0.16 0 0.2 0.16 0 0.24 0.16 0 0.28 0.16 0 0.32 0.16 0 0.36 0.16 0 0.4 0.16 0 0.44 0.16 0 0.48 0.16 0 0.52 0.16 0 0.56 0.16 0 0.6 0.16 0 0.64 0.16 0 0.68 0.16 0 0.72 0.16 0 0.76 0.16 0 0.8 0.16 0 0.84 0.16 0 0.88 0.16 0 0.92 0.16 0 0.96 0.16 0 1 0.16 0 1.04 0.16 0 1.08 0.16 0 1.12 0.16 0 1.16 0.16 0 1.2 0.16 0 0 0.2 0 0.04 0.2 0 0.08 0.2 0 0.12 0.2 0 0.16 0.2 0 0.2 0.2 0 0.24 0.2 0 0.28 0.2 0 0.32 0.2 0 0.36 0.2 0 0.4 0.2 0 0.44 0.2 0 0.48 0.2 0 0.52 0.2 0 0.56 0.2 0 0.6 0.2 0 0.64 0.2 0 0.68 0.2 0 0.72 0.2 0 0.76 0.2 0 0.8 0.2 0 0.84 0.2 0 0.88 0.2 0 0.92 0.2 0 0.96 0.2 0 1 0.2 0 1.04 0.2 0 1.08 0.2 0 1.12 0.2 0 1.16 0.2 0 1.2 0.2 0 0 0.24 0 0.04 0.24 0 0.08 0.24 0 0.12 0.24 0 0.16 0.24 0 0.2 0.24 0 0.24 0.24 0 0.28 0.24 0 0.32 0.24 0 0.36 0.24 0 0.4 0.24 0 0.44 0.24 0 0.48 0.24 0 0.52 0.24 0 0.56 0.24 0 0.6 0.24 0 0.64 0.24 0 0.68 0.24 0 0.72 0.24 0 0.76 0.24 0 0.8 0.24 0 0.84 0.24 0 0.88 0.24 0 0.92 0.24 0 0.96 0.24 0 1 0.24 0 1.04 0.24 0 1.08 0.24 0 1.12 0.24 0 1.16 0.24 0 1.2 0.24 0 0 0.28 0 0.04 0.28 0 0.08 0.28 0 0.12 0.28 0 0.16 0.28 0 0.2 0.28 0 0.24 0.28 0 0.28 0.28 0 0.32 0.28 0 0.36 0.28 0 0.4 0.28 0 0.44 0.28 0 0.48 0.28 0 0.52 0.28 0 0.56 0.28 0 0.6 0.28 0 0.64 0.28 0 0.68 0.28 0 0.72 0.28 0 0.76 0.28 0 0.8 0.28 0 0.84 0.28 0 0.88 0.28 0 0.92 0.28 0 0.96 0.28 0 1 0.28 0 1.04 0.28 0 1.08 0.28 0 1.12 0.28 0 1.16 0.28 0 1.2 0.28 0 0 0.32 0 0.04 0.32 0 0.08 0.32 0 0.12 0.32 0 0.16 0.32 0 0.2 0.32 0 0.24 0.32 0 0.28 0.32 0 0.32 0.32 0 0.36 0.32 0 0.4 0.32 0 0.44 0.32 0 0.48 0.32 0 0.52 0.32 0 0.56 0.32 0 0.6 0.32 0 0.64 0.32 0 0.68 0.32 0 0.72 0.32 0 0.76 0.32 0 0.8 0.32 0 0.84 0.32 0 0.88 0.32 0 0.92 0.32 0 0.96 0.32 0 1 0.32 0 1.04 0.32 0 1.08 0.32 0 1.12 0.32 0 1.16 0.32 0 1.2 0.32 0 0 0.36 0 0.04 0.36 0 0.08 0.36 0 0.12 0.36 0 0.16 0.36 0 0.2 0.36 0 0.24 0.36 0 0.28 0.36 0 0.32 0.36 0 0.36 0.36 0 0.4 0.36 0 0.44 0.36 0 0.48 0.36 0 0.52 0.36 0 0.56 0.36 0 0.6 0.36 0 0.64 0.36 0 0.68 0.36 0 0.72 0.36 0 0.76 0.36 0 0.8 0.36 0 0.84 0.36 0 0.88 0.36 0 0.92 0.36 0 0.96 0.36 0 1 0.36 0 1.04 0.36 0 1.08 0.36 0 1.12 0.36 0 1.16 0.36 0 1.2 0.36 0 0 0.4 0 0.04 0.4 0 0.08 0.4 0 0.12 0.4 0 0.16 0.4 0 0.2 0.4 0 0.24 0.4 0 0.28 0.4 0 0.32 0.4 0 0.36 0.4 0 0.4 0.4 0 0.44 0.4 0 0.48 0.4 0 0.52 0.4 0 0.56 0.4 0 0.6 0.4 0 0.64 0.4 0 0.68 0.4 0 0.72 0.4 0 0.76 0.4 0 0.8 0.4 0 0.84 0.4 0 0.88 0.4 0 0.92 0.4 0 0.96 0.4 0 1 0.4 0 1.04 0.4 0 1.08 0.4 0 1.12 0.4 0 1.16 0.4 0 1.2 0.4 0 0 0.44 0 0.04 0.44 0 0.08 0.44 0 0.12 0.44 0 0.16 0.44 0 0.2 0.44 0 0.24 0.44 0 0.28 0.44 0 0.32 0.44 0 0.36 0.44 0 0.4 0.44 0 0.44 0.44 0 0.48 0.44 0 0.52 0.44 0 0.56 0.44 0 0.6 0.44 0 0.64 0.44 0 0.68 0.44 0 0.72 0.44 0 0.76 0.44 0 0.8 0.44 0 0.84 0.44 0 0.88 0.44 0 0.92 0.44 0 0.96 0.44 0 1 0.44 0 1.04 0.44 0 1.08 0.44 0 1.12 0.44 0 1.16 0.44 0 1.2 0.44 0 0 0.48 0 0.04 0.48 0 0.08 0.48 0 0.12 0.48 0 0.16 0.48 0 0.2 0.48 0 0.24 0.48 0 0.28 0.48 0 0.32 0.48 0 0.36 0.48 0 0.4 0.48 0 0.44 0.48 0 0.48 0.48 0 0.52 0.48 0 0.56 0.48 0 0.6 0.48 0 0.64 0.48 0 0.68 0.48 0 0.72 0.48 0 0.76 0.48 0 0.8 0.48 0 0.84 0.48 0 0.88 0.48 0 0.92 0.48 0 0.96 0.48 0 1 0.48 0 1.04 0.48 0 1.08 0.48 0 1.12 0.48 0 1.16 0.48 0 1.2 0.48 0 0 0.52 0 0.04 0.52 0 0.08 0.52 0 0.12 0.52 0 0.16 0.52 0 0.2 0.52 0 0.24 0.52 0 0.28 0.52 0 0.32 0.52 0 0.36 0.52 0 0.4 0.52 0 0.44 0.52 0 0.48 0.52 0 0.52 0.52 0 0.56 0.52 0 0.6 0.52 0 0.64 0.52 0 0.68 0.52 0 0.72 0.52 0 0.76 0.52 0 0.8 0.52 0 0.84 0.52 0 0.88 0.52 0 0.92 0.52 0 0.96 0.52 0 1 0.52 0 1.04 0.52 0 1.08 0.52 0 1.12 0.52 0 1.16 0.52 0 1.2 0.52 0 0 0.56 0 0.04 0.56 0 0.08 0.56 0 0.12 0.56 0 0.16 0.56 0 0.2 0.56 0 0.24 0.56 0 0.28 0.56 0 0.32 0.56 0 0.36 0.56 0 0.4 0.56 0 0.44 0.56 0 0.48 0.56 0 0.52 0.56 0 0.56 0.56 0 0.6 0.56 0 0.64 0.56 0 0.68 0.56 0 0.72 0.56 0 0.76 0.56 0 0.8 0.56 0 0.84 0.56 0 0.88 0.56 0 0.92 0.56 0 0.96 0.56 0 1 0.56 0 1.04 0.56 0 1.08 0.56 0 1.12 0.56 0 1.16 0.56 0 1.2 0.56 0 0 0.6 0 0.04 0.6 0 0.08 0.6 0 0.12 0.6 0 0.16 0.6 0 0.2 0.6 0 0.24 0.6 0 0.28 0.6 0 0.32 0.6 0 0.36 0.6 0 0.4 0.6 0 0.44 0.6 0 0.48 0.6 0 0.52 0.6 0 0.56 0.6 0 0.6 0.6 0 0.64 0.6 0 0.68 0.6 0 0.72 0.6 0 0.76 0.6 0 0.8 0.6 0 0.84 0.6 0 0.88 0.6 0 0.92 0.6 0 0.96 0.6 0 1 0.6 0 1.04 0.6 0 1.08 0.6 0 1.12 0.6 0 1.16 0.6 0 1.2 0.6 0 0 0.64 0 0.04 0.64 0 0.08 0.64 0 0.12 0.64 0 0.16 0.64 0 0.2 0.64 0 0.24 0.64 0 0.28 0.64 0 0.32 0.64 0 0.36 0.64 0 0.4 0.64 0 0.44 0.64 0 0.48 0.64 0 0.52 0.64 0 0.56 0.64 0 0.6 0.64 0 0.64 0.64 0 0.68 0.64 0 0.72 0.64 0 0.76 0.64 0 0.8 0.64 0 0.84 0.64 0 0.88 0.64 0 0.92 0.64 0 0.96 0.64 0 1 0.64 0 1.04 0.64 0 1.08 0.64 0 1.12 0.64 0 1.16 0.64 0 1.2 0.64 0 0 0.68 0 0.04 0.68 0 0.08 0.68 0 0.12 0.68 0 0.16 0.68 0 0.2 0.68 0 0.24 0.68 0 0.28 0.68 0 0.32 0.68 0 0.36 0.68 0 0.4 0.68 0 0.44 0.68 0 0.48 0.68 0 0.52 0.68 0 0.56 0.68 0 0.6 0.68 0 0.64 0.68 0 0.68 0.68 0 0.72 0.68 0 0.76 0.68 0 0.8 0.68 0 0.84 0.68 0 0.88 0.68 0 0.92 0.68 0 0.96 0.68 0 1 0.68 0 1.04 0.68 0 1.08 0.68 0 1.12 0.68 0 1.16 0.68 0 1.2 0.68 0 0 0.72 0 0.04 0.72 0 0.08 0.72 0 0.12 0.72 0 0.16 0.72 0 0.2 0.72 0 0.24 0.72 0 0.28 0.72 0 0.32 0.72 0 0.36 0.72 0 0.4 0.72 0 0.44 0.72 0 0.48 0.72 0 0.52 0.72 0 0.56 0.72 0 0.6 0.72 0 0.64 0.72 0 0.68 0.72 0 0.72 0.72 0 0.76 0.72 0 0.8 0.72 0 0.84 0.72 0 0.88 0.72 0 0.92 0.72 0 0.96 0.72 0 1 0.72 0 1.04 0.72 0 1.08 0.72 0 1.12 0.72 0 1.16 0.72 0 1.2 0.72 0 0 0.76 0 0.04 0.76 0 0.08 0.76 0 0.12 0.76 0 0.16 0.76 0 0.2 0.76 0 0.24 0.76 0 0.28 0.76 0 0.32 0.76 0 0.36 0.76 0 0.4 0.76 0 0.44 0.76 0 0.48 0.76 0 0.52 0.76 0 0.56 0.76 0 0.6 0.76 0 0.64 0.76 0 0.68 0.76 0 0.72 0.76 0 0.76 0.76 0 0.8 0.76 0 0.84 0.76 0 0.88 0.76 0 0.92 0.76 0 0.96 0.76 0 1 0.76 0 1.04 0.76 0 1.08 0.76 0 1.12 0.76 0 1.16 0.76 0 1.2 0.76 0 0 0.8 0 0.04 0.8 0 0.08 0.8 0 0.12 0.8 0 0.16 0.8 0 0.2 0.8 0 0.24 0.8 0 0.28 0.8 0 0.32 0.8 0 0.36 0.8 0 0.4 0.8 0 0.44 0.8 0 0.48 0.8 0 0.52 0.8 0 0.56 0.8 0 0.6 0.8 0 0.64 0.8 0 0.68 0.8 0 0.72 0.8 0 0.76 0.8 0 0.8 0.8 0 0.84 0.8 0 0.88 0.8 0 0.92 0.8 0 0.96 0.8 0 1 0.8 0 1.04 0.8 0 1.08 0.8 0 1.12 0.8 0 1.16 0.8 0 1.2 0.8 0 0 0.84 0 0.04 0.84 0 0.08 0.84 0 0.12 0.84 0 0.16 0.84 0 0.2 0.84 0 0.24 0.84 0 0.28 0.84 0 0.32 0.84 0 0.36 0.84 0 0.4 0.84 0 0.44 0.84 0 0.48 0.84 0 0.52 0.84 0 0.56 0.84 0 0.6 0.84 0 0.64 0.84 0 0.68 0.84 0 0.72 0.84 0 0.76 0.84 0 0.8 0.84 0 0.84 0.84 0 0.88 0.84 0 0.92 0.84 0 0.96 0.84 0 1 0.84 0 1.04 0.84 0 1.08 0.84 0 1.12 0.84 0 1.16 0.84 0 1.2 0.84 0 0 0.88 0 0.04 0.88 0 0.08 0.88 0 0.12 0.88 0 0.16 0.88 0 0.2 0.88 0 0.24 0.88 0 0.28 0.88 0 0.32 0.88 0 0.36 0.88 0 0.4 0.88 0 0.44 0.88 0 0.48 0.88 0 0.52 0.88 0 0.56 0.88 0 0.6 0.88 0 0.64 0.88 0 0.68 0.88 0 0.72 0.88 0 0.76 0.88 0 0.8 0.88 0 0.84 0.88 0 0.88 0.88 0 0.92 0.88 0 0.96 0.88 0 1 0.88 0 1.04 0.88 0 1.08 0.88 0 1.12 0.88 0 1.16 0.88 0 1.2 0.88 0 0 0.92 0 0.04 0.92 0 0.08 0.92 0 0.12 0.92 0 0.16 0.92 0 0.2 0.92 0 0.24 0.92 0 0.28 0.92 0 0.32 0.92 0 0.36 0.92 0 0.4 0.92 0 0.44 0.92 0 0.48 0.92 0 0.52 0.92 0 0.56 0.92 0 0.6 0.92 0 0.64 0.92 0 0.68 0.92 0 0.72 0.92 0 0.76 0.92 0 0.8 0.92 0 0.84 0.92 0 0.88 0.92 0 0.92 0.92 0 0.96 0.92 0 1 0.92 0 1.04 0.92 0 1.08 0.92 0 1.12 0.92 0 1.16 0.92 0 1.2 0.92 0 0 0.96 0 0.04 0.96 0 0.08 0.96 0 0.12 0.96 0 0.16 0.96 0 0.2 0.96 0 0.24 0.96 0 0.28 0.96 0 0.32 0.96 0 0.36 0.96 0 0.4 0.96 0 0.44 0.96 0 0.48 0.96 0 0.52 0.96 0 0.56 0.96 0 0.6 0.96 0 0.64 0.96 0 0.68 0.96 0 0.72 0.96 0 0.76 0.96 0 0.8 0.96 0 0.84 0.96 0 0.88 0.96 0 0.92 0.96 0 0.96 0.96 0 1 0.96 0 1.04 0.96 0 1.08 0.96 0 1.12 0.96 0 1.16 0.96 0 1.2 0.96 0 0 1 0 0.04 1 0 0.08 1 0 0.12 1 0 0.16 1 0 0.2 1 0 0.24 1 0 0.28 1 0 0.32 1 0 0.36 1 0 0.4 1 0 0.44 1 0 0.48 1 0 0.52 1 0 0.56 1 0 0.6 1 0 0.64 1 0 0.68 1 0 0.72 1 0 0.76 1 0 0.8 1 0 0.84 1 0 0.88 1 0 0.92 1 0 0.96 1 0 1 1 0 1.04 1 0 1.08 1 0 1.12 1 0 1.16 1 0 1.2 1 0 0 1.04 0 0.04 1.04 0 0.08 1.04 0 0.12 1.04 0 0.16 1.04 0 0.2 1.04 0 0.24 1.04 0 0.28 1.04 0 0.32 1.04 0 0.36 1.04 0 0.4 1.04 0 0.44 1.04 0 0.48 1.04 0 0.52 1.04 0 0.56 1.04 0 0.6 1.04 0 0.64 1.04 0 0.68 1.04 0 0.72 1.04 0 0.76 1.04 0 0.8 1.04 0 0.84 1.04 0 0.88 1.04 0 0.92 1.04 0 0.96 1.04 0 1 1.04 0 1.04 1.04 0 1.08 1.04 0 1.12 1.04 0 1.16 1.04 0 1.2 1.04 0 0 1.08 0 0.04 1.08 0 0.08 1.08 0 0.12 1.08 0 0.16 1.08 0 0.2 1.08 0 0.24 1.08 0 0.28 1.08 0 0.32 1.08 0 0.36 1.08 0 0.4 1.08 0 0.44 1.08 0 0.48 1.08 0 0.52 1.08 0 0.56 1.08 0 0.6 1.08 0 0.64 1.08 0 0.68 1.08 0 0.72 1.08 0 0.76 1.08 0 0.8 1.08 0 0.84 1.08 0 0.88 1.08 0 0.92 1.08 0 0.96 1.08 0 1 1.08 0 1.04 1.08 0 1.08 1.08 0 1.12 1.08 0 1.16 1.08 0 1.2 1.08 0 0 1.12 0 
[...]
			<CellData Scalars="Density">
				<DataArray Name="Density" type="Float32" format="ascii">
 0.0090249 0.00930978 0.0100394 0.0114728 0.0138915 0.0176039 0.0229612 0.030407 0.0405969 0.0545577 0.0739743 0.101768 0.142896 0.205969 0.306455 0.473463 0.766315 1.32305 2.27561 2.77004 2.88147 1.4661 1.04086 1.00225 1.00001 1 1 1 1 1 0.00931095 0.00957284 0.0102516 0.0116312 0.014005 0.0176985 0.0231017 0.0306969 0.0411682 0.055563 0.0755204 0.103833 0.145192 0.207757 0.306138 0.466127 0.738146 1.26247 2.21566 2.70446 2.81482 1.44212 1.04165 1.0023 1.00001 1 1 1 1 1 0.0100433 0.0102541 0.0108155 0.012054 0.0142664 0.0177868 0.0230148 0.030456 0.0407894 0.0549967 0.0746176 0.102219 0.142224 0.202373 0.297661 0.457072 0.736743 1.27604 2.21359 2.67787 2.74294 1.38516 1.03965 1.0022 1.00001 1 1 1 1 1 0.0114815 0.0116373 0.0120568 0.0132187 0.0154544 0.0191323 0.0247463 0.0328952 0.0443594 0.0601739 0.0817861 0.111578 0.153599 0.215075 0.309817 0.466879 0.741047 1.29261 2.18999 2.59284 2.55951 1.29807 1.0347 1.00187 1 1 1 1 1 1 0.0139078 0.0140165 0.0142716 0.0154564 0.0179911 0.0223012 0.0290302 0.0389671 0.0530662 0.0724916 0.0987609 0.134118 0.182678 0.25181 0.356317 0.528465 0.82265 1.42682 2.26934 2.57666 2.31812 1.18705 1.02224 1.00128 1 1 1 1 1 1 0.0176306 0.0177189 0.0177969 0.0191352 0.0223021 0.0277839 0.0363909 0.0491264 0.0672415 0.0920606 0.125379 0.169742 0.229652 0.31345 0.437992 0.638157 0.999259 1.71757 2.42729 2.61218 1.96413 1.11461 1.01457 1.00062 1 1 1 1 1 1 0.0230011 0.0231336 0.0230341 0.0247551 0.0290326 0.0363914 0.0478688 0.0646854 0.088458 0.120918 0.164094 0.2214 0.298425 0.406961 0.570256 0.836366 1.37426 2.2523 2.76158 2.66367 1.53088 1.07581 1.00772 1.00017 1 1 1 1 1 1 0.0304615 0.0307444 0.030487 0.0329167 0.0389791 0.0491327 0.0646821 0.0871671 0.118553 0.161111 0.217798 0.292791 0.395364 0.542082 0.767266 1.18137 1.98716 2.78226 2.95428 2.20089 1.20468 1.03243 1.00239 1.00001 1 1 1 1 1 1 0.0406679 0.0412321 0.0408363 0.0443949 0.0530906 0.0672506 0.088451 0.118494 0.160014 0.215795 0.289853 0.388829 0.527298 0.731292 1.07395 1.76438 2.70907 3.07214 2.76273 1.49066 1.07882 1.01007 1.00034 1 1 1 1 1 1 1 0.0546492 0.0556482 0.0550629 0.0602258 0.0725349 0.0920806 0.120875 0.161046 0.215623 0.288708 0.385772 0.518619 0.707598 1.00773 1.59037 2.51849 3.10814 3.05614 1.94313 1.15553 1.02742 1.00196 1.00001 1 1 1 1 1 1 1 0.0740933 0.0756335 0.0747082 0.08186 0.0988149 0.125463 0.164099 0.217631 0.289719 0.385542 0.515516 0.696091 0.971229 1.46898 2.3653 3.09171 3.1877 2.40054 1.29776 1.05431 1.00612 1.00015 1 1 1 1 1 1 1 1 0.101927 0.103988 0.102345 0.111678 0.134182 0.169779 0.221509 0.29273 0.388435 0.518369 0.696095 0.955268 1.41847 2.2482 3.01231 3.25792 2.7383 1.48149 1.08757 1.01404 1.00069 1 1 1 1 1 1 1 1 1 0.143116 0.145409 0.142405 0.153736 0.182767 0.229741 0.298432 0.395436 0.527172 0.706896 0.970511 1.41808 2.19134 3.02649 3.28951 2.93948 1.67495 1.12402 1.02512 1.00191 1.00002 1 1 1 1 1 1 1 1 1 0.206277 0.208068 0.202636 0.215281 0.251935 0.313506 0.407093 0.542035 0.731264 1.0083 1.46911 2.24602 3.02981 3.27317 3.01126 1.82203 1.16796 1.03656 1.00371 1.00007 1 1 1 1 1 1 1 1 1 1 0.306895 0.30659 0.298055 0.310145 0.356569 0.438093 0.570314 0.767445 1.0738 1.5905 2.36781 3.01179 3.28679 3.01 1.88901 1.1945 1.04493 1.00567 1.00018 1 1 1 1 1 1 1 1 1 1 1 0.474115 0.466797 0.457686 0.467406 0.528907 0.638422 0.836697 1.18107 1.76521 2.51907 3.08903 3.2603 2.93863 1.8223 1.19435 1.04847 1.00701 1.0003 1 1 1 1 1 1 1 1 1 1 1 1 0.767333 0.739174 0.73775 0.741934 0.823468 0.999696 1.37513 1.98643 2.70711 3.11049 3.18663 2.73889 1.6742 1.16794 1.04496 1.007 1.00035 1 1 1 1 1 1 1 1 1 1 1 1 1 1.32476 1.26424 1.27788 1.29423 1.42839 1.71835 2.25283 2.78287 3.07264 3.05642 2.40031 1.48118 1.12402 1.03653 1.00567 1.0003 1 1 1 1 1 1 1 1 1 1 1 1 1 1 2.27766 2.21785 2.21587 2.19164 2.2707 2.42739 2.7616 2.95227 2.76288 1.94118 1.29781 1.08746 1.0251 1.00371 1.00018 1 1 1 1 1 1 1 1 1 1 1 1 1 1 1 2.77067 2.70515 2.67879 2.59355 2.57747 2.6116 2.66385 2.19888 1.49097 1.1552 1.05428 1.01403 1.00191 1.00007 1 1 1 1 1 1 1 1 1 1 1 1 1 1 1 1 2.88088 2.81415 2.74225 2.55823 2.31706 1.96211 1.53027 1.20429 1.07876 1.0274 1.00611 1.00069 1.00002 1 1 1 1 1 1 1 1 1 1 1 1 1 1 1 1 1 1.46408 1.44019 1.38355 1.29698 1.18658 1.11435 1.07553 1.03241 1.01004 1.00196 1.00015 1 1 1 1 1 1 1 1 1 1 1 1 1 1 1 1 1 1 1 1.04071 1.04149 1.0395 1.03456 1.02212 1.01459 1.00768 1.00239 1.00034 1.00001 1 1 1 1 1 1 1 1 1 1 1 1 1 1 1 1 1 1 1 1 1.00223 1.00229 1.00219 1.00186 1.00128 1.00062 1.00017 1.00001 1 1 1 1 1 1 1 1 1 1 1 1 1 1 1 1 1 1 1 1 1 1 1.00001 1.00001 1.00001 1 1 1 1 1 1 1 1 1 1 1 1 1 1 1 1 1 1 1 1 1 1 1 1 1 1 1 1 1 1 1 1 1 1 1 1 1 1 1 1 1 1 1 1 1 1 1 1 1 1 1 1 1 1 1 1 1 1 1 1 1 1 1 1 1 1 1 1 1 1 1 1 1 1 1 1 1 1 1 1 1 1 1 1 1 1 1 1 1 1 1 1 1 1 1 1 1 1 1 1 1 1 1 1 1 1 1 1 1 1 1 1 1 1 1 1 1 1 1 1 1 1 1 1 1 1 1 1 1 1 1 1 1 1 1 1 1 1 1 1 1 1 1 1 1 1 1 1 1 1 1 1 1 1 1 1 1 1 1 1 1 1 1 1 1 1 1 1 1 1 1 1 1 1 1 1 1
				</DataArray>
				<DataArray Name="Energy" type="Float32" format="ascii">
 1151.85 1114.48 1033.8 905.049 747.91 590.725 453.526 343.153 257.834 192.776 143.163 105.195 76.1395 54.1151 37.791 26.1023 18.069 12.6971 8.37191 5.71583 2.72398 0.378327 0.0036337 4.04494e-06 2.50001e-06 2.5e-06 2.5e-06 2.5e-06 2.5e-06 2.5e-06 1114.33 1081.45 1009.78 890.152 739.549 585.565 449.082 338.496 253.021 188.241 139.298 102.217 74.0604 52.7833 36.9881 25.5757 17.6085 12.2882 8.23248 5.57744 2.64392 0.350009 0.00341547 4.00601e-06 2.50001e-06 2.5e-06 2.5e-06 2.5e-06 2.5e-06 2.5e-06 1033.4 1009.54 957.315 859.144 726.24 582.959 451.072 341.535 255.798 190.609 141.491 104.411 76.2703 54.903 38.8701 27.0938 18.7074 12.9438 8.3496 5.49336 2.4244 0.27672 0.00250428 3.57276e-06 2.50001e-06 2.5e-06 2.5e-06 2.5e-06 2.5e-06 2.5e-06 904.361 889.684 858.973 783.709 670.634 542.145 419.723 316.368 235.369 174.44 129.35 95.9727 70.9669 51.9645 37.411 26.4095 18.3461 12.7822 8.24814 5.34939 2.19921 0.199571 0.00154471 3.07859e-06 2.5e-06 2.5e-06 2.5e-06 2.5e-06 2.5e-06 2.5e-06 747.038 738.933 725.967 670.594 576.443 465.411 358.037 267.394 197.034 145.024 107.363 80.0701 59.9604 44.8086 33.1654 24.221 17.2925 12.1566 7.87908 5.11732 1.90344 0.123168 0.00066434 2.68302e-06 2.5e-06 2.5e-06 2.5e-06 2.5e-06 2.5e-06 2.5e-06 589.831 584.899 582.609 542.056 465.422 374.004 285.968 212.377 155.859 114.589 85.0369 63.8399 48.3372 36.6942 27.7423 20.7375 15.2542 10.5277 7.0674 4.34891 1.22222 0.0435796 0.000122188 2.51935e-06 2.5e-06 2.5e-06 2.5e-06 2.5e-06 2.5e-06 2.5e-06 452.745 448.456 450.702 419.56 358.004 285.971 217.873 161.718 118.871 87.6964 65.41 49.4274 37.7232 28.9312 22.1395 16.7738 12.6198 8.33563 5.78882 2.86703 0.427738 0.00618179 9.4137e-06 2.50091e-06 2.5e-06 2.5e-06 2.5e-06 2.5e-06 2.5e-06 2.5e-06 342.541 337.982 341.184 316.171 267.308 212.351 161.717 120.537 89.2016 66.3216 49.8836 38.0084 29.2406 22.6061 17.4 13.3627 9.63922 6.58508 4.28059 1.2835 0.065402 0.000300789 2.63067e-06 2.50002e-06 2.5e-06 2.5e-06 2.5e-06 2.5e-06 2.5e-06 2.5e-06 257.386 252.63 255.505 235.183 196.942 155.832 118.886 89.2196 66.6951 50.1577 38.1406 29.3711 22.8348 17.779 13.8753 10.6428 7.25288 5.23931 2.40334 0.320416 0.00435189 8.02873e-06 2.50198e-06 2.5e-06 2.5e-06 2.5e-06 2.5e-06 2.5e-06 2.5e-06 2.5e-06 192.458 187.955 190.383 174.289 144.943 114.557 87.7059 66.3552 50.1687 38.2356 29.4684 22.9964 18.092 14.2453 11.2875 7.98958 5.87406 3.47457 0.796201 0.027722 0.000103105 2.55707e-06 2.50002e-06 2.5e-06 2.5e-06 2.5e-06 2.5e-06 2.5e-06 2.5e-06 2.5e-06 142.937 139.091 141.323 129.239 107.299 85.0059 65.4018 49.8997 38.155 29.465 23.0578 18.2271 14.5051 11.7406 8.61095 6.33817 4.30777 1.42987 0.116008 0.000880193 3.29845e-06 2.50048e-06 2.5e-06 2.5e-06 2.5e-06 2.5e-06 2.5e-06 2.5e-06 2.5e-06 2.5e-06 105.035 102.069 104.286 95.895 80.0308 63.8181 49.4189 38.0122 29.3728 22.9935 18.2235 14.6016 11.8602 9.06763 6.70603 4.87037 2.06316 0.272886 0.0041562 1.0327e-05 2.50675e-06 2.5e-06 2.5e-06 2.5e-06 2.5e-06 2.5e-06 2.5e-06 2.5e-06 2.5e-06 2.5e-06 76.0279 73.9538 76.1786 70.9108 59.9377 48.3309 37.7237 29.2485 22.8375 18.0858 14.5032 11.8535 9.31483 6.82276 5.1955 2.55286 0.460687 0.0120044 4.44886e-05 2.54432e-06 2.50002e-06 2.5e-06 2.5e-06 2.5e-06 2.5e-06 2.5e-06 2.5e-06 2.5e-06 2.5e-06 2.5e-06 54.0395 52.7081 54.8363 51.9213 44.7904 36.6906 28.9358 22.6155 17.7876 14.2442 11.7421 9.07563 6.81959 5.30017 2.82026 0.612951 0.0259751 0.000135657 2.6668e-06 2.50016e-06 2.5e-06 2.5e-06 2.5e-06 2.5e-06 2.5e-06 2.5e-06 2.5e-06 2.5e-06 2.5e-06 2.5e-06 37.7425 36.9377 38.8241 37.3781 33.1488 27.7381 22.142 17.4036 13.8803 11.2938 8.60208 6.70679 5.1959 2.82053 0.675517 0.0376592 0.00026866 2.92702e-06 2.50066e-06 2.5e-06 2.5e-06 2.5e-06 2.5e-06 2.5e-06 2.5e-06 2.5e-06 2.5e-06 2.5e-06 2.5e-06 2.5e-06 26.0734 25.5442 27.0642 26.386 24.2074 20.7315 16.7765 13.3667 10.6393 7.98961 6.33969 4.86969 2.55226 0.613164 0.0376108 0.000339935 3.19604e-06 2.50152e-06 2.5e-06 2.5e-06 2.5e-06 2.5e-06 2.5e-06 2.5e-06 2.5e-06 2.5e-06 2.5e-06 2.5e-06 2.5e-06 2.5e-06 18.0529 17.5901 18.6892 18.3307 17.2831 15.2489 12.618 9.63905 7.25673 5.87169 4.30624 2.06224 0.460194 0.0259533 0.000269049 3.19487e-06 2.50202e-06 2.5e-06 2.5e-06 2.5e-06 2.5e-06 2.5e-06 2.5e-06 2.5e-06 2.5e-06 2.5e-06 2.5e-06 2.5e-06 2.5e-06 2.5e-06 12.6879 12.2782 12.9328 12.7716 12.1487 10.5225 8.33686 6.58263 5.23929 3.47376 1.429 0.272453 0.0119991 0.000135342 2.92644e-06 2.50152e-06 2.5e-06 2.5e-06 2.5e-06 2.5e-06 2.5e-06 2.5e-06 2.5e-06 2.5e-06 2.5e-06 2.5e-06 2.5e-06 2.5e-06 2.5e-06 2.5e-06 8.36648 8.2265 8.34311 8.24235 7.87523 7.06493 5.78896 4.27951 2.40234 0.794962 0.115883 0.00414399 4.43149e-05 2.66674e-06 2.50065e-06 2.5e-06 2.5e-06 2.5e-06 2.5e-06 2.5e-06 2.5e-06 2.5e-06 2.5e-06 2.5e-06 2.5e-06 2.5e-06 2.5e-06 2.5e-06 2.5e-06 2.5e-06 5.71183 5.57318 5.48886 5.34433 5.11321 4.34595 2.86533 1.28233 0.320182 0.0276175 0.000877331 1.03206e-05 2.54416e-06 2.50016e-06 2.5e-06 2.5e-06 2.5e-06 2.5e-06 2.5e-06 2.5e-06 2.5e-06 2.5e-06 2.5e-06 2.5e-06 2.5e-06 2.5e-06 2.5e-06 2.5e-06 2.5e-06 2.5e-06 2.71951 2.63933 2.41993 2.19447 1.89947 1.21989 0.426902 0.06521 0.00434506 0.000102725 3.29423e-06 2.50672e-06 2.50002e-06 2.5e-06 2.5e-06 2.5e-06 2.5e-06 2.5e-06 2.5e-06 2.5e-06 2.5e-06 2.5e-06 2.5e-06 2.5e-06 2.5e-06 2.5e-06 2.5e-06 2.5e-06 2.5e-06 2.5e-06 0.376324 0.348091 0.275159 0.19835 0.122471 0.0433797 0.00615634 0.000299455 8.01548e-06 2.55684e-06 2.50048e-06 2.5e-06 2.5e-06 2.5e-06 2.5e-06 2.5e-06 2.5e-06 2.5e-06 2.5e-06 2.5e-06 2.5e-06 2.5e-06 2.5e-06 2.5e-06 2.5e-06 2.5e-06 2.5e-06 2.5e-06 2.5e-06 2.5e-06 0.00359742 0.00338114 0.0024793 0.00152912 0.000657734 0.000121386 9.38238e-06 2.62936e-06 2.50198e-06 2.50002e-06 2.5e-06 2.5e-06 2.5e-06 2.5e-06 2.5e-06 2.5e-06 2.5e-06 2.5e-06 2.5e-06 2.5e-06 2.5e-06 2.5e-06 2.5e-06 2.5e-06 2.5e-06 2.5e-06 2.5e-06 2.5e-06 2.5e-06 2.5e-06 4.021e-06 3.98263e-06 3.55624e-06 3.06959e-06 2.68032e-06 2.51914e-06 2.5009e-06 2.50002e-06 2.5e-06 2.5e-06 2.5e-06 2.5e-06 2.5e-06 2.5e-06 2.5e-06 2.5e-06 2.5e-06 2.5e-06 2.5e-06 2.5e-06 2.5e-06 2.5e-06 2.5e-06 2.5e-06 2.5e-06 2.5e-06 2.5e-06 2.5e-06 2.5e-06 2.5e-06 2.50001e-06 2.50001e-06 2.50001e-06 2.5e-06 2.5e-06 2.5e-06 2.5e-06 2.5e-06 2.5e-06 2.5e-06 2.5e-06 2.5e-06 2.5e-06 2.5e-06 2.5e-06 2.5e-06 2.5e-06 2.5e-06 2.5e-06 2.5e-06 2.5e-06 2.5e-06 2.5e-06 2.5e-06 2.5e-06 2.5e-06 2.5e-06 2.5e-06 2.5e-06 2.5e-06 2.5e-06 2.5e-06 2.5e-06 2.5e-06 2.5e-06 2.5e-06 2.5e-06 2.5e-06 2.5e-06 2.5e-06 2.5e-06 2.5e-06 2.5e-06 2.5e-06 2.5e-06 2.5e-06 2.5e-06 2.5e-06 2.5e-06 2.5e-06 2.5e-06 2.5e-06 2.5e-06 2.5e-06 2.5e-06 2.5e-06 2.5e-06 2.5e-06 2.5e-06 2.5e-06 2.5e-06 2.5e-06 2.5e-06 2.5e-06 2.5e-06 2.5e-06 2.5e-06 2.5e-06 2.5e-06 2.5e-06 2.5e-06 2.5e-06 2.5e-06 2.5e-06 2.5e-06 2.5e-06 2.5e-06 2.5e-06 2.5e-06 2.5e-06 2.5e-06 2.5e-06 2.5e-06 2.5e-06 2.5e-06 2.5e-06 2.5e-06 2.5e-06 2.5e-06 2.5e-06 2.5e-06 2.5e-06 2.5e-06 2.5e-06 2.5e-06 2.5e-06 2.5e-06 2.5e-06 2.5e-06 2.5e-06 2.5e-06 2.5e-06 2.5e-06 2.5e-06 2.5e-06 2.5e-06 2.5e-06 2.5e-06 2.5e-06 2.5e-06 2.5e-06 2.5e-06 2.5e-06 2.5e-06 2.5e-06 2.5e-06 2.5e-06 2.5e-06 2.5e-06 2.5e-06 2.5e-06 2.5e-06 2.5e-06 2.5e-06 2.5e-06 2.5e-06 2.5e-06 2.5e-06 2.5e-06 2.5e-06 2.5e-06 2.5e-06 2.5e-06 2.5e-06 2.5e-06 2.5e-06 2.5e-06 2.5e-06 2.5e-06 2.5e-06 2.5e-06 2.5e-06 2.5e-06 2.5e-06 2.5e-06 2.5e-06 2.5e-06 2.5e-06 2.5e-06 2.5e-06 2.5e-06 2.5e-06 2.5e-06 2.5e-06 2.5e-06 2.5e-06 2.5e-06 2.5e-06 2.5e-06 2.5e-06 2.5e-06 2.5e-06 2.5e-06 2.5e-06 2.5e-06 2.5e-06 2.5e-06 2.5e-06 2.5e-06 2.5e-06 2.5e-06 2.5e-06 2.5e-06 2.5e-06 2.5e-06 2.5e-06 2.5e-06 2.5e-06 2.5e-06 2.5e-06
				</DataArray>
				<DataArray Name="F1" type="Float32" format="ascii">
 1 1 1 1 1 1 1 1 1 1 1 1 1 1 1 1 1 1 1 1 1 1 1 1 1 1 1 1 1 1 1 1 1 1 1 1 1 1 1 1 1 1 1 1 1 1 1 1 1 1 1 1 1 1 1 1 1 1 1 1 1 1 1 1 1 1 1 1 1 1 1 1 1 1 1 1 1 1 1 1 1 1 1 1 1 1 1 1 1 1 1 1 1 1 1 1 1 1 1 1 1 1 1 1 1 1 1 1 1 1 1 1 1 1 1 1 1 1 1 1 1 1 1 1 1 1 1 1 1 1 1 1 1 1 1 1 1 1 1 1 1 1 1 1 1 1 1 1 1 1 1 1 1 1 1 1 1 1 1 1 1 1 1 1 1 1 1 1 1 1 1 1 1 1 1 1 1 1 1 1 1 1 1 1 1 1 1 1 1 1 1 1 1 1 1 1 1 1 1 1 1 1 1 1 1 1 1 1 1 1 1 1 1 1 1 1 1 1 1 1 1 1 1 1 1 1 1 1 1 1 1 1 1 1 1 1 1 1 1 1 1 1 1 1 1 1 1 1 1 1 1 1 1 1 1 1 1 1 1 1 1 1 1 1 1 1 1 1 1 1 1 1 1 1 1 1 1 1 1 1 1 1 1 1 1 1 1 1 1 1 1 1 1 1 1 1 1 1 1 1 1 1 1 1 1 1 1 1 1 1 1 1 1 1 1 1 1 1 1 1 1 1 1 1 1 1 1 1 1 1 1 1 1 1 1 1 1 1 1 1 1 1 1 1 1 1 1 1 1 1 1 1 1 1 1 1 1 1 1 1 1 1 1 1 1 1 1 1 1 1 1 1 1 1 1 1 1 1 1 1 1 1 1 1 1 1 1 1 1 1 1 1 1 1 1 1 1 1 1 1 1 1 1 1 1 1 1 1 1 1 1 1 1 1 1 1 1 1 1 1 1 1 1 1 1 1 1 1 1 1 1 1 1 1 1 1 1 1 1 1 1 1 1 1 1 1 1 1 1 1 1 1 1 1 1 1 1 1 1 1 1 1 1 1 1 1 1 1 1 1 1 1 1 1 1 1 1 1 1 1 1 1 1 1 1 1 1 1 1 1 1 1 1 1 1 1 1 1 1 1 1 1 1 1 1 1 1 1 1 1 1 1 1 1 1 1 1 1 1 1 1 1 1 1 1 1 1 1 1 1 1 1 1 1 1 1 1 1 1 1 1 1 1 1 1 1 1 1 1 1 1 1 1 1 1 1 1 1 1 1 1 1 1 1 1 1 1 1 1 1 1 1 1 1 1 1 1 1 1 1 1 1 1 1 1 1 1 1 1 1 1 1 1 1 1 1 1 1 1 1 1 1 1 1 1 1 1 1 1 1 1 1 1 1 1 1 1 1 1 1 1 1 1 1 1 1 1 1 1 1 1 1 1 1 1 1 1 1 1 1 1 1 1 1 1 1 1 1 1 1 1 1 1 1 1 1 1 1 1 1 1 1 1 1 1 1 1 1 1 1 1 1 1 1 1 1 1 1 1 1 1 1 1 1 1 1 1 1 1 1 1 1 1 1 1 1 1 1 1 1 1 1 1 1 1 1 1 1 1 1 1 1 1 1 1 1 1 1 1 1 1 1 1 1 1 1 1 1 1 1 1 1 1 1 1 1 1 1 1 1 1 1 1 1 1 1 1 1 1 1 1 1 1 1 1 1 1 1 1 1 1 1 1 1 1 1 1 1 1 1 1 1 1 1 1 1 1 1 1 1 1 1 1 1 1 1 1 1 1 1 1 1 1 1 1 1 1 1 1 1 1 1 1 1 1 1 1 1 1 1 1 1 1 1 1 1 1 1 1 1 1 1 1 1 1 1 1 1 1 1 1 1 1 1 1 1 1 1 1 1 1 1 1 1 1 1 1 1 1 1 1 1 1 1 1 1 1 1 1 1 1 1 1 1 1 1 1 1 1 1 1 1 1 1 1 1 1 1 1 1 1 1 1 1 1 1 1 1 1 1 1 1 1 1 1 1 1 1 1 1
				</DataArray>
				<DataArray Name="F2" type="Float32" format="ascii">
 0 0 0 0 0 0 0 0 0 0 0 0 0 0 0 0 0 0 0 0 0 0 0 0 0 0 0 0 0 0 0 0 0 0 0 0 0 0 0 0 0 0 0 0 0 0 0 0 0 0 0 0 0 0 0 0 0 0 0 0 0 0 0 0 0 0 0 0 0 0 0 0 0 0 0 0 0 0 0 0 0 0 0 0 0 0 0 0 0 0 0 0 0 0 0 0 0 0 0 0 0 0 0 0 0 0 0 0 0 0 0 0 0 0 0 0 0 0 0 0 0 0 0 0 0 0 0 0 0 0 0 0 0 0 0 0 0 0 0 0 0 0 0 0 0 0 0 0 0 0 0 0 0 0 0 0 0 0 0 0 0 0 0 0 0 0 0 0 0 0 0 0 0 0 0 0 0 0 0 0 0 0 0 0 0 0 0 0 0 0 0 0 0 0 0 0 0 0 0 0 0 0 0 0 0 0 0 0 0 0 0 0 0 0 0 0 0 0 0 0 0 0 0 0 0 0 0 0 0 0 0 0 0 0 0 0 0 0 0 0 0 0 0 0 0 0 0 0 0 0 0 0 0 0 0 0 0 0 0 0 0 0 0 0 0 0 0 0 0 0 0 0 0 0 0 0 0 0 0 0 0 0 0 0 0 0 0 0 0 0 0 0 0 0 0 0 0 0 0 0 0 0 0 0 0 0 0 0 0 0 0 0 0 0 0 0 0 0 0 0 0 0 0 0 0 0 0 0 0 0 0 0 0 0 0 0 0 0 0 0 0 0 0 0 0 0 0 0 0 0 0 0 0 0 0 0 0 0 0 0 0 0 0 0 0 0 0 0 0 0 0 0 0 0 0 0 0 0 0 0 0 0 0 0 0 0 0 0 0 0 0 0 0 0 0 0 0 0 0 0 0 0 0 0 0 0 0 0 0 0 0 0 0 0 0 0 0 0 0 0 0 0 0 0 0 0 0 0 0 0 0 0 0 0 0 0 0 0 0 0 0 0 0 0 0 0 0 0 0 0 0 0 0 0 0 0 0 0 0 0 0 0 0 0 0 0 0 0 0 0 0 0 0 0 0 0 0 0 0 0 0 0 0 0 0 0 0 0 0 0 0 0 0 0 0 0 0 0 0 0 0 0 0 0 0 0 0 0 0 0 0 0 0 0 0 0 0 0 0 0 0 0 0 0 0 0 0 0 0 0 0 0 0 0 0 0 0 0 0 0 0 0 0 0 0 0 0 0 0 0 0 0 0 0 0 0 0 0 0 0 0 0 0 0 0 0 0 0 0 0 0 0 0 0 0 0 0 0 0 0 0 0 0 0 0 0 0 0 0 0 0 0 0 0 0 0 0 0 0 0 0 0 0 0 0 0 0 0 0 0 0 0 0 0 0 0 0 0 0 0 0 0 0 0 0 0 0 0 0 0 0 0 0 0 0 0 0 0 0 0 0 0 0 0 0 0 0 0 0 0 0 0 0 0 0 0 0 0 0 0 0 0 0 0 0 0 0 0 0 0 0 0 0 0 0 0 0 0 0 0 0 0 0 0 0 0 0 0 0 0 0 0 0 0 0 0 0 0 0 0 0 0 0 0 0 0 0 0 0 0 0 0 0 0 0 0 0 0 0 0 0 0 0 0 0 0 0 0 0 0 0 0 0 0 0 0 0 0 0 0 0 0 0 0 0 0 0 0 0 0 0 0 0 0 0 0 0 0 0 0 0 0 0 0 0 0 0 0 0 0 0 0 0 0 0 0 0 0 0 0 0 0 0 0 0 0 0 0 0 0 0 0 0 0 0 0 0 0 0 0 0 0 0 0 0 0 0 0 0 0 0 0 0 0 0 0 0 0 0 0 0 0 0 0 0 0 0 0 0 0 0 0 0 0 0 0 0 0 0 0 0 0 0 0 0 0 0 0 0 0 0 0 0 0 0 0 0 0 0 0 0 0 0 0 0 0 0 0 0 0 0 0 0 0 0 0 0 0 0 0 0 0 0 0 0 0 0 0 0 0 0 0 0 0 0 0 0 0 0 0
				</DataArray>
				<DataArray Name="F3" type="Float32" format="ascii">
 0 0 0 0 0 0 0 0 0 0 0 0 0 0 0 0 0 0 0 0 0 0 0 0 0 0 0 0 0 0 0 0 0 0 0 0 0 0 0 0 0 0 0 0 0 0 0 0 0 0 0 0 0 0 0 0 0 0 0 0 0 0 0 0 0 0 0 0 0 0 0 0 0 0 0 0 0 0 0 0 0 0 0 0 0 0 0 0 0 0 0 0 0 0 0 0 0 0 0 0 0 0 0 0 0 0 0 0 0 0 0 0 0 0 0 0 0 0 0 0 0 0 0 0 0 0 0 0 0 0 0 0 0 0 0 0 0 0 0 0 0 0 0 0 0 0 0 0 0 0 0 0 0 0 0 0 0 0 0 0 0 0 0 0 0 0 0 0 0 0 0 0 0 0 0 0 0 0 0 0 0 0 0 0 0 0 0 0 0 0 0 0 0 0 0 0 0 0 0 0 0 0 0 0 0 0 0 0 0 0 0 0 0 0 0 0 0 0 0 0 0 0 0 0 0 0 0 0 0 0 0 0 0 0 0 0 0 0 0 0 0 0 0 0 0 0 0 0 0 0 0 0 0 0 0 0 0 0 0 0 0 0 0 0 0 0 0 0 0 0 0 0 0 0 0 0 0 0 0 0 0 0 0 0 0 0 0 0 0 0 0 0 0 0 0 0 0 0 0 0 0 0 0 0 0 0 0 0 0 0 0 0 0 0 0 0 0 0 0 0 0 0 0 0 0 0 0 0 0 0 0 0 0 0 0 0 0 0 0 0 0 0 0 0 0 0 0 0 0 0 0 0 0 0 0 0 0 0 0 0 0 0 0 0 0 0 0 0 0 0 0 0 0 0 0 0 0 0 0 0 0 0 0 0 0 0 0 0 0 0 0 0 0 0 0 0 0 0 0 0 0 0 0 0 0 0 0 0 0 0 0 0 0 0 0 0 0 0 0 0 0 0 0 0 0 0 0 0 0 0 0 0 0 0 0 0 0 0 0 0 0 0 0 0 0 0 0 0 0 0 0 0 0 0 0 0 0 0 0 0 0 0 0 0 0 0 0 0 0 0 0 0 0 0 0 0 0 0 0 0 0 0 0 0 0 0 0 0 0 0 0 0 0 0 0 0 0 0 0 0 0 0 0 0 0 0 0 0 0 0 0 0 0 0 0 0 0 0 0 0 0 0 0 0 0 0 0 0 0 0 0 0 0 0 0 0 0 0 0 0 0 0 0 0 0 0 0 0 0 0 0 0 0 0 0 0 0 0 0 0 0 0 0 0 0 0 0 0 0 0 0 0 0 0 0 0 0 0 0 0 0 0 0 0 0 0 0 0 0 0 0 0 0 0 0 0 0 0 0 0 0 0 0 0 0 0 0 0 0 0 0 0 0 0 0 0 0 0 0 0 0 0 0 0 0 0 0 0 0 0 0 0 0 0 0 0 0 0 0 0 0 0 0 0 0 0 0 0 0 0 0 0 0 0 0 0 0 0 0 0 0 0 0 0 0 0 0 0 0 0 0 0 0 0 0 0 0 0 0 0 0 0 0 0 0 0 0 0 0 0 0 0 0 0 0 0 0 0 0 0 0 0 0 0 0 0 0 0 0 0 0 0 0 0 0 0 0 0 0 0 0 0 0 0 0 0 0 0 0 0 0 0 0 0 0 0 0 0 0 0 0 0 0 0 0 0 0 0 0 0 0 0 0 0 0 0 0 0 0 0 0 0 0 0 0 0 0 0 0 0 0 0 0 0 0 0 0 0 0 0 0 0 0 0 0 0 0 0 0 0 0 0 0 0 0 0 0 0 0 0 0 0 0 0 0 0 0 0 0 0 0 0 0 0 0 0 0 0 0 0 0 0 0 0 0 0 0 0 0 0 0 0 0 0 0 0 0 0 0 0 0 0 0 0 0 0 0 0 0 0 0 0 0 0 0 0 0 0 0 0 0 0 0 0 0 0 0 0 0 0 0 0 0 0 0 0 0 0 0 0 0 0 0 0 0 0 0 0 0 0 0 0 0 0 0 0 0 0 0 0
				</DataArray>
				<DataArray Name="Pressure" type="Float32" format="ascii">