<?xml version="1.0"?>
<VTKFile type="PolyData">
	<PolyData>
		<Piece NumberOfPoints="961" NumberOfPolys="900">
			<Points>
				<DataArray type="Float32" NumberOfComponents="3" format="ascii">
 0 0 0 0.04 0 0 0.08 0 0 0.12 0 0 0.16 0 0 0.2 0 0 0.24 0 0 0.28 0 0 0.32 0 0 0.36 0 0 0.4 0 0 0.44 0 0 0.48 0 0 0.52 0 0 0.56 0 0 0.6 0 0 0.64 0 0 0.68 0 0 0.72 0 0 0.76 0 0 0.8 0 0 0.84 0 0 0.88 0 0 0.92 0 0 0.96 0 0 1 0 0 1.04 0 0 1.08 0 0 1.12 0 0 1.16 0 0 1.2 0 0 0 0.04 0 0.04 0.04 0 0.08 0.04 0 0.12 0.04 0 0.16 0.04 0 0.2 0.04 0 0.24 0.04 0 0.28 0.04 0 0.32 0.04 0 0.36 0.04 0 0.4 0.04 0 0.44 0.04 0 0.48 0.04 0 0.52 0.04 0 0.56 0.04 0 0.6 0.04 0 0.64 0.04 0 0.68 0.04 0 0.72 0.04 0 0.76 0.04 0 0.8 0.04 0 0.84 0.04 0 0.88 0.04 0 0.92 0.04 0 0.96 0.04 0 1 0.04 0 1.04 0.04 0 1.08 0.04 0 1.12 0.04 0 1.16 0.04 0 1.2 0.04 0 0 0.08 0 0.04 0.08 0 0.08 0.08 0 0.12 0.08 0 0.16 0.08 0 0.2 0.08 0 0.24 0.08 0 0.28 0.08 0 0.32 0.08 0 0.36 0.08 0 0.4 0.08 0 0.44 0.08 0 0.48 0.08 0 0.52 0.08 0 0.56 0.08 0 0.6 0.08 0 0.64 0.08 0 0.68 0.08 0 0.72 0.08 0 0.76 0.08 0 0.8 0.08 0 0.84 0.08 0 0.88 0.08 0 0.92 0.08 0 0.96 0.08 0 1 0.08 0 1.04 0.08 0 1.08 0.08 0 1.12 0.08 0 1.16 0.08 0 1.2 0.08 0 0 0.12 0 0.04 0.12 0 0.08 0.12 0 0.12 0.12 0 0.16 0.12 0 0.2 0.12 0 0.24 0.12 0 0.28 0.12 0 0.32 0.12 0 0.36 0.12 0 0.4 0.12 0 0.44 0.12 0 0.48 0.12 0 0.52 0.12 0 0.56 0.12 0 0.6 0.12 0 0.64 0.12 0 0.68 0.12 0 0.72 0.12 0 0.76 0.12 0 0.8 0.12 0 0.84 0.12 0 0.88 0.12 0 0.92 0.12 0 0.96 0.12 0 1 0.12 0 1.04 0.12 0 1.08 0.12 0 1.12 0.12 0 1.16 0.12 0 1.2 0.12 0 0 0.16 0 0.04 0.16 0 0.08 0.16 0 0.12 0.16 0 0.16 0.16 0 0.2 0.16 0 0.24 0.16 0 0.28 0.16 0 0.32 0.16 0 0.36 0.16 0 0.4 0.16 0 0.44 0.16 0 0.48 0.16 0 0.52 0.16 0 0.56 0.16 0 0.6 0.16 0 0.64 0.16 0 0.68 0.16 0 0.72 0.16 0 0.76 0.16 0 0.8 0.16 0 0.84 0.16 0 0.88 0.16 0 0.92 0.16 0 0.96 0.16 0 1 0.16 0 1.04 0.16 0 1.08 0.16 0 1.12 0.16 0 1.16 0.16 0 1.2 0.16 0 0 0.2 0 0.04 0.2 0 0.08 0.2 0 0.12 0.2 0 0.16 0.2 0 0.2 0.2 0 0.24 0.2 0 0.28 0.2 0 0.32 0.2 0 0.36 0.2 0 0.4 0.2 0 0.44 0.2 0 0.48 0.2 0 0.52 0.2 0 0.56 0.2 0 0.6 0.2 0 0.64 0.2 0 0.68 0.2 0 0.72 0.2 0 0.76 0.2 0 0.8 0.2 0 0.84 0.2 0 0.88 0.2 0 0.92 0.2 0 0.96 0.2 0 1 0.2 0 1.04 0.2 0 1.08 0.2 0 1.12 0.2 0 1.16 0.2 0 1.2 0.2 0 0 0.24 0 0.04 0.24 0 0.08 0.24 0 0.12 0.24 0 0.16 0.24 0 0.2 0.24 0 0.24 0.24 0 0.28 0.24 0 0.32 0.24 0 0.36 0.24 0 0.4 0.24 0 0.44 0.24 0 0.48 0.24 0 0.52 0.24 0 0.56 0.24 0 0.6 0.24 0 0.64 0.24 0 0.68 0.24 0 0.72 0.24 0 0.76 0.24 0 0.8 0.24 0 0.84 0.24 0 0.88 0.24 0 0.92 0.24 0 0.96 0.24 0 1 0.24 0 1.04 0.24 0 1.08 0.24 0 1.12 0.24 0 1.16 0.24 0 1.2 0.24 0 0 0.28 0 0.04 0.28 0 0.08 0.28 0 0.12 0.28 0 0.16 0.28 0 0.2 0.28 0 0.24 0.28 0 0.28 0.28 0 0.32 0.28 0 0.36 0.28 0 0.4 0.28 0 0.44 0.28 0 0.48 0.28 0 0.52 0.28 0 0.56 0.28 0 0.6 0.28 0 0.64 0.28 0 0.68 0.28 0 0.72 0.28 0 0.76 0.28 0 0.8 0.28 0 0.84 0.28 0 0.88 0.28 0 0.92 0.28 0 0.96 0.28 0 1 0.28 0 1.04 0.28 0 1.08 0.28 0 1.12 0.28 0 1.16 0.28 0 1.2 0.28 0 0 0.32 0 0.04 0.32 0 0.08 0.32 0 0.12 0.32 0 0.16 0.32 0 0.2 0.32 0 0.24 0.32 0 0.28 0.32 0 0.32 0.32 0 0.36 0.32 0 0.4 0.32 0 0.44 0.32 0 0.48 0.32 0 0.52 0.32 0 0.56 0.32 0 0.6 0.32 0 0.64 0.32 0 0.68 0.32 0 0.72 0.32 0 0.76 0.32 0 0.8 0.32 0 0.84 0.32 0 0.88 0.32 0 0.92 0.32 0 0.96 0.32 0 1 0.32 0 1.04 0.32 0 1.08 0.32 0 1.12 0.32 0 1.16 0.32 0 1.2 0.32 0 0 0.36 0 0.04 0.36 0 0.08 0.36 0 0.12 0.36 0 0.16 0.36 0 0.2 0.36 0 0.24 0.36 0 0.28 0.36 0 0.32 0.36 0 0.36 0.36 0 0.4 0.36 0 0.44 0.36 0 0.48 0.36 0 0.52 0.36 0 0.56 0.36 0 0.6 0.36 0 0.64 0.36 0 0.68 0.36 0 0.72 0.36 0 0.76 0.36 0 0.8 0.36 0 0.84 0.36 0 0.88 0.36 0 0.92 0.36 0 0.96 0.36 0 1 0.36 0 1.04 0.36 0 1.08 0.36 0 1.12 0.36 0 1.16 0.36 0 1.2 0.36 0 0 0.4 0 0.04 0.4 0 0.08 0.4 0 0.12 0.4 0 0.16 0.4 0 0.2 0.4 0 0.24 0.4 0 0.28 0.4 0 0.32 0.4 0 0.36 0.4 0 0.4 0.4 0 0.44 0.4 0 0.48 0.4 0 0.52 0.4 0 0.56 0.4 0 0.6 0.4 0 0.64 0.4 0 0.68 0.4 0 0.72 0.4 0 0.76 0.4 0 0.8 0.4 0 0.84 0.4 0 0.88 0.4 0 0.92 0.4 0 0.96 0.4 0 1 0.4 0 1.04 0.4 0 1.08 0.4 0 1.12 0.4 0 1.16 0.4 0 1.2 0.4 0 0 0.44 0 0.04 0.44 0 0.08 0.44 0 0.12 0.44 0 0.16 0.44 0 0.2 0.44 0 0.24 0.44 0 0.28 0.44 0 0.32 0.44 0 0.36 0.44 0 0.4 0.44 0 0.44 0.44 0 0.48 0.44 0 0.52 0.44 0 0.56 0.44 0 0.6 0.44 0 0.64 0.44 0 0.68 0.44 0 0.72 0.44 0 0.76 0.44 0 0.8 0.44 0 0.84 0.44 0 0.88 0.44 0 0.92 0.44 0 0.96 0.44 0 1 0.44 0 1.04 0.44 0 1.08 0.44 0 1.12 0.44 0 1.16 0.44 0 1.2 0.44 0 0 0.48 0 0.04 0.48 0 0.08 0.48 0 0.12 0.48 0 0.16 0.48 0 0.2 0.48 0 0.24 0.48 0 0.28 0.48 0 0.32 0.48 0 0.36 0.48 0 0.4 0.48 0 0.44 0.48 0 0.48 0.48 0 0.52 0.48 0 0.56 0.48 0 0.6 0.48 0 0.64 0.48 0 0.68 0.48 0 0.72 0.48 0 0.76 0.48 0 0.8 0.48 0 0.84 0.48 0 0.88 0.48 0 0.92 0.48 0 0.96 0.48 0 1 0.48 0 1.04 0.48 0 1.08 0.48 0 1.12 0.48 0 1.16 0.48 0 1.2 0.48 0 0 0.52 0 0.04 0.52 0 0.08 0.52 0 0.12 0.52 0 0.16 0.52 0 0.2 0.52 0 0.24 0.52 0 0.28 0.52 0 0.32 0.52 0 0.36 0.52 0 0.4 0.52 0 0.44 0.52 0 0.48 0.52 0 0.52 0.52 0 0.56 0.52 0 0.6 0.52 0 0.64 0.52 0 0.68 0.52 0 0.72 0.52 0 0.76 0.52 0 0.8 0.52 0 0.84 0.52 0 0.88 0.52 0 0.92 0.52 0 0.96 0.52 0 1 0.52 0 1.04 0.52 0 1.08 0.52 0 1.12 0.52 0 1.16 0.52 0 1.2 0.52 0 0 0.56 0 0.04 0.56 0 0.08 0.56 0 0.12 0.56 0 0.16 0.56 0 0.2 0.56 0 0.24 0.56 0 0.28 0.56 0 0.32 0.56 0 0.36 0.56 0 0.4 0.56 0 0.44 0.56 0 0.48 0.56 0 0.52 0.56 0 0.56 0.56 0 0.6 0.56 0 0.64 0.56 0 0.68 0.56 0 0.72 0.56 0 0.76 0.56 0 0.8 0.56 0 0.84 0.56 0 0.88 0.56 0 0.92 0.56 0 0.96 0.56 0 1 0.56 0 1.04 0.56 0 1.08 0.56 0 1.12 0.56 0 1.16 0.56 0 1.2 0.56 0 0 0.6 0 0.04 0.6 0 0.08 0.6 0 0.12 0.6 0 0.16 0.6 0 0.2 0.6 0 0.24 0.6 0 0.28 0.6 0 0.32 0.6 0 0.36 0.6 0 0.4 0.6 0 0.44 0.6 0 0.48 0.6 0 0.52 0.6 0 0.56 0.6 0 0.6 0.6 0 0.64 0.6 0 0.68 0.6 0 0.72 0.6 0 0.76 0.6 0 0.8 0.6 0 0.84 0.6 0 0.88 0.6 0 0.92 0.6 0 0.96 0.6 0 1 0.6 0 1.04 0.6 0 1.08 0.6 0 1.12 0.6 0 1.16 0.6 0 1.2 0.6 0 0 0.64 0 0.04 0.64 0 0.08 0.64 0 0.12 0.64 0 0.16 0.64 0 0.2 0.64 0 0.24 0.64 0 0.28 0.64 0 0.32 0.64 0 0.36 0.64 0 0.4 0.64 0 0.44 0.64 0 0.48 0.64 0 0.52 0.64 0 0.56 0.64 0 0.6 0.64 0 0.64 0.64 0 0.68 0.64 0 0.72 0.64 0 0.76 0.64 0 0.8 0.64 0 0.84 0.64 0 0.88 0.64 0 0.92 0.64 0 0.96 0.64 0 1 0.64 0 1.04 0.64 0 1.08 0.64 0 1.12 0.64 0 1.16 0.64 0 1.2 0.64 0 0 0.68 0 0.04 0.68 0 0.08 0.68 0 0.12 0.68 0 0.16 0.68 0 0.2 0.68 0 0.24 0.68 0 0.28 0.68 0 0.32 0.68 0 0.36 0.68 0 0.4 0.68 0 0.44 0.68 0 0.48 0.68 0 0.52 0.68 0 0.56 0.68 0 0.6 0.68 0 0.64 0.68 0 0.68 0.68 0 0.72 0.68 0 0.76 0.68 0 0.8 0.68 0 0.84 0.68 0 0.88 0.68 0 0.92 0.68 0 0.96 0.68 0 1 0.68 0 1.04 0.68 0 1.08 0.68 0 1.12 0.68 0 1.16 0.68 0 1.2 0.68 0 0 0.72 0 0.04 0.72 0 0.08 0.72 0 0.12 0.72 0 0.16 0.72 0 0.2 0.72 0 0.24 0.72 0 0.28 0.72 0 0.32 0.72 0 0.36 0.72 0 0.4 0.72 0 0.44 0.72 0 0.48 0.72 0 0.52 0.72 0 0.56 0.72 0 0.6 0.72 0 0.64 0.72 0 0.68 0.72 0 0.72 0.72 0 0.76 0.72 0 0.8 0.72 0 0.84 0.72 0 0.88 0.72 0 0.92 0.72 0 0.96 0.72 0 1 0.72 0 1.04 0.72 0 1.08 0.72 0 1.12 0.72 0 1.16 0.72 0 1.2 0.72 0 0 0.76 0 0.04 0.76 0 0.08 0.76 0 0.12 0.76 0 0.16 0.76 0 0.2 0.76 0 0.24 0.76 0 0.28 0.76 0 0.32 0.76 0 0.36 0.76 0 0.4 0.76 0 0.44 0.76 0 0.48 0.76 0 0.52 0.76 0 0.56 0.76 0 0.6 0.76 0 0.64 0.76 0 0.68 0.76 0 0.72 0.76 0 0.76 0.76 0 0.8 0.76 0 0.84 0.76 0 0.88 0.76 0 0.92 0.76 0 0.96 0.76 0 1 0.76 0 1.04 0.76 0 1.08 0.76 0 1.12 0.76 0 1.16 0.76 0 1.2 0.76 0 0 0.8 0 0.04 0.8 0 0.08 0.8 0 0.12 0.8 0 0.16 0.8 0 0.2 0.8 0 0.24 0.8 0 0.28 0.8 0 0.32 0.8 0 0.36 0.8 0 0.4 0.8 0 0.44 0.8 0 0.48 0.8 0 0.52 0.8 0 0.56 0.8 0 0.6 0.8 0 0.64 0.8 0 0.68 0.8 0 0.72 0.8 0 0.76 0.8 0 0.8 0.8 0 0.84 0.8 0 0.88 0.8 0 0.92 0.8 0 0.96 0.8 0 1 0.8 0 1.04 0.8 0 1.08 0.8 0 1.12 0.8 0 1.16 0.8 0 1.2 0.8 0 0 0.84 0 0.04 0.84 0 0.08 0.84 0 0.12 0.84 0 0.16 0.84 0 0.2 0.84 0 0.24 0.84 0 0.28 0.84 0 0.32 0.84 0 0.36 0.84 0 0.4 0.84 0 0.44 0.84 0 0.48 0.84 0 0.52 0.84 0 0.56 0.84 0 0.6 0.84 0 0.64 0.84 0 0.68 0.84 0 0.72 0.84 0 0.76 0.84 0 0.8 0.84 0 0.84 0.84 0 0.88 0.84 0 0.92 0.84 0 0.96 0.84 0 1 0.84 0 1.04 0.84 0 1.08 0.84 0 1.12 0.84 0 1.16 0.84 0 1.2 0.84 0 0 0.88 0 0.04 0.88 0 0.08 0.88 0 0.12 0.88 0 0.16 0.88 0 0.2 0.88 0 0.24 0.88 0 0.28 0.88 0 0.32 0.88 0 0.36 0.88 0 0.4 0.88 0 0.44 0.88 0 0.48 0.88 0 0.52 0.88 0 0.56 0.88 0 0.6 0.88 0 0.64 0.88 0 0.68 0.88 0 0.72 0.88 0 0.76 0.88 0 0.8 0.88 0 0.84 0.88 0 0.88 0.88 0 0.92 0.88 0 0.96 0.88 0 1 0.88 0 1.04 0.88 0 1.08 0.88 0 1.12 0.88 0 1.16 0.88 0 1.2 0.88 0 0 0.92 0 0.04 0.92 0 0.08 0.92 0 0.12 0.92 0 0.16 0.92 0 0.2 0.92 0 0.24 0.92 0 0.28 0.92 0 0.32 0.92 0 0.36 0.92 0 0.4 0.92 0 0.44 0.92 0 0.48 0.92 0 0.52 0.92 0 0.56 0.92 0 0.6 0.92 0 0.64 0.92 0 0.68 0.92 0 0.72 0.92 0 0.76 0.92 0 0.8 0.92 0 0.84 0.92 0 0.88 0.92 0 0.92 0.92 0 0.96 0.92 0 1 0.92 0 1.04 0.92 0 1.08 0.92 0 1.12 0.92 0 1.16 0.92 0 1.2 0.92 0 0 0.96 0 0.04 0.96 0 0.08 0.96 0 0.12 0.96 0 0.16 0.96 0 0.2 0.96 0 0.24 0.96 0 0.28 0.96 0 0.32 0.96 0 0.36 0.96 0 0.4 0.96 0 0.44 0.96 0 0.48 0.96 0 0.52 0.96 0 0.56 0.96 0 0.6 0.96 0 0.64 0.96 0 0.68 0.96 0 0.72 0.96 0 0.76 0.96 0 0.8 0.96 0 0.84 0.96 0 0.88 0.96 0 0.92 0.96 0 0.96 0.96 0 1 0.96 0 1.04 0.96 0 1.08 0.96 0 1.12 0.96 0 1.16 0.96 0 1.2 0.96 0 0 1 0 0.04 1 0 0.08 1 0 0.12 1 0 0.16 1 0 0.2 1 0 0.24 1 0 0.28 1 0 0.32 1 0 0.36 1 0 0.4 1 0 0.44 1 0 0.48 1 0 0.52 1 0 0.56 1 0 0.6 1 0 0.64 1 0 0.68 1 0 0.72 1 0 0.76 1 0 0.8 1 0 0.84 1 0 0.88 1 0 0.92 1 0 0.96 1 0 1 1 0 1.04 1 0 1.08 1 0 1.12 1 0 1.16 1 0 1.2 1 0 0 1.04 0 0.04 1.04 0 0.08 1.04 0 0.12 1.04 0 0.16 1.04 0 0.2 1.04 0 0.24 1.04 0 0.28 1.04 0 0.32 1.04 0 0.36 1.04 0 0.4 1.04 0 0.44 1.04 0 0.48 1.04 0 0.52 1.04 0 0.56 1.04 0 0.6 1.04 0 0.64 1.04 0 0.68 1.04 0 0.72 1.04 0 0.76 1.04 0 0.8 1.04 0 0.84 1.04 0 0.88 1.04 0 0.92 1.04 0 0.96 1.04 0 1 1.04 0 1.04 1.04 0 1.08 1.04 0 1.12 1.04 0 1.16 1.04 0 1.2 1.04 0 0 1.08 0 0.04 1.08 0 0.08 1.08 0 0.12 1.08 0 0.16 1.08 0 0.2 1.08 0 0.24 1.08 0 0.28 1.08 0 0.32 1.08 0 0.36 1.08 0 0.4 1.08 0 0.44 1.08 0 0.48 1.08 0 0.52 1.08 0 0.56 1.08 0 0.6 1.08 0 0.64 1.08 0 0.68 1.08 0 0.72 1.08 0 0.76 1.08 0 0.8 1.08 0 0.84 1.08 0 0.88 1.08 0 0.92 1.08 0 0.96 1.08 0 1 1.08 0 1.04 1.08 0 1.08 1.08 0 1.12 1.08 0 1.16 1.08 0 1.2 1.08 0 0 1.12 0 
[...]
			<CellData Scalars="Density">
				<DataArray Name="Density" type="Float32" format="ascii">
 0.00332993 0.00337131 0.00347137 0.00366121 0.00397455 0.00444227 0.0050926 0.00595148 0.00704601 0.00840704 0.0100712 0.0120845 0.0145104 0.0174633 0.0211823 0.0261444 0.0332657 0.0438994 0.0594868 0.082638 0.118152 0.175302 0.270933 0.428135 0.677902 1.04659 1.58066 2.38259 3.29296 3.81974 0.00337139 0.00340635 0.00349374 0.0036676 0.00396392 0.00441588 0.00505411 0.00590797 0.00700939 0.00839674 0.0101173 0.012225 0.0147922 0.0179406 0.0219206 0.0272345 0.034768 0.0460041 0.0623861 0.0863803 0.122436 0.179243 0.272955 0.426877 0.675496 1.04697 1.58241 2.38917 3.30907 3.83986 0.00347161 0.0034939 0.0035539 0.00368887 0.00392876 0.00430303 0.00485087 0.00560653 0.00660379 0.0078783 0.00947062 0.011432 0.0138314 0.0167831 0.0205168 0.0254812 0.0324924 0.0429001 0.0580887 0.0806831 0.115174 0.170854 0.264287 0.416996 0.662454 1.03206 1.57116 2.38609 3.35671 3.94602 0.00366162 0.00366791 0.00368897 0.0037736 0.00396047 0.00427371 0.00472807 0.00535558 0.00619995 0.00730819 0.0087317 0.0105288 0.0127801 0.015611 0.0192483 0.0241309 0.0310934 0.04134 0.0562012 0.0782575 0.111658 0.164557 0.252564 0.39765 0.635962 1.00151 1.54151 2.36462 3.34936 3.94647 0.00397508 0.00396422 0.00392872 0.00396035 0.00408679 0.00434287 0.00475523 0.00534841 0.00615428 0.00722347 0.00861773 0.0104092 0.0126871 0.0155798 0.0193051 0.0242917 0.0313686 0.0417719 0.0571222 0.0799975 0.114298 0.167601 0.255333 0.398151 0.629904 0.985686 1.5175 2.33733 3.3253 3.92885 0.00444283 0.00441601 0.0043026 0.00427318 0.00434251 0.00453725 0.00489664 0.00544799 0.00622722 0.0072821 0.00867558 0.0104884 0.0128206 0.0158159 0.0197124 0.0249243 0.032317 0.0431421 0.0590401 0.0823629 0.116974 0.169771 0.254719 0.391694 0.613317 0.95597 1.47477 2.28368 3.2598 3.84433 0.00509316 0.00505397 0.0048498 0.00472685 0.00475423 0.004896 0.00521058 0.00573011 0.00649142 0.00754738 0.00896942 0.0108524 0.0133164 0.0165269 0.0207245 0.0262992 0.0340476 0.0453119 0.0620497 0.0866983 0.122886 0.176591 0.259364 0.391385 0.604125 0.930167 1.42448 2.20112 3.17088 3.77321 0.00595204 0.00590751 0.00560475 0.00535348 0.00534659 0.00544652 0.00572918 0.006233 0.00699638 0.00807854 0.00956168 0.0115568 0.0142054 0.0176908 0.0222623 0.0282967 0.0364557 0.0479361 0.0651745 0.0909861 0.128573 0.182737 0.263766 0.390509 0.592455 0.90323 1.37754 2.13344 3.11066 3.72282 0.00704657 0.00700858 0.00660142 0.00619698 0.00615168 0.00622484 0.00648946 0.00699513 0.00778061 0.00891257 0.0104824 0.0126176 0.0154794 0.0192672 0.0242378 0.0307379 0.0393071 0.0509991 0.067954 0.0936507 0.132238 0.188585 0.271221 0.395666 0.589823 0.886989 1.34137 2.0883 3.1156 3.78838 0.00840758 0.00839541 0.00787573 0.00730463 0.00722034 0.00727906 0.00754449 0.00807602 0.00891101 0.0101225 0.0118123 0.0141259 0.0172421 0.0213766 0.0267946 0.0338285 0.0429501 0.0549555 0.0716065 0.0964181 0.135071 0.19323 0.277262 0.400662 0.590079 0.880133 1.32512 2.0762 3.18382 3.96586 0.0100717 0.0101154 0.0094681 0.00872801 0.0086144 0.00867235 0.00896588 0.00955821 0.0104795 0.0118103 0.0136656 0.0162113 0.0196489 0.0242161 0.0301889 0.0378945 0.0477822 0.0604961 0.0772914 0.100845 0.137091 0.194981 0.282852 0.409371 0.596929 0.882788 1.32545 2.08518 3.31926 4.29075 0.0120849 0.0122227 0.0114297 0.0105254 0.0104062 0.0104853 0.0108485 0.0115528 0.0126132 0.0141215 0.0162074 0.0190651 0.0229277 0.0280583 0.0347585 0.043365 0.0542984 0.0681205 0.0857022 0.109073 0.142905 0.196161 0.283189 0.415477 0.608599 0.897442 1.3423 2.10874 3.48581 4.72496 0.0145108 0.0147895 0.0138296 0.0127775 0.0126849 0.0128175 0.0133126 0.0142006 0.0154737 0.0172341 0.0196384 0.0229167 0.02734 0.0332098 0.0408606 0.0506489 0.062969 0.0783446 0.0975025 0.121743 0.153818 0.20209 0.282002 0.415662 0.621698 0.927634 1.38999 2.17429 3.6704 5.21371 0.0174634 0.0179372 0.0167818 0.0156095 0.0155786 0.0158134 0.0165225 0.0176847 0.019259 0.0213629 0.0241949 0.028029 0.0331845 0.0400173 0.0488858 0.0601531 0.0742145 0.0915782 0.11284 0.138985 0.172099 0.217124 0.285992 0.406684 0.616912 0.947031 1.45837 2.28844 3.88257 5.74693 0.0211811 0.0219157 0.0205154 0.0192483 0.0193048 0.0197098 0.0207177 0.0222557 0.0242238 0.0267748 0.0301536 0.0347043 0.0407984 0.0488359 0.0592458 0.0723803 0.0886172 0.108435 0.132261 0.161098 0.196466 0.241272 0.303723 0.406198 0.594479 0.939881 1.50133 2.41511 4.10888 6.32286 0.0261412 0.0272271 0.0254788 0.0241313 0.0242918 0.0249204 0.0262947 0.0282863 0.0307191 0.033802 0.0378437 0.0432814 0.0505391 0.0600423 0.0722994 0.0876616 0.106517 0.129299 0.156436 0.188612 0.226971 0.27435 0.336027 0.424138 0.579805 0.892758 1.49405 2.50217 4.30158 6.95562 0.0332559 0.0347554 0.0324873 0.0310948 0.031368 0.0323072 0.0340436 0.0364381 0.039294 0.0429127 0.0477147 0.054183 0.0628068 0.0740296 0.088457 0.106398 0.128265 0.154445 0.185414 0.221947 0.264731 0.315935 0.379639 0.465152 0.596954 0.849673 1.41401 2.49097 4.34932 7.58391 0.0438892 0.0459898 0.0428966 0.0413455 0.0417717 0.043141 0.0453188 0.0479297 0.0509881 0.054915 0.060427 0.067967 0.0781341 0.0913145 0.10818 0.129102 0.154296 0.184297 0.219546 0.260859 0.309475 0.366775 0.435982 0.523884 0.647651 0.85789 1.31679 2.38106 4.34749 8.20888 0.0594793 0.062375 0.0580896 0.056211 0.0571286 0.0590524 0.0620585 0.0651963 0.0679292 0.0715952 0.07719 0.0855391 0.0972707 0.11254 0.131911 0.156143 0.185218 0.219396 0.259503 0.306229 0.36115 0.426415 0.504656 0.60117 0.728437 0.920194 1.29669 2.2206 4.31001 8.71501 0.082641 0.0863823 0.0806925 0.0782739 0.0800197 0.0823901 0.0867301 0.09102 0.093659 0.0964294 0.100718 0.108957 0.121485 0.13871 0.160766 0.188247 0.221675 0.260726 0.306126 0.359238 0.421479 0.495743 0.585875 0.696679 0.838224 1.03517 1.37103 2.16 4.30462 8.93762 0.118173 0.122458 0.115201 0.111685 0.114337 0.117018 0.122951 0.128639 0.132389 0.135104 0.137164 0.142869 0.153655 0.171891 0.196144 0.226673 0.264407 0.309295 0.361119 0.421444 0.49282 0.577946 0.68228 0.812794 0.978645 1.2036 1.54802 2.27346 4.29803 8.83933 0.175348 0.179292 0.170907 0.164593 0.167644 0.16982 0.176677 0.182834 0.188775 0.193288 0.195231 0.195999 0.202023 0.216865 0.241118 0.274204 0.315754 0.366573 0.426368 0.495811 0.577985 0.677541 0.799797 0.955276 1.15775 1.43067 1.83188 2.60775 4.29891 8.29573 0.271027 0.273054 0.264392 0.252631 0.255399 0.254775 0.259442 0.263839 0.271355 0.277374 0.283016 0.283055 0.282147 0.285891 0.303843 0.335883 0.379588 0.43597 0.504654 0.58598 0.682433 0.799906 0.947257 1.13678 1.38868 1.73356 2.27144 3.22723 4.3058 7.20282 0.428305 0.427052 0.417177 0.397781 0.398275 0.391794 0.391484 0.390587 0.395773 0.40077 0.40959 0.415691 0.415761 0.406697 0.406281 0.424137 0.465275 0.524021 0.601328 0.696868 0.813018 0.955469 1.13695 1.37675 1.69777 2.1829 2.9384 3.88596 4.21953 5.5343 0.678182 0.675788 0.662742 0.6362 0.630122 0.613494 0.604269 0.592548 0.589917 0.590133 0.597059 0.608727 0.621776 0.617335 0.594859 0.580015 0.597037 0.647872 0.728701 0.838521 0.978981 1.15806 1.3889 1.69806 2.14977 2.8995 3.72805 4.13733 4.01785 3.46686 1.04697 1.04737 1.03246 1.00187 0.98603 0.956278 0.930419 0.903405 0.887125 0.880133 0.882786 0.897344 0.927448 0.947108 0.939993 0.893051 0.850047 0.858414 0.920513 1.03552 1.20395 1.43109 1.73391 2.18316 2.89989 3.71357 4.11368 4.17871 3.30065 1.85594 1.58112 1.5829 1.57166 1.542 1.51799 1.47524 1.42488 1.37785 1.34161 1.32516 1.32549 1.3422 1.38971 1.45805 1.50114 1.49409 1.41425 1.31716 1.29696 1.37137 1.54835 1.83221 2.27197 2.93889 3.72816 4.11383 4.10646 3.43207 1.80352 1.19215 2.38309 2.3897 2.38666 2.3652 2.33797 2.2843 2.20168 2.13387 2.08862 2.07624 2.08518 2.10852 2.17376 2.28762 2.41438 2.50178 2.49094 2.38139 2.22088 2.16024 2.27375 2.60805 3.22757 3.88641 4.13753 4.17854 3.43261 1.88617 1.18457 1.04495 3.29351 3.30967 3.35738 3.35014 3.32618 3.26068 3.17174 3.11137 3.11613 3.18395 3.31902 3.48521 3.66948 3.88138 4.10773 4.30101 4.34944 4.34791 4.31054 4.30495 4.29815 4.29907 4.30611 4.21934 4.01801 3.30073 1.8034 1.18457 1.04753 1.00645 3.8203 3.84048 3.94674 3.94742 3.92992 3.84544 3.77434 3.72377 3.7891 3.96607 4.29019 4.72374 5.2122 5.74554 6.32186 6.95542 7.58466 8.20993 8.71582 8.93814 8.83947 8.29561 7.20286 5.53408 3.46666 1.85599 1.19211 1.04496 1.00644 1.00026
				</DataArray>
				<DataArray Name="Energy" type="Float32" format="ascii">
 773.111 763.211 741.343 703.079 647.872 579.917 506.201 433.588 366.774 308.086 258.045 216.144 181.4 152.715 129.057 109.435 92.9358 78.445 64.8744 52.0106 40.0743 29.5229 20.8627 14.3063 9.72356 6.73066 4.83125 3.56269 2.83384 2.54185 763.191 754.846 735.996 701.204 648.948 582.734 509.419 436.144 368.057 307.817 256.189 212.925 177.155 147.8 123.811 104.158 87.8316 73.826 61.0068 49.0347 37.9939 28.2521 20.1291 13.8534 9.41024 6.49047 4.6578 3.46627 2.77969 2.50311 741.29 735.96 723.629 697.267 654.865 598.152 530.932 459.807 390.894 328.3 273.928 228.003 189.886 158.539 132.862 111.758 94.2299 79.2163 65.4983 52.6685 40.7098 30.0643 21.2279 14.496 9.80144 6.72618 4.79073 3.51488 2.777 2.49016 702.996 701.144 697.246 681.716 649.706 602.303 544.703 481.217 416.139 353.636 296.748 247.027 204.781 169.538 140.53 116.841 97.4135 80.9393 66.2228 52.9301 40.9523 30.473 21.7046 14.8519 9.98768 6.7918 4.8008 3.51182 2.7645 2.47114 647.782 648.896 654.871 649.721 629.761 592.82 541.701 482 419.352 357.838 300.656 249.846 206.286 169.927 140.093 115.736 95.7946 79.0845 64.5454 51.656 40.1487 30.1241 21.7596 15.1181 10.2736 7.01176 4.9355 3.58396 2.8025 2.49941 579.84 582.713 598.209 602.376 592.867 567.554 526.104 473.135 414.282 354.725 298.337 247.594 203.637 166.603 136.005 111.086 90.9537 74.5016 60.6811 48.7738 38.345 29.2424 21.5164 15.2282 10.4856 7.19317 5.05163 3.64865 2.8413 2.52651 506.14 509.43 531.044 544.841 541.813 526.169 494.538 449.898 397.413 342.17 288.4 239.017 195.648 158.862 128.469 103.857 84.2561 68.6419 56.0024 45.4558 36.3918 28.4158 21.3783 15.4503 10.7946 7.48149 5.27177 3.8028 2.93637 2.59841 433.542 436.173 459.949 481.402 482.161 473.261 449.968 413.694 368.737 319.581 270.355 224.148 182.983 147.814 118.736 95.303 76.7848 62.306 50.9691 41.6968 33.7999 26.9146 20.8155 15.5021 11.087 7.7851 5.49351 3.94108 3.00219 2.63604 366.738 368.094 391.029 416.333 419.525 414.436 397.533 368.799 331.618 289.635 246.469 205.057 167.578 135.244 108.393 86.7298 69.6264 56.396 46.2414 38.2519 31.5389 25.603 20.3195 15.5636 11.3643 8.08407 5.72851 4.07616 3.03901 2.64596 308.058 307.859 328.401 353.801 357.989 354.867 342.299 319.676 289.683 255.036 218.637 183.001 150.192 121.521 97.5087 78.0415 62.6096 50.5862 41.3998 34.4394 28.8974 24.0153 19.5057 15.3556 11.5545 8.36948 5.95817 4.19927 3.05979 2.62949 258.023 256.227 273.992 296.864 300.763 298.444 288.505 270.448 246.536 218.669 188.977 159.36 131.618 107.023 86.1853 69.1368 55.5395 44.8833 36.6497 30.3852 25.6952 21.9482 18.4108 14.9397 11.6206 8.60471 6.17513 4.34055 3.07874 2.593 216.125 212.954 228.037 247.094 249.907 247.66 239.089 224.224 205.123 183.055 159.398 135.478 112.704 92.2075 74.6244 60.0985 48.4134 39.1837 31.9753 26.4468 22.3069 19.2189 16.7277 14.1678 11.4191 8.73955 6.39789 4.50682 3.11645 2.56294 181.38 177.174 189.894 204.805 206.307 203.667 195.694 183.038 167.64 150.257 131.69 112.754 94.4891 77.826 63.3579 51.2804 41.4784 33.6822 27.5545 22.769 19.0713 16.3505 14.4031 12.7829 10.8686 8.66302 6.537 4.65737 3.18337 2.55171 152.692 147.807 158.526 169.527 169.918 166.608 158.89 147.856 135.299 121.589 107.118 92.3014 77.8853 64.6021 52.9442 43.1127 35.0596 28.6069 23.4883 19.4554 16.3014 13.8635 12.0527 10.8173 9.76017 8.2853 6.47773 4.76758 3.27644 2.5564 129.028 123.806 132.831 140.495 140.063 135.992 128.477 118.769 108.432 97.5783 86.2808 74.7396 63.4559 52.9942 43.7479 35.8864 29.3885 24.1341 19.9246 16.5766 13.9133 11.7942 10.1543 8.95388 8.17494 7.45988 6.23415 4.77001 3.37288 2.56744 109.403 104.145 111.717 116.791 115.695 111.06 103.855 95.3187 86.7586 78.1025 69.2261 60.2129 51.3932 43.1925 35.9233 29.7053 24.5285 20.302 16.8846 14.1351 11.9129 10.1199 8.67645 7.53678 6.71552 6.25432 5.71212 4.6689 3.46371 2.58532 92.9013 87.8116 94.185 97.3605 95.7479 90.9154 84.2429 76.7775 69.6507 62.653 55.6177 48.514 41.5858 35.1483 29.4455 24.5511 20.4539 17.0806 14.3251 12.0835 10.2492 8.74173 7.49606 6.47886 5.67994 5.13651 4.87837 4.38946 3.47422 2.59105 78.4179 73.8072 79.1786 80.8937 79.0403 74.4639 68.6174 62.286 56.3945 50.6093 44.9426 39.2589 33.7723 28.6848 24.1931 20.3359 17.0923 14.4051 12.1897 10.3661 8.85844 7.59933 6.54112 5.65178 4.91626 4.34844 4.03177 3.86858 3.40487 2.57649 64.855 60.9918 65.4705 66.1887 64.5113 60.646 55.9681 50.938 46.2096 41.4123 36.6729 32.0282 27.6197 23.5495 19.9721 16.9172 14.3425 12.1949 10.4121 8.92822 7.68643 6.63919 5.74355 4.97456 4.32315 3.78763 3.39597 3.25145 3.19566 2.51816 51.9985 49.0249 52.651 52.9096 51.6351 48.7462 45.4249 41.6589 38.2188 34.4313 30.3798 26.4843 22.8042 19.4986 16.6101 14.1583 12.0981 10.3734 8.92971 7.71915 6.69339 5.81814 5.06271 4.40378 3.82699 3.3421 2.9578 2.72173 2.82728 2.39372 40.0672 37.9876 40.7 40.9431 40.1385 38.3292 36.3712 33.7738 31.5091 28.8749 25.6927 22.3174 19.0889 16.326 13.9317 11.9275 10.2574 8.86318 7.68827 6.69329 5.8436 5.10886 4.46778 3.90472 3.40311 2.96448 2.60501 2.34602 2.38212 2.16531 29.519 28.2482 30.059 30.47 30.1208 29.2365 28.4073 26.9028 25.5821 23.996 21.9322 19.2034 16.3601 13.8677 11.8037 10.1272 8.74544 7.6002 6.63895 5.81748 5.10815 4.49016 3.94318 3.45829 3.02495 2.63765 2.29857 2.03016 1.94983 1.83445 20.861 20.1271 21.2257 21.7046 21.7601 21.5165 21.377 20.8127 20.3117 19.4947 18.399 16.7167 14.402 12.0483 10.1604 8.67562 7.49689 6.54045 5.74173 5.06097 4.46651 3.94251 3.47581 3.05689 2.6791 2.33883 2.04566 1.73739 1.587 1.41704 14.3057 13.8526 14.4952 14.8523 15.119 15.2296 15.4514 15.5034 15.5636 15.3531 14.9358 14.1633 12.7784 10.8151 8.95298 7.53356 6.47811 5.65032 4.97264 4.40171 3.90307 3.45726 3.05643 2.69576 2.36252 2.06575 1.81269 1.4701 1.30923 0.942386 9.72353 9.40998 9.80132 9.98798 10.2741 10.4864 10.7955 11.0884 11.3659 11.5557 11.6218 11.4192 10.8675 9.76037 8.17385 6.71407 5.67801 4.91453 4.32145 3.82536 3.40164 3.02391 2.67849 2.36232 2.0857 1.81571 1.50134 1.29444 1.02053 0.479141 6.73104 6.49069 6.72645 6.79223 7.01213 7.19351 7.48195 7.78574 8.08488 8.37069 8.60586 8.74049 8.66395 8.28615 7.46018 6.25344 5.13543 4.3475 3.78622 3.34094 2.96346 2.63686 2.33829 2.06544 1.8156 1.50741 1.31357 1.04876 0.573147 0.123754 4.83185 4.65834 4.79122 4.80133 4.93591 5.05193 5.27209 5.4938 5.72894 5.95896 6.17585 6.39891 6.53843 6.47939 6.23528 5.71265 4.87799 4.03082 3.39491 2.95701 2.60438 2.29811 2.04535 1.81246 1.50126 1.3136 1.07445 0.60317 0.144054 0.00663626 3.56328 3.46684 3.51537 3.51234 3.58438 3.64898 3.80314 3.9414 4.07651 4.19972 4.34091 4.50729 4.65813 4.76875 4.7712 4.66964 4.38979 3.86817 3.25075 2.7212 2.34571 2.02994 1.73723 1.47001 1.29442 1.04875 0.603181 0.158203 0.00825476 6.12694e-05 2.83432 2.78014 2.77741 2.76491 2.8028 2.84154 2.93661 3.00239 3.03926 3.06006 3.07912 3.11692 3.1839 3.27703 3.3734 3.464 3.47426 3.40471 3.19532 2.82693 2.38189 1.94976 1.58691 1.3092 1.02053 0.573137 0.144065 0.00825159 7.57923e-05 2.72128e-06 2.54226 2.5035 2.49051 2.47146 2.49964 2.52669 2.59858 2.63615 2.64611 2.62975 2.59339 2.56344 2.55214 2.55667 2.56755 2.5853 2.59093 2.57637 2.51806 2.39362 2.16525 1.83446 1.41704 0.942356 0.479154 0.123737 0.00663277 6.13362e-05 2.72111e-06 2.50071e-06
				</DataArray>
				<DataArray Name="F1" type="Float32" format="ascii">
 1 1 1 1 1 1 1 1 1 1 1 1 1 1 1 1 1 1 1 1 1 1 1 1 1 1 1 1 1 1 1 1 1 1 1 1 1 1 1 1 1 1 1 1 1 1 1 1 1 1 1 1 1 1 1 1 1 1 1 1 1 1 1 1 1 1 1 1 1 1 1 1 1 1 1 1 1 1 1 1 1 1 1 1 1 1 1 1 1 1 1 1 1 1 1 1 1 1 1 1 1 1 1 1 1 1 1 1 1 1 1 1 1 1 1 1 1 1 1 1 1 1 1 1 1 1 1 1 1 1 1 1 1 1 1 1 1 1 1 1 1 1 1 1 1 1 1 1 1 1 1 1 1 1 1 1 1 1 1 1 1 1 1 1 1 1 1 1 1 1 1 1 1 1 1 1 1 1 1 1 1 1 1 1 1 1 1 1 1 1 1 1 1 1 1 1 1 1 1 1 1 1 1 1 1 1 1 1 1 1 1 1 1 1 1 1 1 1 1 1 1 1 1 1 1 1 1 1 1 1 1 1 1 1 1 1 1 1 1 1 1 1 1 1 1 1 1 1 1 1 1 1 1 1 1 1 1 1 1 1 1 1 1 1 1 1 1 1 1 1 1 1 1 1 1 1 1 1 1 1 1 1 1 1 1 1 1 1 1 1 1 1 1 1 1 1 1 1 1 1 1 1 1 1 1 1 1 1 1 1 1 1 1 1 1 1 1 1 1 1 1 1 1 1 1 1 1 1 1 1 1 1 1 1 1 1 1 1 1 1 1 1 1 1 1 1 1 1 1 1 1 1 1 1 1 1 1 1 1 1 1 1 1 1 1 1 1 1 1 1 1 1 1 1 1 1 1 1 1 1 1 1 1 1 1 1 1 1 1 1 1 1 1 1 1 1 1 1 1 1 1 1 1 1 1 1 1 1 1 1 1 1 1 1 1 1 1 1 1 1 1 1 1 1 1 1 1 1 1 1 1 1 1 1 1 1 1 1 1 1 1 1 1 1 1 1 1 1 1 1 1 1 1 1 1 1 1 1 1 1 1 1 1 1 1 1 1 1 1 1 1 1 1 1 1 1 1 1 1 1 1 1 1 1 1 1 1 1 1 1 1 1 1 1 1 1 1 1 1 1 1 1 1 1 1 1 1 1 1 1 1 1 1 1 1 1 1 1 1 1 1 1 1 1 1 1 1 1 1 1 1 1 1 1 1 1 1 1 1 1 1 1 1 1 1 1 1 1 1 1 1 1 1 1 1 1 1 1 1 1 1 1 1 1 1 1 1 1 1 1 1 1 1 1 1 1 1 1 1 1 1 1 1 1 1 1 1 1 1 1 1 1 1 1 1 1 1 1 1 1 1 1 1 1 1 1 1 1 1 1 1 1 1 1 1 1 1 1 1 1 1 1 1 1 1 1 1 1 1 1 1 1 1 1 1 1 1 1 1 1 1 1 1 1 1 1 1 1 1 1 1 1 1 1 1 1 1 1 1 1 1 1 1 1 1 1 1 1 1 1 1 1 1 1 1 1 1 1 1 1 1 1 1 1 1 1 1 1 1 1 1 1 1 1 1 1 1 1 1 1 1 1 1 1 1 1 1 1 1 1 1 1 1 1 1 1 1 1 1 1 1 1 1 1 1 1 1 1 1 1 1 1 1 1 1 1 1 1 1 1 1 1 1 1 1 1 1 1 1 1 1 1 1 1 1 1 1 1 1 1 1 1 1 1 1 1 1 1 1 1 1 1 1 1 1 1 1 1 1 1 1 1 1 1 1 1 1 1 1 1 1 1 1 1 1 1 1 1 1 1 1 1 1 1 1 1 1 1 1 1 1 1 1 1 1 1 1 1 1 1 1 1 1 1 1 1 1 1 1 1 1 1 1 1 1 1 1 1 1 1 1 1 1 1 1 1 1 1 1 1 1 1 1 1 1 1 1 1 1 1 1 1 1 1 1 1 1 1 1 1 1 1 1 1 1 1 1 1 1 1 1 1 1 1 1 1 1 1 1 1 1 1 1 1 1 1 1 1 1 1
				</DataArray>
				<DataArray Name="F2" type="Float32" format="ascii">
 0 0 0 0 0 0 0 0 0 0 0 0 0 0 0 0 0 0 0 0 0 0 0 0 0 0 0 0 0 0 0 0 0 0 0 0 0 0 0 0 0 0 0 0 0 0 0 0 0 0 0 0 0 0 0 0 0 0 0 0 0 0 0 0 0 0 0 0 0 0 0 0 0 0 0 0 0 0 0 0 0 0 0 0 0 0 0 0 0 0 0 0 0 0 0 0 0 0 0 0 0 0 0 0 0 0 0 0 0 0 0 0 0 0 0 0 0 0 0 0 0 0 0 0 0 0 0 0 0 0 0 0 0 0 0 0 0 0 0 0 0 0 0 0 0 0 0 0 0 0 0 0 0 0 0 0 0 0 0 0 0 0 0 0 0 0 0 0 0 0 0 0 0 0 0 0 0 0 0 0 0 0 0 0 0 0 0 0 0 0 0 0 0 0 0 0 0 0 0 0 0 0 0 0 0 0 0 0 0 0 0 0 0 0 0 0 0 0 0 0 0 0 0 0 0 0 0 0 0 0 0 0 0 0 0 0 0 0 0 0 0 0 0 0 0 0 0 0 0 0 0 0 0 0 0 0 0 0 0 0 0 0 0 0 0 0 0 0 0 0 0 0 0 0 0 0 0 0 0 0 0 0 0 0 0 0 0 0 0 0 0 0 0 0 0 0 0 0 0 0 0 0 0 0 0 0 0 0 0 0 0 0 0 0 0 0 0 0 0 0 0 0 0 0 0 0 0 0 0 0 0 0 0 0 0 0 0 0 0 0 0 0 0 0 0 0 0 0 0 0 0 0 0 0 0 0 0 0 0 0 0 0 0 0 0 0 0 0 0 0 0 0 0 0 0 0 0 0 0 0 0 0 0 0 0 0 0 0 0 0 0 0 0 0 0 0 0 0 0 0 0 0 0 0 0 0 0 0 0 0 0 0 0 0 0 0 0 0 0 0 0 0 0 0 0 0 0 0 0 0 0 0 0 0 0 0 0 0 0 0 0 0 0 0 0 0 0 0 0 0 0 0 0 0 0 0 0 0 0 0 0 0 0 0 0 0 0 0 0 0 0 0 0 0 0 0 0 0 0 0 0 0 0 0 0 0 0 0 0 0 0 0 0 0 0 0 0 0 0 0 0 0 0 0 0 0 0 0 0 0 0 0 0 0 0 0 0 0 0 0 0 0 0 0 0 0 0 0 0 0 0 0 0 0 0 0 0 0 0 0 0 0 0 0 0 0 0 0 0 0 0 0 0 0 0 0 0 0 0 0 0 0 0 0 0 0 0 0 0 0 0 0 0 0 0 0 0 0 0 0 0 0 0 0 0 0 0 0 0 0 0 0 0 0 0 0 0 0 0 0 0 0 0 0 0 0 0 0 0 0 0 0 0 0 0 0 0 0 0 0 0 0 0 0 0 0 0 0 0 0 0 0 0 0 0 0 0 0 0 0 0 0 0 0 0 0 0 0 0 0 0 0 0 0 0 0 0 0 0 0 0 0 0 0 0 0 0 0 0 0 0 0 0 0 0 0 0 0 0 0 0 0 0 0 0 0 0 0 0 0 0 0 0 0 0 0 0 0 0 0 0 0 0 0 0 0 0 0 0 0 0 0 0 0 0 0 0 0 0 0 0 0 0 0 0 0 0 0 0 0 0 0 0 0 0 0 0 0 0 0 0 0 0 0 0 0 0 0 0 0 0 0 0 0 0 0 0 0 0 0 0 0 0 0 0 0 0 0 0 0 0 0 0 0 0 0 0 0 0 0 0 0 0 0 0 0 0 0 0 0 0 0 0 0 0 0 0 0 0 0 0 0 0 0 0 0 0 0 0 0 0 0 0 0 0 0 0 0 0 0 0 0 0 0 0 0 0 0 0 0 0 0 0 0 0 0 0 0 0 0 0 0 0 0 0 0 0 0 0 0 0 0 0 0 0 0 0 0 0 0 0 0 0 0 0 0 0 0 0 0 0 0 0 0 0 0 0 0 0 0 0 0 0 0 0 0 0 0 0 0 0 0 0 0 0 0 0 0 0 0
				</DataArray>
				<DataArray Name="F3" type="Float32" format="ascii">