<?xml version="1.0"?>
<VTKFile type="PolyData">
	<PolyData>
		<Piece NumberOfPoints="961" NumberOfPolys="900">
			<Points>
				<DataArray type="Float32" NumberOfComponents="3" format="ascii">
 0 0 0 0.04 0 0 0.08 0 0 0.12 0 0 0.16 0 0 0.2 0 0 0.24 0 0 0.28 0 0 0.32 0 0 0.36 0 0 0.4 0 0 0.44 0 0 0.48 0 0 0.52 0 0 0.56 0 0 0.6 0 0 0.64 0 0 0.68 0 0 0.72 0 0 0.76 0 0 0.8 0 0 0.84 0 0 0.88 0 0 0.92 0 0 0.96 0 0 1 0 0 1.04 0 0 1.08 0 0 1.12 0 0 1.16 0 0 1.2 0 0 0 0.04 0 0.04 0.04 0 0.08 0.04 0 0.12 0.04 0 0.16 0.04 0 0.2 0.04 0 0.24 0.04 0 0.28 0.04 0 0.32 0.04 0 0.36 0.04 0 0.4 0.04 0 0.44 0.04 0 0.48 0.04 0 0.52 0.04 0 0.56 0.04 0 0.6 0.04 0 0.64 0.04 0 0.68 0.04 0 0.72 0.04 0 0.76 0.04 0 0.8 0.04 0 0.84 0.04 0 0.88 0.04 0 0.92 0.04 0 0.96 0.04 0 1 0.04 0 1.04 0.04 0 1.08 0.04 0 1.12 0.04 0 1.16 0.04 0 1.2 0.04 0 0 0.08 0 0.04 0.08 0 0.08 0.08 0 0.12 0.08 0 0.16 0.08 0 0.2 0.08 0 0.24 0.08 0 0.28 0.08 0 0.32 0.08 0 0.36 0.08 0 0.4 0.08 0 0.44 0.08 0 0.48 0.08 0 0.52 0.08 0 0.56 0.08 0 0.6 0.08 0 0.64 0.08 0 0.68 0.08 0 0.72 0.08 0 0.76 0.08 0 0.8 0.08 0 0.84 0.08 0 0.88 0.08 0 0.92 0.08 0 0.96 0.08 0 1 0.08 0 1.04 0.08 0 1.08 0.08 0 1.12 0.08 0 1.16 0.08 0 1.2 0.08 0 0 0.12 0 0.04 0.12 0 0.08 0.12 0 0.12 0.12 0 0.16 0.12 0 0.2 0.12 0 0.24 0.12 0 0.28 0.12 0 0.32 0.12 0 0.36 0.12 0 0.4 0.12 0 0.44 0.12 0 0.48 0.12 0 0.52 0.12 0 0.56 0.12 0 0.6 0.12 0 0.64 0.12 0 0.68 0.12 0 0.72 0.12 0 0.76 0.12 0 0.8 0.12 0 0.84 0.12 0 0.88 0.12 0 0.92 0.12 0 0.96 0.12 0 1 0.12 0 1.04 0.12 0 1.08 0.12 0 1.12 0.12 0 1.16 0.12 0 1.2 0.12 0 0 0.16 0 0.04 0.16 0 0.08 0.16 0 0.12 0.16 0 0.16 0.16 0 0.2 0.16 0 0.24 0.16 0 0.28 0.16 0 0.32 0.16 0 0.36 0.16 0 0.4 0.16 0 0.44 0.16 0 0.48 0.16 0 0.52 0.16 0 0.56 0.16 0 0.6 0.16 0 0.64 0.16 0 0.68 0.16 0 0.72 0.16 0 0.76 0.16 0 0.8 0.16 0 0.84 0.16 0 0.88 0.16 0 0.92 0.16 0 0.96 0.16 0 1 0.16 0 1.04 0.16 0 1.08 0.16 0 1.12 0.16 0 1.16 0.16 0 1.2 0.16 0 0 0.2 0 0.04 0.2 0 0.08 0.2 0 0.12 0.2 0 0.16 0.2 0 0.2 0.2 0 0.24 0.2 0 0.28 0.2 0 0.32 0.2 0 0.36 0.2 0 0.4 0.2 0 0.44 0.2 0 0.48 0.2 0 0.52 0.2 0 0.56 0.2 0 0.6 0.2 0 0.64 0.2 0 0.68 0.2 0 0.72 0.2 0 0.76 0.2 0 0.8 0.2 0 0.84 0.2 0 0.88 0.2 0 0.92 0.2 0 0.96 0.2 0 1 0.2 0 1.04 0.2 0 1.08 0.2 0 1.12 0.2 0 1.16 0.2 0 1.2 0.2 0 0 0.24 0 0.04 0.24 0 0.08 0.24 0 0.12 0.24 0 0.16 0.24 0 0.2 0.24 0 0.24 0.24 0 0.28 0.24 0 0.32 0.24 0 0.36 0.24 0 0.4 0.24 0 0.44 0.24 0 0.48 0.24 0 0.52 0.24 0 0.56 0.24 0 0.6 0.24 0 0.64 0.24 0 0.68 0.24 0 0.72 0.24 0 0.76 0.24 0 0.8 0.24 0 0.84 0.24 0 0.88 0.24 0 0.92 0.24 0 0.96 0.24 0 1 0.24 0 1.04 0.24 0 1.08 0.24 0 1.12 0.24 0 1.16 0.24 0 1.2 0.24 0 0 0.28 0 0.04 0.28 0 0.08 0.28 0 0.12 0.28 0 0.16 0.28 0 0.2 0.28 0 0.24 0.28 0 0.28 0.28 0 0.32 0.28 0 0.36 0.28 0 0.4 0.28 0 0.44 0.28 0 0.48 0.28 0 0.52 0.28 0 0.56 0.28 0 0.6 0.28 0 0.64 0.28 0 0.68 0.28 0 0.72 0.28 0 0.76 0.28 0 0.8 0.28 0 0.84 0.28 0 0.88 0.28 0 0.92 0.28 0 0.96 0.28 0 1 0.28 0 1.04 0.28 0 1.08 0.28 0 1.12 0.28 0 1.16 0.28 0 1.2 0.28 0 0 0.32 0 0.04 0.32 0 0.08 0.32 0 0.12 0.32 0 0.16 0.32 0 0.2 0.32 0 0.24 0.32 0 0.28 0.32 0 0.32 0.32 0 0.36 0.32 0 0.4 0.32 0 0.44 0.32 0 0.48 0.32 0 0.52 0.32 0 0.56 0.32 0 0.6 0.32 0 0.64 0.32 0 0.68 0.32 0 0.72 0.32 0 0.76 0.32 0 0.8 0.32 0 0.84 0.32 0 0.88 0.32 0 0.92 0.32 0 0.96 0.32 0 1 0.32 0 1.04 0.32 0 1.08 0.32 0 1.12 0.32 0 1.16 0.32 0 1.2 0.32 0 0 0.36 0 0.04 0.36 0 0.08 0.36 0 0.12 0.36 0 0.16 0.36 0 0.2 0.36 0 0.24 0.36 0 0.28 0.36 0 0.32 0.36 0 0.36 0.36 0 0.4 0.36 0 0.44 0.36 0 0.48 0.36 0 0.52 0.36 0 0.56 0.36 0 0.6 0.36 0 0.64 0.36 0 0.68 0.36 0 0.72 0.36 0 0.76 0.36 0 0.8 0.36 0 0.84 0.36 0 0.88 0.36 0 0.92 0.36 0 0.96 0.36 0 1 0.36 0 1.04 0.36 0 1.08 0.36 0 1.12 0.36 0 1.16 0.36 0 1.2 0.36 0 0 0.4 0 0.04 0.4 0 0.08 0.4 0 0.12 0.4 0 0.16 0.4 0 0.2 0.4 0 0.24 0.4 0 0.28 0.4 0 0.32 0.4 0 0.36 0.4 0 0.4 0.4 0 0.44 0.4 0 0.48 0.4 0 0.52 0.4 0 0.56 0.4 0 0.6 0.4 0 0.64 0.4 0 0.68 0.4 0 0.72 0.4 0 0.76 0.4 0 0.8 0.4 0 0.84 0.4 0 0.88 0.4 0 0.92 0.4 0 0.96 0.4 0 1 0.4 0 1.04 0.4 0 1.08 0.4 0 1.12 0.4 0 1.16 0.4 0 1.2 0.4 0 0 0.44 0 0.04 0.44 0 0.08 0.44 0 0.12 0.44 0 0.16 0.44 0 0.2 0.44 0 0.24 0.44 0 0.28 0.44 0 0.32 0.44 0 0.36 0.44 0 0.4 0.44 0 0.44 0.44 0 0.48 0.44 0 0.52 0.44 0 0.56 0.44 0 0.6 0.44 0 0.64 0.44 0 0.68 0.44 0 0.72 0.44 0 0.76 0.44 0 0.8 0.44 0 0.84 0.44 0 0.88 0.44 0 0.92 0.44 0 0.96 0.44 0 1 0.44 0 1.04 0.44 0 1.08 0.44 0 1.12 0.44 0 1.16 0.44 0 1.2 0.44 0 0 0.48 0 0.04 0.48 0 0.08 0.48 0 0.12 0.48 0 0.16 0.48 0 0.2 0.48 0 0.24 0.48 0 0.28 0.48 0 0.32 0.48 0 0.36 0.48 0 0.4 0.48 0 0.44 0.48 0 0.48 0.48 0 0.52 0.48 0 0.56 0.48 0 0.6 0.48 0 0.64 0.48 0 0.68 0.48 0 0.72 0.48 0 0.76 0.48 0 0.8 0.48 0 0.84 0.48 0 0.88 0.48 0 0.92 0.48 0 0.96 0.48 0 1 0.48 0 1.04 0.48 0 1.08 0.48 0 1.12 0.48 0 1.16 0.48 0 1.2 0.48 0 0 0.52 0 0.04 0.52 0 0.08 0.52 0 0.12 0.52 0 0.16 0.52 0 0.2 0.52 0 0.24 0.52 0 0.28 0.52 0 0.32 0.52 0 0.36 0.52 0 0.4 0.52 0 0.44 0.52 0 0.48 0.52 0 0.52 0.52 0 0.56 0.52 0 0.6 0.52 0 0.64 0.52 0 0.68 0.52 0 0.72 0.52 0 0.76 0.52 0 0.8 0.52 0 0.84 0.52 0 0.88 0.52 0 0.92 0.52 0 0.96 0.52 0 1 0.52 0 1.04 0.52 0 1.08 0.52 0 1.12 0.52 0 1.16 0.52 0 1.2 0.52 0 0 0.56 0 0.04 0.56 0 0.08 0.56 0 0.12 0.56 0 0.16 0.56 0 0.2 0.56 0 0.24 0.56 0 0.28 0.56 0 0.32 0.56 0 0.36 0.56 0 0.4 0.56 0 0.44 0.56 0 0.48 0.56 0 0.52 0.56 0 0.56 0.56 0 0.6 0.56 0 0.64 0.56 0 0.68 0.56 0 0.72 0.56 0 0.76 0.56 0 0.8 0.56 0 0.84 0.56 0 0.88 0.56 0 0.92 0.56 0 0.96 0.56 0 1 0.56 0 1.04 0.56 0 1.08 0.56 0 1.12 0.56 0 1.16 0.56 0 1.2 0.56 0 0 0.6 0 0.04 0.6 0 0.08 0.6 0 0.12 0.6 0 0.16 0.6 0 0.2 0.6 0 0.24 0.6 0 0.28 0.6 0 0.32 0.6 0 0.36 0.6 0 0.4 0.6 0 0.44 0.6 0 0.48 0.6 0 0.52 0.6 0 0.56 0.6 0 0.6 0.6 0 0.64 0.6 0 0.68 0.6 0 0.72 0.6 0 0.76 0.6 0 0.8 0.6 0 0.84 0.6 0 0.88 0.6 0 0.92 0.6 0 0.96 0.6 0 1 0.6 0 1.04 0.6 0 1.08 0.6 0 1.12 0.6 0 1.16 0.6 0 1.2 0.6 0 0 0.64 0 0.04 0.64 0 0.08 0.64 0 0.12 0.64 0 0.16 0.64 0 0.2 0.64 0 0.24 0.64 0 0.28 0.64 0 0.32 0.64 0 0.36 0.64 0 0.4 0.64 0 0.44 0.64 0 0.48 0.64 0 0.52 0.64 0 0.56 0.64 0 0.6 0.64 0 0.64 0.64 0 0.68 0.64 0 0.72 0.64 0 0.76 0.64 0 0.8 0.64 0 0.84 0.64 0 0.88 0.64 0 0.92 0.64 0 0.96 0.64 0 1 0.64 0 1.04 0.64 0 1.08 0.64 0 1.12 0.64 0 1.16 0.64 0 1.2 0.64 0 0 0.68 0 0.04 0.68 0 0.08 0.68 0 0.12 0.68 0 0.16 0.68 0 0.2 0.68 0 0.24 0.68 0 0.28 0.68 0 0.32 0.68 0 0.36 0.68 0 0.4 0.68 0 0.44 0.68 0 0.48 0.68 0 0.52 0.68 0 0.56 0.68 0 0.6 0.68 0 0.64 0.68 0 0.68 0.68 0 0.72 0.68 0 0.76 0.68 0 0.8 0.68 0 0.84 0.68 0 0.88 0.68 0 0.92 0.68 0 0.96 0.68 0 1 0.68 0 1.04 0.68 0 1.08 0.68 0 1.12 0.68 0 1.16 0.68 0 1.2 0.68 0 0 0.72 0 0.04 0.72 0 0.08 0.72 0 0.12 0.72 0 0.16 0.72 0 0.2 0.72 0 0.24 0.72 0 0.28 0.72 0 0.32 0.72 0 0.36 0.72 0 0.4 0.72 0 0.44 0.72 0 0.48 0.72 0 0.52 0.72 0 0.56 0.72 0 0.6 0.72 0 0.64 0.72 0 0.68 0.72 0 0.72 0.72 0 0.76 0.72 0 0.8 0.72 0 0.84 0.72 0 0.88 0.72 0 0.92 0.72 0 0.96 0.72 0 1 0.72 0 1.04 0.72 0 1.08 0.72 0 1.12 0.72 0 1.16 0.72 0 1.2 0.72 0 0 0.76 0 0.04 0.76 0 0.08 0.76 0 0.12 0.76 0 0.16 0.76 0 0.2 0.76 0 0.24 0.76 0 0.28 0.76 0 0.32 0.76 0 0.36 0.76 0 0.4 0.76 0 0.44 0.76 0 0.48 0.76 0 0.52 0.76 0 0.56 0.76 0 0.6 0.76 0 0.64 0.76 0 0.68 0.76 0 0.72 0.76 0 0.76 0.76 0 0.8 0.76 0 0.84 0.76 0 0.88 0.76 0 0.92 0.76 0 0.96 0.76 0 1 0.76 0 1.04 0.76 0 1.08 0.76 0 1.12 0.76 0 1.16 0.76 0 1.2 0.76 0 0 0.8 0 0.04 0.8 0 0.08 0.8 0 0.12 0.8 0 0.16 0.8 0 0.2 0.8 0 0.24 0.8 0 0.28 0.8 0 0.32 0.8 0 0.36 0.8 0 0.4 0.8 0 0.44 0.8 0 0.48 0.8 0 0.52 0.8 0 0.56 0.8 0 0.6 0.8 0 0.64 0.8 0 0.68 0.8 0 0.72 0.8 0 0.76 0.8 0 0.8 0.8 0 0.84 0.8 0 0.88 0.8 0 0.92 0.8 0 0.96 0.8 0 1 0.8 0 1.04 0.8 0 1.08 0.8 0 1.12 0.8 0 1.16 0.8 0 1.2 0.8 0 0 0.84 0 0.04 0.84 0 0.08 0.84 0 0.12 0.84 0 0.16 0.84 0 0.2 0.84 0 0.24 0.84 0 0.28 0.84 0 0.32 0.84 0 0.36 0.84 0 0.4 0.84 0 0.44 0.84 0 0.48 0.84 0 0.52 0.84 0 0.56 0.84 0 0.6 0.84 0 0.64 0.84 0 0.68 0.84 0 0.72 0.84 0 0.76 0.84 0 0.8 0.84 0 0.84 0.84 0 0.88 0.84 0 0.92 0.84 0 0.96 0.84 0 1 0.84 0 1.04 0.84 0 1.08 0.84 0 1.12 0.84 0 1.16 0.84 0 1.2 0.84 0 0 0.88 0 0.04 0.88 0 0.08 0.88 0 0.12 0.88 0 0.16 0.88 0 0.2 0.88 0 0.24 0.88 0 0.28 0.88 0 0.32 0.88 0 0.36 0.88 0 0.4 0.88 0 0.44 0.88 0 0.48 0.88 0 0.52 0.88 0 0.56 0.88 0 0.6 0.88 0 0.64 0.88 0 0.68 0.88 0 0.72 0.88 0 0.76 0.88 0 0.8 0.88 0 0.84 0.88 0 0.88 0.88 0 0.92 0.88 0 0.96 0.88 0 1 0.88 0 1.04 0.88 0 1.08 0.88 0 1.12 0.88 0 1.16 0.88 0 1.2 0.88 0 0 0.92 0 0.04 0.92 0 0.08 0.92 0 0.12 0.92 0 0.16 0.92 0 0.2 0.92 0 0.24 0.92 0 0.28 0.92 0 0.32 0.92 0 0.36 0.92 0 0.4 0.92 0 0.44 0.92 0 0.48 0.92 0 0.52 0.92 0 0.56 0.92 0 0.6 0.92 0 0.64 0.92 0 0.68 0.92 0 0.72 0.92 0 0.76 0.92 0 0.8 0.92 0 0.84 0.92 0 0.88 0.92 0 0.92 0.92 0 0.96 0.92 0 1 0.92 0 1.04 0.92 0 1.08 0.92 0 1.12 0.92 0 1.16 0.92 0 1.2 0.92 0 0 0.96 0 0.04 0.96 0 0.08 0.96 0 0.12 0.96 0 0.16 0.96 0 0.2 0.96 0 0.24 0.96 0 0.28 0.96 0 0.32 0.96 0 0.36 0.96 0 0.4 0.96 0 0.44 0.96 0 0.48 0.96 0 0.52 0.96 0 0.56 0.96 0 0.6 0.96 0 0.64 0.96 0 0.68 0.96 0 0.72 0.96 0 0.76 0.96 0 0.8 0.96 0 0.84 0.96 0 0.88 0.96 0 0.92 0.96 0 0.96 0.96 0 1 0.96 0 1.04 0.96 0 1.08 0.96 0 1.12 0.96 0 1.16 0.96 0 1.2 0.96 0 0 1 0 0.04 1 0 0.08 1 0 0.12 1 0 0.16 1 0 0.2 1 0 0.24 1 0 0.28 1 0 0.32 1 0 0.36 1 0 0.4 1 0 0.44 1 0 0.48 1 0 0.52 1 0 0.56 1 0 0.6 1 0 0.64 1 0 0.68 1 0 0.72 1 0 0.76 1 0 0.8 1 0 0.84 1 0 0.88 1 0 0.92 1 0 0.96 1 0 1 1 0 1.04 1 0 1.08 1 0 1.12 1 0 1.16 1 0 1.2 1 0 0 1.04 0 0.04 1.04 0 0.08 1.04 0 0.12 1.04 0 0.16 1.04 0 0.2 1.04 0 0.24 1.04 0 0.28 1.04 0 0.32 1.04 0 0.36 1.04 0 0.4 1.04 0 0.44 1.04 0 0.48 1.04 0 0.52 1.04 0 0.56 1.04 0 0.6 1.04 0 0.64 1.04 0 0.68 1.04 0 0.72 1.04 0 0.76 1.04 0 0.8 1.04 0 0.84 1.04 0 0.88 1.04 0 0.92 1.04 0 0.96 1.04 0 1 1.04 0 1.04 1.04 0 1.08 1.04 0 1.12 1.04 0 1.16 1.04 0 1.2 1.04 0 0 1.08 0 0.04 1.08 0 0.08 1.08 0 0.12 1.08 0 0.16 1.08 0 0.2 1.08 0 0.24 1.08 0 0.28 1.08 0 0.32 1.08 0 0.36 1.08 0 0.4 1.08 0 0.44 1.08 0 0.48 1.08 0 0.52 1.08 0 0.56 1.08 0 0.6 1.08 0 0.64 1.08 0 0.68 1.08 0 0.72 1.08 0 0.76 1.08 0 0.8 1.08 0 0.84 1.08 0 0.88 1.08 0 0.92 1.08 0 0.96 1.08 0 1 1.08 0 1.04 1.08 0 1.08 1.08 0 1.12 1.08 0 1.16 1.08 0 1.2 1.08 0 0 1.12 0 
[...]
			<CellData Scalars="Density">
				<DataArray Name="Density" type="Float32" format="ascii">
 0.00575198 0.00589703 0.00627789 0.00702185 0.00825734 0.0101712 0.0130305 0.0171868 0.0231124 0.0314128 0.0429044 0.0588447 0.0812903 0.113828 0.162399 0.232466 0.309937 0.361255 0.352343 0.398898 0.466329 0.562822 0.684184 0.829744 1.00232 1.16265 1.29498 1.40599 1.49546 1.54224 0.0058968 0.00598735 0.00627397 0.00687218 0.00784926 0.00941274 0.0118579 0.0155337 0.0209666 0.0289067 0.0403627 0.0566469 0.0796951 0.112611 0.161268 0.231692 0.312396 0.369869 0.364846 0.415797 0.489899 0.591876 0.71884 0.869872 1.03739 1.18922 1.31793 1.42903 1.5157 1.54514 0.00627687 0.0062734 0.0064194 0.00685954 0.00766084 0.00892707 0.0109793 0.0142688 0.0193565 0.0269948 0.0381638 0.0541517 0.0767925 0.108653 0.154031 0.218255 0.293607 0.350713 0.348898 0.397317 0.467839 0.567801 0.691258 0.839091 1.01693 1.18331 1.32121 1.43632 1.52834 1.57738 0.0070188 0.00687006 0.00685811 0.00719869 0.00788695 0.0090995 0.0111576 0.0145538 0.0200027 0.0282651 0.0403717 0.0577601 0.0824153 0.117276 0.165452 0.230312 0.302424 0.354203 0.354123 0.404851 0.476002 0.576311 0.704347 0.856425 1.03661 1.20749 1.34773 1.46215 1.54926 1.58009 0.00825059 0.00784407 0.00765688 0.00788459 0.00843754 0.00945451 0.0114818 0.0151429 0.0212748 0.0306465 0.0442141 0.0633135 0.0898923 0.126719 0.176642 0.240219 0.308453 0.35812 0.362716 0.411963 0.481391 0.578855 0.707756 0.863355 1.04458 1.21343 1.35195 1.46367 1.54793 1.58273 0.0101587 0.00940237 0.00891872 0.0090938 0.00945054 0.00997191 0.0114292 0.0146627 0.0206759 0.0305946 0.0448503 0.0646214 0.0918172 0.129076 0.17928 0.242842 0.310246 0.362024 0.375121 0.419209 0.485657 0.579196 0.707328 0.863869 1.04779 1.21774 1.35449 1.46401 1.54819 1.58287 0.0130108 0.0118419 0.0109653 0.0111475 0.0114703 0.0114177 0.011736 0.0138051 0.0182239 0.0263181 0.0392331 0.0579087 0.084211 0.12144 0.173405 0.239504 0.31018 0.368575 0.39525 0.43029 0.493903 0.582019 0.708116 0.863497 1.0458 1.21307 1.34635 1.45233 1.53612 1.57148 0.0171587 0.01551 0.0142476 0.0145386 0.0151232 0.0146439 0.0138061 0.0138974 0.01653 0.0221429 0.0320649 0.0476664 0.0711985 0.106086 0.156477 0.225112 0.301299 0.368602 0.414139 0.440501 0.499689 0.580148 0.70062 0.850946 1.03138 1.20133 1.33984 1.4529 1.54389 1.58513 0.0230785 0.0209333 0.0193266 0.0199829 0.0212441 0.020636 0.0182295 0.0165235 0.0164359 0.0198492 0.026677 0.0388246 0.0588441 0.0902502 0.137516 0.203796 0.283395 0.361362 0.423841 0.453138 0.502961 0.577884 0.689952 0.836762 1.01983 1.20325 1.3541 1.47788 1.57716 1.62364 0.0313798 0.0288617 0.0269533 0.0282441 0.0306001 0.0305356 0.0263383 0.0221339 0.0198317 0.0198462 0.0243219 0.0330432 0.0488971 0.075577 0.117216 0.177426 0.257994 0.343979 0.418407 0.467887 0.508379 0.577423 0.678383 0.822493 1.00656 1.21084 1.38409 1.52322 1.6322 1.68497 0.0428787 0.0403049 0.0381121 0.0403449 0.0441483 0.0447727 0.0392966 0.0320668 0.0266545 0.0242913 0.0246462 0.0306149 0.0421123 0.0633232 0.0987067 0.151866 0.225299 0.315169 0.403343 0.475099 0.517483 0.577292 0.670222 0.810076 0.996657 1.22546 1.43099 1.59184 1.71236 1.76645 0.0588301 0.0565856 0.0540946 0.0577287 0.0632416 0.0645625 0.0579982 0.0476817 0.0387907 0.0329938 0.0305881 0.0313794 0.0394359 0.0549646 0.0834424 0.129104 0.193933 0.279482 0.375134 0.46283 0.529149 0.582282 0.669126 0.799575 0.986971 1.23595 1.47947 1.66748 1.80267 1.85983 0.0812904 0.0796488 0.0767458 0.0823851 0.0898307 0.0917821 0.0842871 0.0711757 0.0587911 0.0488327 0.0421113 0.0394705 0.0401365 0.0508533 0.0713312 0.108397 0.164956 0.24159 0.337595 0.438665 0.528133 0.591551 0.668575 0.790675 0.977015 1.23942 1.52235 1.74275 1.89797 1.95992 0.113839 0.112582 0.10864 0.117234 0.126683 0.129085 0.121497 0.10603 0.0902399 0.0755489 0.0633678 0.0550339 0.050868 0.0514541 0.0653891 0.0920313 0.139069 0.207972 0.297569 0.403061 0.51147 0.602203 0.674894 0.791312 0.970508 1.24176 1.56159 1.82244 2.00408 2.07246 0.162427 0.16126 0.154028 0.165395 0.176631 0.179284 0.173422 0.156391 0.137625 0.117287 0.0988434 0.0835455 0.0713536 0.0654075 0.0660637 0.0838457 0.118209 0.176755 0.258663 0.364618 0.483495 0.599809 0.693109 0.796821 0.967799 1.2409 1.59812 1.90576 2.12021 2.20128 0.232498 0.231676 0.218268 0.230289 0.240163 0.242817 0.239584 0.225062 0.203956 0.177594 0.152098 0.129213 0.108419 0.0920465 0.0838025 0.0850207 0.107698 0.151446 0.223155 0.32397 0.452175 0.588309 0.71396 0.815908 0.982 1.24832 1.63813 1.99409 2.24873 2.35156 0.309954 0.31238 0.293593 0.302348 0.308348 0.310276 0.310238 0.301155 0.283551 0.258203 0.225732 0.194094 0.165101 0.139124 0.11816 0.107637 0.110594 0.139788 0.195688 0.286526 0.415508 0.568955 0.729605 0.855839 1.00496 1.26081 1.677 2.0875 2.39327 2.52861 0.361296 0.369868 0.35072 0.354108 0.358033 0.362052 0.368523 0.368517 0.361434 0.344201 0.315415 0.279666 0.241966 0.20821 0.176866 0.151354 0.139609 0.145955 0.184614 0.257994 0.379002 0.546881 0.732006 0.901154 1.04387 1.29059 1.71103 2.18786 2.56162 2.7376 0.352434 0.364879 0.349009 0.354159 0.362749 0.375008 0.395105 0.414007 0.423737 0.418448 0.403252 0.375605 0.337785 0.29796 0.258925 0.223213 0.195355 0.184342 0.197288 0.250346 0.350858 0.51889 0.732856 0.955526 1.12205 1.34345 1.75446 2.29827 2.74456 2.97065 0.399018 0.415887 0.397411 0.404859 0.411982 0.419267 0.430354 0.440305 0.453128 0.467637 0.475115 0.462878 0.438855 0.403443 0.36513 0.324434 0.286464 0.257569 0.250021 0.274582 0.351151 0.495543 0.731111 0.996138 1.22035 1.41591 1.80297 2.4072 2.93742 3.22801 0.466464 0.49 0.467948 0.476056 0.481447 0.485673 0.493835 0.499812 0.503008 0.508121 0.517648 0.528798 0.52827 0.511339 0.483918 0.452613 0.415782 0.379056 0.350481 0.350865 0.395603 0.507911 0.725466 1.03143 1.33899 1.54357 1.8736 2.51182 3.14821 3.5152 0.562955 0.591974 0.567922 0.576377 0.57889 0.579255 0.582074 0.580187 0.577771 0.577577 0.577298 0.582246 0.591522 0.602293 0.600125 0.588835 0.569481 0.547311 0.519096 0.495105 0.507622 0.584285 0.760819 1.08168 1.44747 1.73696 2.01077 2.63591 3.38359 3.83866 0.684316 0.718945 0.691372 0.704425 0.70779 0.707375 0.708191 0.700631 0.689963 0.678483 0.670003 0.669271 0.668399 0.675254 0.692749 0.714062 0.729711 0.732389 0.733305 0.731448 0.725205 0.760722 0.887643 1.16788 1.56338 1.96368 2.22755 2.76443 3.62699 4.21331 0.829892 0.869991 0.839244 0.856522 0.863456 0.863935 0.863581 0.851003 0.836834 0.822601 0.810046 0.799658 0.790483 0.791588 0.79649 0.815961 0.855801 0.901316 0.955802 0.996536 1.03186 1.08166 1.16797 1.37676 1.75685 2.21136 2.57914 3.00417 3.9293 4.65382 1.00251 1.03753 1.0171 1.03673 1.04469 1.04793 1.04593 1.03147 1.01997 1.00671 0.996678 0.987005 0.976843 0.970448 0.967764 0.98201 1.00485 1.04356 1.12175 1.22022 1.33923 1.44794 1.5637 1.75737 2.09604 2.54471 3.02135 3.43259 4.28583 5.17865 1.16286 1.18942 1.18352 1.20767 1.2136 1.21791 1.21329 1.20149 1.20342 1.21096 1.22545 1.23588 1.23916 1.24157 1.24077 1.24814 1.26065 1.2901 1.34324 1.41601 1.54374 1.73709 1.96418 2.21215 2.54562 3.05663 3.58573 4.11654 4.82339 5.98116 1.29521 1.31818 1.32145 1.34796 1.35218 1.35472 1.3466 1.34008 1.35431 1.38419 1.43098 1.47934 1.52206 1.56153 1.598 1.63792 1.67689 1.71084 1.75429 1.80294 1.8736 2.01085 2.22761 2.57956 3.02239 3.58739 4.31904 5.01472 5.77625 7.25037 1.40626 1.42931 1.43656 1.46243 1.46395 1.4643 1.45261 1.45315 1.47813 1.52332 1.59182 1.66723 1.74236 1.82232 1.90558 1.99392 2.08746 2.18799 2.29835 2.40722 2.51203 2.63604 2.76467 3.00474 3.43353 4.11767 5.01614 6.18558 7.49504 9.82855 1.49576 1.51601 1.52859 1.54956 1.54823 1.5485 1.5364 1.54417 1.57739 1.63232 1.71228 1.80241 1.89755 2.00391 2.12004 2.24856 2.39333 2.562 2.74479 2.9376 3.14852 3.38389 3.62728 3.92976 4.28635 4.82435 5.77773 7.49691 9.50872 15.1163 1.54256 1.54548 1.5777 1.58041 1.58305 1.58322 1.57171 1.58542 1.62382 1.68507 1.76647 1.85959 1.95962 2.07207 2.20106 2.35135 2.52858 2.73777 2.97093 3.22822 3.51551 3.83901 4.21376 4.65425 5.17917 5.98186 7.25113 9.82952 15.1169 18.8249
				</DataArray>
				<DataArray Name="Energy" type="Float32" format="ascii">
 954.914 931.564 875.003 782.191 665.056 539.884 421.296 319.267 237.252 174.374 127.437 92.6723 66.7675 47.3094 32.6519 21.9946 14.7389 9.63113 6.62062 5.0198 4.09138 3.4699 2.99812 2.61695 2.30807 2.09309 1.94498 1.84856 1.79915 1.77406 931.599 917.327 875.513 799.282 699.723 583.366 462.991 353.266 261.517 189.505 135.514 96.2677 68.0902 47.8081 32.8666 22.0426 14.6375 9.49892 6.46293 4.82598 3.90093 3.27487 2.81536 2.45485 2.18826 2.00916 1.88766 1.81311 1.77032 1.74023 875.14 875.594 855.682 800.696 716.833 615.085 499.968 384.524 283.212 202.858 143.262 100.711 70.7285 49.5933 34.3858 23.346 15.6418 10.2012 6.95204 5.16833 4.16396 3.48499 2.98803 2.59613 2.2797 2.05653 1.9034 1.80308 1.75331 1.7284 782.525 799.525 800.862 762.866 696.251 603.32 491.918 376.954 274.138 193.84 135.535 94.5441 65.9123 45.8648 31.9619 22.1431 15.1849 10.0948 6.98708 5.20735 4.19918 3.49273 2.9867 2.58196 2.26135 2.04233 1.89354 1.79925 1.74626 1.71332 665.589 700.178 717.2 696.458 650.615 580.596 477.943 362.279 257.712 178.745 123.702 86.1695 60.483 42.6409 30.1325 21.3592 14.9506 10.1405 7.10986 5.31525 4.29271 3.54899 3.03641 2.62394 2.29658 2.0731 1.92139 1.82472 1.77044 1.73931 540.538 583.999 615.652 603.696 580.84 550.301 480.057 373.976 265.104 178.995 121.933 84.4343 59.1604 41.8205 29.6262 21.0689 14.9595 10.3484 7.33589 5.48327 4.41369 3.63372 3.10891 2.68391 2.34529 2.11604 1.96098 1.86239 1.80686 1.77364 421.924 463.61 500.601 492.354 478.423 480.546 467.223 397.078 300.551 207.958 139.289 94.1606 64.5606 44.5485 30.7839 21.5048 15.2068 10.6792 7.59152 5.68197 4.53412 3.72548 3.18597 2.75172 2.41132 2.18318 2.02828 1.9269 1.86883 1.8329 319.787 353.802 385.086 377.34 362.745 374.461 397.057 394.095 331.156 246.926 170.311 114.331 76.2558 50.7762 34.0357 23.0292 16.0772 11.346 8.02243 5.99267 4.70863 3.87058 3.30113 2.8577 2.50419 2.2624 2.09508 1.98212 1.91541 1.87551 237.607 261.93 283.643 274.402 258.08 265.613 300.464 331.295 332.674 275.263 204.517 140.271 92.2853 59.9368 38.9823 25.6723 17.4822 12.3097 8.73 6.42259 4.98184 4.07508 3.4363 2.97457 2.59314 2.32012 2.13243 2.00431 1.92768 1.88512 174.56 189.795 203.156 193.993 179.001 179.344 207.79 247.036 275.518 274.961 224.145 164.703 111.01 71.4842 45.686 29.6361 19.6136 13.6496 9.72349 7.02255 5.38233 4.33147 3.59435 3.09442 2.67714 2.35726 2.14174 1.99457 1.90723 1.86277 127.512 135.705 143.457 135.621 123.888 122.137 139.066 170.297 204.696 224.434 220.912 177.637 128.876 85.4159 54.4451 34.8994 22.9005 15.5189 10.9858 7.88398 5.90068 4.64257 3.79411 3.20796 2.7493 2.37442 2.12388 1.95688 1.8596 1.81148 92.6943 96.3729 100.815 94.5906 86.2649 84.5067 94.0057 114.3 140.39 164.954 177.796 173.085 137.523 98.4113 64.5091 41.3061 26.9815 18.0711 12.6156 9.03815 6.59666 5.0732 4.06143 3.34002 2.82847 2.3978 2.10415 1.91798 1.81235 1.76041 66.7695 68.1292 70.7757 65.9289 60.5264 59.1746 64.4965 76.2776 92.3659 111.16 128.881 137.403 134.988 106.366 75.6022 49.4755 32.1165 21.4492 14.7073 10.5181 7.57817 5.651 4.39474 3.52401 2.91476 2.43204 2.09471 1.8923 1.78113 1.72466 47.2986 47.8187 49.6063 45.8759 42.6555 41.81 44.5268 50.7974 59.9395 71.5144 85.3518 98.2941 106.325 105.076 82.6158 58.554 38.5469 25.4641 17.381 12.2678 8.87072 6.42738 4.85095 3.78693 3.03357 2.48875 2.10451 1.8841 1.76496 1.70401 32.6392 32.8647 34.3901 31.971 30.1331 29.6208 30.783 34.0449 38.9491 45.6549 54.3675 64.4281 75.5775 82.5918 81.9595 64.6529 45.9049 30.5477 20.6159 14.3802 10.3519 7.4463 5.44059 4.10582 3.19372 2.5649 2.12859 1.88683 1.75815 1.69287 21.986 22.038 23.3433 22.1414 21.3619 21.0683 21.5008 23.0285 25.646 29.6095 34.8362 41.2704 49.4636 58.5419 64.6803 64.1605 50.9867 36.4284 24.649 17.0087 12.0528 8.69413 6.1838 4.51508 3.41918 2.66926 2.17358 1.90279 1.76238 1.69227 14.7343 14.6343 15.6387 15.1854 14.9513 14.956 15.2069 16.076 17.4712 19.5965 22.8532 26.9605 32.085 38.5313 45.9216 51.0149 50.1526 40.2939 29.1758 20.1064 14.1015 10.0708 7.14533 5.05245 3.69263 2.80404 2.24005 1.92976 1.7741 1.69819 9.62933 9.49723 10.2008 10.0954 10.1414 10.3476 10.6797 11.3442 12.3056 13.6392 15.5023 18.0479 21.4127 25.4282 30.5302 36.4537 40.351 39.3165 31.9604 23.4892 16.437 11.6399 8.25656 5.71302 4.04081 2.98192 2.32813 1.96783 1.7937 1.70937 6.6205 6.46328 6.95213 6.98699 7.11054 7.33824 7.59331 8.01934 8.72952 9.72207 10.9765 12.6028 14.695 17.3559 20.5928 24.6393 29.2215 32.0097 30.9028 25.3735 18.9236 13.4522 9.49469 6.58152 4.50962 3.22431 2.44313 2.01985 1.81836 1.72298 5.0199 4.82618 5.16863 5.20811 5.31622 5.48329 5.68086 5.99455 6.42473 7.01788 7.88179 9.03634 10.5062 12.2555 14.3574 16.9906 20.1154 23.5251 25.4107 24.363 20.1837 15.228 10.9416 7.54577 5.09342 3.52095 2.59248 2.08275 1.8453 1.73636 4.09155 3.90128 4.16414 4.19952 4.29312 4.41427 4.53526 4.70837 4.97994 5.38221 5.90167 6.59332 7.57496 8.86162 10.3416 12.0398 14.0898 16.4371 18.9416 20.2041 19.2626 16.09 12.2792 8.69924 5.87449 3.92592 2.78933 2.16042 1.87708 1.75026 3.47015 3.27528 3.48516 3.49305 3.54939 3.634 3.72558 3.87086 4.07559 4.3313 4.64046 5.07177 5.64928 6.42601 7.44329 8.68826 10.0626 11.6313 13.4504 15.2391 16.1029 15.3024 12.9331 9.83651 6.81319 4.47795 3.05739 2.2688 1.91683 1.76574 2.99846 2.81579 2.98827 2.98712 3.0368 3.109 3.18623 3.30131 3.43599 3.59395 3.79424 4.06142 4.39351 4.85116 5.43804 6.18085 7.14062 8.25191 9.48879 10.9397 12.2822 12.9375 12.2553 10.4048 7.72352 5.2431 3.42397 2.41289 1.96441 1.78309 2.61736 2.4553 2.59647 2.58224 2.62433 2.68414 2.75172 2.85799 2.97468 3.09416 3.20803 3.34 3.52436 3.78677 4.1048 4.51448 5.05086 5.71117 6.57801 7.54193 8.69728 9.83533 10.4055 9.88104 8.25891 6.06121 3.98171 2.64391 2.02881 1.80389 2.30846 2.18862 2.28003 2.26165 2.29683 2.34553 2.4114 2.50427 2.59332 2.67712 2.74935 2.82858 2.91513 3.03407 3.1935 3.41864 3.69224 4.04046 4.50957 5.0936 5.87423 6.81225 7.72211 8.25754 7.89583 6.53337 4.69206 3.0098 2.12723 1.82811 2.09346 2.0095 2.05683 2.04258 2.07329 2.11618 2.18321 2.26245 2.3202 2.35743 2.37471 2.39816 2.43249 2.48915 2.56519 2.66943 2.80418 2.98185 3.22441 3.52084 3.92549 4.47743 5.24222 6.05995 6.53295 6.2538 5.15277 3.55461 2.32289 1.8748 1.94533 1.88801 1.90368 1.89378 1.92153 1.96107 2.02828 2.09511 2.13253 2.14201 2.12427 2.10469 2.09529 2.10477 2.12882 2.17391 2.24034 2.32827 2.44309 2.59246 2.78929 3.05748 3.42418 3.9819 4.69175 5.15209 4.9232 3.99288 2.79132 1.95381 1.84891 1.81343 1.80335 1.79946 1.82484 1.86245 1.92694 1.98216 2.00441 1.99484 1.95727 1.91849 1.8928 1.88426 1.88692 1.90291 1.92981 1.9679 2.0197 2.08267 2.1603 2.26881 2.41295 2.64402 3.00991 3.55471 3.9926 3.88834 3.17548 2.22504 1.79949 1.77063 1.75355 1.74646 1.77054 1.80692 1.86884 1.91543 1.92778 1.90748 1.85998 1.81279 1.78154 1.76515 1.75824 1.76239 1.77403 1.79366 1.81827 1.84522 1.87706 1.91694 1.96454 2.02897 2.12742 2.32308 2.79153 3.17548 3.05099 2.47197 1.77439 1.74055 1.72866 1.71352 1.73942 1.77372 1.8329 1.87554 1.88518 1.863 1.8119 1.76081 1.72506 1.70416 1.69299 1.6922 1.69804 1.70926 1.72293 1.73631 1.75028 1.76582 1.7832 1.80401 1.82822 1.87491 1.9539 2.22507 2.47195 2.0714
				</DataArray>
				<DataArray Name="F1" type="Float32" format="ascii">
 1 1 1 1 1 1 1 1 1 1 1 1 1 1 1 1 1 1 1 1 1 1 1 1 1 1 1 1 1 1 1 1 1 1 1 1 1 1 1 1 1 1 1 1 1 1 1 1 1 1 1 1 1 1 1 1 1 1 1 1 1 1 1 1 1 1 1 1 1 1 1 1 1 1 1 1 1 1 1 1 1 1 1 1 1 1 1 1 1 1 1 1 1 1 1 1 1 1 1 1 1 1 1 1 1 1 1 1 1 1 1 1 1 1 1 1 1 1 1 1 1 1 1 1 1 1 1 1 1 1 1 1 1 1 1 1 1 1 1 1 1 1 1 1 1 1 1 1 1 1 1 1 1 1 1 1 1 1 1 1 1 1 1 1 1 1 1 1 1 1 1 1 1 1 1 1 1 1 1 1 1 1 1 1 1 1 1 1 1 1 1 1 1 1 1 1 1 1 1 1 1 1 1 1 1 1 1 1 1 1 1 1 1 1 1 1 1 1 1 1 1 1 1 1 1 1 1 1 1 1 1 1 1 1 1 1 1 1 1 1 1 1 1 1 1 1 1 1 1 1 1 1 1 1 1 1 1 1 1 1 1 1 1 1 1 1 1 1 1 1 1 1 1 1 1 1 1 1 1 1 1 1 1 1 1 1 1 1 1 1 1 1 1 1 1 1 1 1 1 1 1 1 1 1 1 1 1 1 1 1 1 1 1 1 1 1 1 1 1 1 1 1 1 1 1 1 1 1 1 1 1 1 1 1 1 1 1 1 1 1 1 1 1 1 1 1 1 1 1 1 1 1 1 1 1 1 1 1 1 1 1 1 1 1 1 1 1 1 1 1 1 1 1 1 1 1 1 1 1 1 1 1 1 1 1 1 1 1 1 1 1 1 1 1 1 1 1 1 1 1 1 1 1 1 1 1 1 1 1 1 1 1 1 1 1 1 1 1 1 1 1 1 1 1 1 1 1 1 1 1 1 1 1 1 1 1 1 1 1 1 1 1 1 1 1 1 1 1 1 1 1 1 1 1 1 1 1 1 1 1 1 1 1 1 1 1 1 1 1 1 1 1 1 1 1 1 1 1 1 1 1 1 1 1 1 1 1 1 1 1 1 1 1 1 1 1 1 1 1 1 1 1 1 1 1 1 1 1 1 1 1 1 1 1 1 1 1 1 1 1 1 1 1 1 1 1 1 1 1 1 1 1 1 1 1 1 1 1 1 1 1 1 1 1 1 1 1 1 1 1 1 1 1 1 1 1 1 1 1 1 1 1 1 1 1 1 1 1 1 1 1 1 1 1 1 1 1 1 1 1 1 1 1 1 1 1 1 1 1 1 1 1 1 1 1 1 1 1 1 1 1 1 1 1 1 1 1 1 1 1 1 1 1 1 1 1 1 1 1 1 1 1 1 1 1 1 1 1 1 1 1 1 1 1 1 1 1 1 1 1 1 1 1 1 1 1 1 1 1 1 1 1 1 1 1 1 1 1 1 1 1 1 1 1 1 1 1 1 1 1 1 1 1 1 1 1 1 1 1 1 1 1 1 1 1 1 1 1 1 1 1 1 1 1 1 1 1 1 1 1 1 1 1 1 1 1 1 1 1 1 1 1 1 1 1 1 1 1 1 1 1 1 1 1 1 1 1 1 1 1 1 1 1 1 1 1 1 1 1 1 1 1 1 1 1 1 1 1 1 1 1 1 1 1 1 1 1 1 1 1 1 1 1 1 1 1 1 1 1 1 1 1 1 1 1 1 1 1 1 1 1 1 1 1 1 1 1 1 1 1 1 1 1 1 1 1 1 1 1 1 1 1 1 1 1 1 1 1 1 1 1 1 1 1 1 1 1 1 1 1 1 1 1 1 1 1 1 1 1 1 1 1 1 1 1 1 1 1 1 1 1 1 1 1 1 1 1 1 1 1 1 1 1 1 1 1 1 1 1 1 1 1 1 1 1 1 1 1 1 1 1 1 1 1 1 1 1 1 1 1 1 1 1 1 1 1 1 1 1 1 1 1 1 1 1 1 1 1 1 1
				</DataArray>
				<DataArray Name="F2" type="Float32" format="ascii">
 0 0 0 0 0 0 0 0 0 0 0 0 0 0 0 0 0 0 0 0 0 0 0 0 0 0 0 0 0 0 0 0 0 0 0 0 0 0 0 0 0 0 0 0 0 0 0 0 0 0 0 0 0 0 0 0 0 0 0 0 0 0 0 0 0 0 0 0 0 0 0 0 0 0 0 0 0 0 0 0 0 0 0 0 0 0 0 0 0 0 0 0 0 0 0 0 0 0 0 0 0 0 0 0 0 0 0 0 0 0 0 0 0 0 0 0 0 0 0 0 0 0 0 0 0 0 0 0 0 0 0 0 0 0 0 0 0 0 0 0 0 0 0 0 0 0 0 0 0 0 0 0 0 0 0 0 0 0 0 0 0 0 0 0 0 0 0 0 0 0 0 0 0 0 0 0 0 0 0 0 0 0 0 0 0 0 0 0 0 0 0 0 0 0 0 0 0 0 0 0 0 0 0 0 0 0 0 0 0 0 0 0 0 0 0 0 0 0 0 0 0 0 0 0 0 0 0 0 0 0 0 0 0 0 0 0 0 0 0 0 0 0 0 0 0 0 0 0 0 0 0 0 0 0 0 0 0 0 0 0 0 0 0 0 0 0 0 0 0 0 0 0 0 0 0 0 0 0 0 0 0 0 0 0 0 0 0 0 0 0 0 0 0 0 0 0 0 0 0 0 0 0 0 0 0 0 0 0 0 0 0 0 0 0 0 0 0 0 0 0 0 0 0 0 0 0 0 0 0 0 0 0 0 0 0 0 0 0 0 0 0 0 0 0 0 0 0 0 0 0 0 0 0 0 0 0 0 0 0 0 0 0 0 0 0 0 0 0 0 0 0 0 0 0 0 0 0 0 0 0 0 0 0 0 0 0 0 0 0 0 0 0 0 0 0 0 0 0 0 0 0 0 0 0 0 0 0 0 0 0 0 0 0 0 0 0 0 0 0 0 0 0 0 0 0 0 0 0 0 0 0 0 0 0 0 0 0 0 0 0 0 0 0 0 0 0 0 0 0 0 0 0 0 0 0 0 0 0 0 0 0 0 0 0 0 0 0 0 0 0 0 0 0 0 0 0 0 0 0 0 0 0 0 0 0 0 0 0 0 0 0 0 0 0 0 0 0 0 0 0 0 0 0 0 0 0 0 0 0 0 0 0 0 0 0 0 0 0 0 0 0 0 0 0 0 0 0 0 0 0 0 0 0 0 0 0 0 0 0 0 0 0 0 0 0 0 0 0 0 0 0 0 0 0 0 0 0 0 0 0 0 0 0 0 0 0 0 0 0 0 0 0 0 0 0 0 0 0 0 0 0 0 0 0 0 0 0 0 0 0 0 0 0 0 0 0 0 0 0 0 0 0 0 0 0 0 0 0 0 0 0 0 0 0 0 0 0 0 0 0 0 0 0 0 0 0 0 0 0 0 0 0 0 0 0 0 0 0 0 0 0 0 0 0 0 0 0 0 0 0 0 0 0 0 0 0 0 0 0 0 0 0 0 0 0 0 0 0 0 0 0 0 0 0 0 0 0 0 0 0 0 0 0 0 0 0 0 0 0 0 0 0 0 0 0 0 0 0 0 0 0 0 0 0 0 0 0 0 0 0 0 0 0 0 0 0 0 0 0 0 0 0 0 0 0 0 0 0 0 0 0 0 0 0 0 0 0 0 0 0 0 0 0 0 0 0 0 0 0 0 0 0 0 0 0 0 0 0 0 0 0 0 0 0 0 0 0 0 0 0 0 0 0 0 0 0 0 0 0 0 0 0 0 0 0 0 0 0 0 0 0 0 0 0 0 0 0 0 0 0 0 0 0 0 0 0 0 0 0 0 0 0 0 0 0 0 0 0 0 0 0 0 0 0 0 0 0 0 0 0 0 0 0 0 0 0 0 0 0 0 0 0 0 0 0 0 0 0 0 0 0 0 0 0 0 0 0 0 0 0 0 0 0 0 0 0 0 0 0 0 0 0 0 0 0 0 0 0 0 0 0 0 0 0 0 0 0 0 0 0 0 0 0 0 0 0 0 0 0 0
				</DataArray>
				<DataArray Name="F3" type="Float32" format="ascii">