<?xml version="1.0"?>
<VTKFile type="PolyData">
	<PolyData>
		<Piece NumberOfPoints="961" NumberOfPolys="900">
			<Points>
				<DataArray type="Float32" NumberOfComponents="3" format="ascii">
 0 0 0 0.04 0 0 0.08 0 0 0.12 0 0 0.16 0 0 0.2 0 0 0.24 0 0 0.28 0 0 0.32 0 0 0.36 0 0 0.4 0 0 0.44 0 0 0.48 0 0 0.52 0 0 0.56 0 0 0.6 0 0 0.64 0 0 0.68 0 0 0.72 0 0 0.76 0 0 0.8 0 0 0.84 0 0 0.88 0 0 0.92 0 0 0.96 0 0 1 0 0 1.04 0 0 1.08 0 0 1.12 0 0 1.16 0 0 1.2 0 0 0 0.04 0 0.04 0.04 0 0.08 0.04 0 0.12 0.04 0 0.16 0.04 0 0.2 0.04 0 0.24 0.04 0 0.28 0.04 0 0.32 0.04 0 0.36 0.04 0 0.4 0.04 0 0.44 0.04 0 0.48 0.04 0 0.52 0.04 0 0.56 0.04 0 0.6 0.04 0 0.64 0.04 0 0.68 0.04 0 0.72 0.04 0 0.76 0.04 0 0.8 0.04 0 0.84 0.04 0 0.88 0.04 0 0.92 0.04 0 0.96 0.04 0 1 0.04 0 1.04 0.04 0 1.08 0.04 0 1.12 0.04 0 1.16 0.04 0 1.2 0.04 0 0 0.08 0 0.04 0.08 0 0.08 0.08 0 0.12 0.08 0 0.16 0.08 0 0.2 0.08 0 0.24 0.08 0 0.28 0.08 0 0.32 0.08 0 0.36 0.08 0 0.4 0.08 0 0.44 0.08 0 0.48 0.08 0 0.52 0.08 0 0.56 0.08 0 0.6 0.08 0 0.64 0.08 0 0.68 0.08 0 0.72 0.08 0 0.76 0.08 0 0.8 0.08 0 0.84 0.08 0 0.88 0.08 0 0.92 0.08 0 0.96 0.08 0 1 0.08 0 1.04 0.08 0 1.08 0.08 0 1.12 0.08 0 1.16 0.08 0 1.2 0.08 0 0 0.12 0 0.04 0.12 0 0.08 0.12 0 0.12 0.12 0 0.16 0.12 0 0.2 0.12 0 0.24 0.12 0 0.28 0.12 0 0.32 0.12 0 0.36 0.12 0 0.4 0.12 0 0.44 0.12 0 0.48 0.12 0 0.52 0.12 0 0.56 0.12 0 0.6 0.12 0 0.64 0.12 0 0.68 0.12 0 0.72 0.12 0 0.76 0.12 0 0.8 0.12 0 0.84 0.12 0 0.88 0.12 0 0.92 0.12 0 0.96 0.12 0 1 0.12 0 1.04 0.12 0 1.08 0.12 0 1.12 0.12 0 1.16 0.12 0 1.2 0.12 0 0 0.16 0 0.04 0.16 0 0.08 0.16 0 0.12 0.16 0 0.16 0.16 0 0.2 0.16 0 0.24 0.16 0 0.28 0.16 0 0.32 0.16 0 0.36 0.16 0 0.4 0.16 0 0.44 0.16 0 0.48 0.16 0 0.52 0.16 0 0.56 0.16 0 0.6 0.16 0 0.64 0.16 0 0.68 0.16 0 0.72 0.16 0 0.76 0.16 0 0.8 0.16 0 0.84 0.16 0 0.88 0.16 0 0.92 0.16 0 0.96 0.16 0 1 0.16 0 1.04 0.16 0 1.08 0.16 0 1.12 0.16 0 1.16 0.16 0 1.2 0.16 0 0 0.2 0 0.04 0.2 0 0.08 0.2 0 0.12 0.2 0 0.16 0.2 0 0.2 0.2 0 0.24 0.2 0 0.28 0.2 0 0.32 0.2 0 0.36 0.2 0 0.4 0.2 0 0.44 0.2 0 0.48 0.2 0 0.52 0.2 0 0.56 0.2 0 0.6 0.2 0 0.64 0.2 0 0.68 0.2 0 0.72 0.2 0 0.76 0.2 0 0.8 0.2 0 0.84 0.2 0 0.88 0.2 0 0.92 0.2 0 0.96 0.2 0 1 0.2 0 1.04 0.2 0 1.08 0.2 0 1.12 0.2 0 1.16 0.2 0 1.2 0.2 0 0 0.24 0 0.04 0.24 0 0.08 0.24 0 0.12 0.24 0 0.16 0.24 0 0.2 0.24 0 0.24 0.24 0 0.28 0.24 0 0.32 0.24 0 0.36 0.24 0 0.4 0.24 0 0.44 0.24 0 0.48 0.24 0 0.52 0.24 0 0.56 0.24 0 0.6 0.24 0 0.64 0.24 0 0.68 0.24 0 0.72 0.24 0 0.76 0.24 0 0.8 0.24 0 0.84 0.24 0 0.88 0.24 0 0.92 0.24 0 0.96 0.24 0 1 0.24 0 1.04 0.24 0 1.08 0.24 0 1.12 0.24 0 1.16 0.24 0 1.2 0.24 0 0 0.28 0 0.04 0.28 0 0.08 0.28 0 0.12 0.28 0 0.16 0.28 0 0.2 0.28 0 0.24 0.28 0 0.28 0.28 0 0.32 0.28 0 0.36 0.28 0 0.4 0.28 0 0.44 0.28 0 0.48 0.28 0 0.52 0.28 0 0.56 0.28 0 0.6 0.28 0 0.64 0.28 0 0.68 0.28 0 0.72 0.28 0 0.76 0.28 0 0.8 0.28 0 0.84 0.28 0 0.88 0.28 0 0.92 0.28 0 0.96 0.28 0 1 0.28 0 1.04 0.28 0 1.08 0.28 0 1.12 0.28 0 1.16 0.28 0 1.2 0.28 0 0 0.32 0 0.04 0.32 0 0.08 0.32 0 0.12 0.32 0 0.16 0.32 0 0.2 0.32 0 0.24 0.32 0 0.28 0.32 0 0.32 0.32 0 0.36 0.32 0 0.4 0.32 0 0.44 0.32 0 0.48 0.32 0 0.52 0.32 0 0.56 0.32 0 0.6 0.32 0 0.64 0.32 0 0.68 0.32 0 0.72 0.32 0 0.76 0.32 0 0.8 0.32 0 0.84 0.32 0 0.88 0.32 0 0.92 0.32 0 0.96 0.32 0 1 0.32 0 1.04 0.32 0 1.08 0.32 0 1.12 0.32 0 1.16 0.32 0 1.2 0.32 0 0 0.36 0 0.04 0.36 0 0.08 0.36 0 0.12 0.36 0 0.16 0.36 0 0.2 0.36 0 0.24 0.36 0 0.28 0.36 0 0.32 0.36 0 0.36 0.36 0 0.4 0.36 0 0.44 0.36 0 0.48 0.36 0 0.52 0.36 0 0.56 0.36 0 0.6 0.36 0 0.64 0.36 0 0.68 0.36 0 0.72 0.36 0 0.76 0.36 0 0.8 0.36 0 0.84 0.36 0 0.88 0.36 0 0.92 0.36 0 0.96 0.36 0 1 0.36 0 1.04 0.36 0 1.08 0.36 0 1.12 0.36 0 1.16 0.36 0 1.2 0.36 0 0 0.4 0 0.04 0.4 0 0.08 0.4 0 0.12 0.4 0 0.16 0.4 0 0.2 0.4 0 0.24 0.4 0 0.28 0.4 0 0.32 0.4 0 0.36 0.4 0 0.4 0.4 0 0.44 0.4 0 0.48 0.4 0 0.52 0.4 0 0.56 0.4 0 0.6 0.4 0 0.64 0.4 0 0.68 0.4 0 0.72 0.4 0 0.76 0.4 0 0.8 0.4 0 0.84 0.4 0 0.88 0.4 0 0.92 0.4 0 0.96 0.4 0 1 0.4 0 1.04 0.4 0 1.08 0.4 0 1.12 0.4 0 1.16 0.4 0 1.2 0.4 0 0 0.44 0 0.04 0.44 0 0.08 0.44 0 0.12 0.44 0 0.16 0.44 0 0.2 0.44 0 0.24 0.44 0 0.28 0.44 0 0.32 0.44 0 0.36 0.44 0 0.4 0.44 0 0.44 0.44 0 0.48 0.44 0 0.52 0.44 0 0.56 0.44 0 0.6 0.44 0 0.64 0.44 0 0.68 0.44 0 0.72 0.44 0 0.76 0.44 0 0.8 0.44 0 0.84 0.44 0 0.88 0.44 0 0.92 0.44 0 0.96 0.44 0 1 0.44 0 1.04 0.44 0 1.08 0.44 0 1.12 0.44 0 1.16 0.44 0 1.2 0.44 0 0 0.48 0 0.04 0.48 0 0.08 0.48 0 0.12 0.48 0 0.16 0.48 0 0.2 0.48 0 0.24 0.48 0 0.28 0.48 0 0.32 0.48 0 0.36 0.48 0 0.4 0.48 0 0.44 0.48 0 0.48 0.48 0 0.52 0.48 0 0.56 0.48 0 0.6 0.48 0 0.64 0.48 0 0.68 0.48 0 0.72 0.48 0 0.76 0.48 0 0.8 0.48 0 0.84 0.48 0 0.88 0.48 0 0.92 0.48 0 0.96 0.48 0 1 0.48 0 1.04 0.48 0 1.08 0.48 0 1.12 0.48 0 1.16 0.48 0 1.2 0.48 0 0 0.52 0 0.04 0.52 0 0.08 0.52 0 0.12 0.52 0 0.16 0.52 0 0.2 0.52 0 0.24 0.52 0 0.28 0.52 0 0.32 0.52 0 0.36 0.52 0 0.4 0.52 0 0.44 0.52 0 0.48 0.52 0 0.52 0.52 0 0.56 0.52 0 0.6 0.52 0 0.64 0.52 0 0.68 0.52 0 0.72 0.52 0 0.76 0.52 0 0.8 0.52 0 0.84 0.52 0 0.88 0.52 0 0.92 0.52 0 0.96 0.52 0 1 0.52 0 1.04 0.52 0 1.08 0.52 0 1.12 0.52 0 1.16 0.52 0 1.2 0.52 0 0 0.56 0 0.04 0.56 0 0.08 0.56 0 0.12 0.56 0 0.16 0.56 0 0.2 0.56 0 0.24 0.56 0 0.28 0.56 0 0.32 0.56 0 0.36 0.56 0 0.4 0.56 0 0.44 0.56 0 0.48 0.56 0 0.52 0.56 0 0.56 0.56 0 0.6 0.56 0 0.64 0.56 0 0.68 0.56 0 0.72 0.56 0 0.76 0.56 0 0.8 0.56 0 0.84 0.56 0 0.88 0.56 0 0.92 0.56 0 0.96 0.56 0 1 0.56 0 1.04 0.56 0 1.08 0.56 0 1.12 0.56 0 1.16 0.56 0 1.2 0.56 0 0 0.6 0 0.04 0.6 0 0.08 0.6 0 0.12 0.6 0 0.16 0.6 0 0.2 0.6 0 0.24 0.6 0 0.28 0.6 0 0.32 0.6 0 0.36 0.6 0 0.4 0.6 0 0.44 0.6 0 0.48 0.6 0 0.52 0.6 0 0.56 0.6 0 0.6 0.6 0 0.64 0.6 0 0.68 0.6 0 0.72 0.6 0 0.76 0.6 0 0.8 0.6 0 0.84 0.6 0 0.88 0.6 0 0.92 0.6 0 0.96 0.6 0 1 0.6 0 1.04 0.6 0 1.08 0.6 0 1.12 0.6 0 1.16 0.6 0 1.2 0.6 0 0 0.64 0 0.04 0.64 0 0.08 0.64 0 0.12 0.64 0 0.16 0.64 0 0.2 0.64 0 0.24 0.64 0 0.28 0.64 0 0.32 0.64 0 0.36 0.64 0 0.4 0.64 0 0.44 0.64 0 0.48 0.64 0 0.52 0.64 0 0.56 0.64 0 0.6 0.64 0 0.64 0.64 0 0.68 0.64 0 0.72 0.64 0 0.76 0.64 0 0.8 0.64 0 0.84 0.64 0 0.88 0.64 0 0.92 0.64 0 0.96 0.64 0 1 0.64 0 1.04 0.64 0 1.08 0.64 0 1.12 0.64 0 1.16 0.64 0 1.2 0.64 0 0 0.68 0 0.04 0.68 0 0.08 0.68 0 0.12 0.68 0 0.16 0.68 0 0.2 0.68 0 0.24 0.68 0 0.28 0.68 0 0.32 0.68 0 0.36 0.68 0 0.4 0.68 0 0.44 0.68 0 0.48 0.68 0 0.52 0.68 0 0.56 0.68 0 0.6 0.68 0 0.64 0.68 0 0.68 0.68 0 0.72 0.68 0 0.76 0.68 0 0.8 0.68 0 0.84 0.68 0 0.88 0.68 0 0.92 0.68 0 0.96 0.68 0 1 0.68 0 1.04 0.68 0 1.08 0.68 0 1.12 0.68 0 1.16 0.68 0 1.2 0.68 0 0 0.72 0 0.04 0.72 0 0.08 0.72 0 0.12 0.72 0 0.16 0.72 0 0.2 0.72 0 0.24 0.72 0 0.28 0.72 0 0.32 0.72 0 0.36 0.72 0 0.4 0.72 0 0.44 0.72 0 0.48 0.72 0 0.52 0.72 0 0.56 0.72 0 0.6 0.72 0 0.64 0.72 0 0.68 0.72 0 0.72 0.72 0 0.76 0.72 0 0.8 0.72 0 0.84 0.72 0 0.88 0.72 0 0.92 0.72 0 0.96 0.72 0 1 0.72 0 1.04 0.72 0 1.08 0.72 0 1.12 0.72 0 1.16 0.72 0 1.2 0.72 0 0 0.76 0 0.04 0.76 0 0.08 0.76 0 0.12 0.76 0 0.16 0.76 0 0.2 0.76 0 0.24 0.76 0 0.28 0.76 0 0.32 0.76 0 0.36 0.76 0 0.4 0.76 0 0.44 0.76 0 0.48 0.76 0 0.52 0.76 0 0.56 0.76 0 0.6 0.76 0 0.64 0.76 0 0.68 0.76 0 0.72 0.76 0 0.76 0.76 0 0.8 0.76 0 0.84 0.76 0 0.88 0.76 0 0.92 0.76 0 0.96 0.76 0 1 0.76 0 1.04 0.76 0 1.08 0.76 0 1.12 0.76 0 1.16 0.76 0 1.2 0.76 0 0 0.8 0 0.04 0.8 0 0.08 0.8 0 0.12 0.8 0 0.16 0.8 0 0.2 0.8 0 0.24 0.8 0 0.28 0.8 0 0.32 0.8 0 0.36 0.8 0 0.4 0.8 0 0.44 0.8 0 0.48 0.8 0 0.52 0.8 0 0.56 0.8 0 0.6 0.8 0 0.64 0.8 0 0.68 0.8 0 0.72 0.8 0 0.76 0.8 0 0.8 0.8 0 0.84 0.8 0 0.88 0.8 0 0.92 0.8 0 0.96 0.8 0 1 0.8 0 1.04 0.8 0 1.08 0.8 0 1.12 0.8 0 1.16 0.8 0 1.2 0.8 0 0 0.84 0 0.04 0.84 0 0.08 0.84 0 0.12 0.84 0 0.16 0.84 0 0.2 0.84 0 0.24 0.84 0 0.28 0.84 0 0.32 0.84 0 0.36 0.84 0 0.4 0.84 0 0.44 0.84 0 0.48 0.84 0 0.52 0.84 0 0.56 0.84 0 0.6 0.84 0 0.64 0.84 0 0.68 0.84 0 0.72 0.84 0 0.76 0.84 0 0.8 0.84 0 0.84 0.84 0 0.88 0.84 0 0.92 0.84 0 0.96 0.84 0 1 0.84 0 1.04 0.84 0 1.08 0.84 0 1.12 0.84 0 1.16 0.84 0 1.2 0.84 0 0 0.88 0 0.04 0.88 0 0.08 0.88 0 0.12 0.88 0 0.16 0.88 0 0.2 0.88 0 0.24 0.88 0 0.28 0.88 0 0.32 0.88 0 0.36 0.88 0 0.4 0.88 0 0.44 0.88 0 0.48 0.88 0 0.52 0.88 0 0.56 0.88 0 0.6 0.88 0 0.64 0.88 0 0.68 0.88 0 0.72 0.88 0 0.76 0.88 0 0.8 0.88 0 0.84 0.88 0 0.88 0.88 0 0.92 0.88 0 0.96 0.88 0 1 0.88 0 1.04 0.88 0 1.08 0.88 0 1.12 0.88 0 1.16 0.88 0 1.2 0.88 0 0 0.92 0 0.04 0.92 0 0.08 0.92 0 0.12 0.92 0 0.16 0.92 0 0.2 0.92 0 0.24 0.92 0 0.28 0.92 0 0.32 0.92 0 0.36 0.92 0 0.4 0.92 0 0.44 0.92 0 0.48 0.92 0 0.52 0.92 0 0.56 0.92 0 0.6 0.92 0 0.64 0.92 0 0.68 0.92 0 0.72 0.92 0 0.76 0.92 0 0.8 0.92 0 0.84 0.92 0 0.88 0.92 0 0.92 0.92 0 0.96 0.92 0 1 0.92 0 1.04 0.92 0 1.08 0.92 0 1.12 0.92 0 1.16 0.92 0 1.2 0.92 0 0 0.96 0 0.04 0.96 0 0.08 0.96 0 0.12 0.96 0 0.16 0.96 0 0.2 0.96 0 0.24 0.96 0 0.28 0.96 0 0.32 0.96 0 0.36 0.96 0 0.4 0.96 0 0.44 0.96 0 0.48 0.96 0 0.52 0.96 0 0.56 0.96 0 0.6 0.96 0 0.64 0.96 0 0.68 0.96 0 0.72 0.96 0 0.76 0.96 0 0.8 0.96 0 0.84 0.96 0 0.88 0.96 0 0.92 0.96 0 0.96 0.96 0 1 0.96 0 1.04 0.96 0 1.08 0.96 0 1.12 0.96 0 1.16 0.96 0 1.2 0.96 0 0 1 0 0.04 1 0 0.08 1 0 0.12 1 0 0.16 1 0 0.2 1 0 0.24 1 0 0.28 1 0 0.32 1 0 0.36 1 0 0.4 1 0 0.44 1 0 0.48 1 0 0.52 1 0 0.56 1 0 0.6 1 0 0.64 1 0 0.68 1 0 0.72 1 0 0.76 1 0 0.8 1 0 0.84 1 0 0.88 1 0 0.92 1 0 0.96 1 0 1 1 0 1.04 1 0 1.08 1 0 1.12 1 0 1.16 1 0 1.2 1 0 0 1.04 0 0.04 1.04 0 0.08 1.04 0 0.12 1.04 0 0.16 1.04 0 0.2 1.04 0 0.24 1.04 0 0.28 1.04 0 0.32 1.04 0 0.36 1.04 0 0.4 1.04 0 0.44 1.04 0 0.48 1.04 0 0.52 1.04 0 0.56 1.04 0 0.6 1.04 0 0.64 1.04 0 0.68 1.04 0 0.72 1.04 0 0.76 1.04 0 0.8 1.04 0 0.84 1.04 0 0.88 1.04 0 0.92 1.04 0 0.96 1.04 0 1 1.04 0 1.04 1.04 0 1.08 1.04 0 1.12 1.04 0 1.16 1.04 0 1.2 1.04 0 0 1.08 0 0.04 1.08 0 0.08 1.08 0 0.12 1.08 0 0.16 1.08 0 0.2 1.08 0 0.24 1.08 0 0.28 1.08 0 0.32 1.08 0 0.36 1.08 0 0.4 1.08 0 0.44 1.08 0 0.48 1.08 0 0.52 1.08 0 0.56 1.08 0 0.6 1.08 0 0.64 1.08 0 0.68 1.08 0 0.72 1.08 0 0.76 1.08 0 0.8 1.08 0 0.84 1.08 0 0.88 1.08 0 0.92 1.08 0 0.96 1.08 0 1 1.08 0 1.04 1.08 0 1.08 1.08 0 1.12 1.08 0 1.16 1.08 0 1.2 1.08 0 0 1.12 0 
[...]
			<CellData Scalars="Density">
				<DataArray Name="Density" type="Float32" format="ascii">
 0.00568717 0.00583613 0.00624369 0.00701768 0.00821478 0.00995444 0.0125005 0.0162496 0.0214601 0.02801 0.0356444 0.0443274 0.0542374 0.0646814 0.0753509 0.0879876 0.105917 0.134543 0.181537 0.257015 0.37112 0.530989 0.738171 0.990417 1.25903 1.45932 1.61594 1.75695 2.10605 2.58504 0.00583433 0.00591402 0.00619894 0.00678246 0.00767124 0.00899449 0.0111224 0.0145318 0.019438 0.0262252 0.0358234 0.0530453 0.0785637 0.101312 0.112182 0.117634 0.124657 0.13976 0.173755 0.239828 0.349875 0.515278 0.742349 1.02883 1.32396 1.53071 1.67683 1.8292 2.19333 2.6463 0.00623703 0.0061949 0.00632521 0.00675418 0.00749305 0.00863264 0.0105743 0.0142919 0.0211239 0.0327916 0.0582268 0.104671 0.144216 0.179729 0.210696 0.230899 0.227092 0.214936 0.218312 0.251264 0.332495 0.474884 0.689055 0.976342 1.29448 1.52363 1.6826 1.85608 2.24774 2.70924 0.00700085 0.00677044 0.006747 0.00714191 0.007906 0.00914273 0.0114884 0.0168161 0.029527 0.0569885 0.0999123 0.136807 0.168943 0.212241 0.267438 0.325079 0.367064 0.374019 0.374433 0.396547 0.466906 0.604642 0.815781 1.09377 1.38339 1.57105 1.70387 1.87185 2.27013 2.73631 0.00818047 0.00764513 0.00747516 0.00789253 0.00864659 0.0098512 0.0128156 0.0211913 0.0413785 0.0758372 0.110171 0.136839 0.159569 0.209861 0.279608 0.360058 0.44659 0.512664 0.565899 0.634641 0.742496 0.902123 1.11113 1.34987 1.52813 1.64135 1.73751 1.89306 2.29504 2.73234 0.00989438 0.00894802 0.00859828 0.0090975 0.00980163 0.0104583 0.0125954 0.0207107 0.0406697 0.0720886 0.0951211 0.101325 0.108084 0.153795 0.245396 0.354856 0.466688 0.577358 0.686702 0.805243 0.944385 1.10889 1.2955 1.47612 1.60823 1.68963 1.77744 1.93988 2.35227 2.73456 0.0124082 0.011049 0.0105118 0.0113911 0.0126725 0.0125103 0.0125156 0.016512 0.0316615 0.0559098 0.0721658 0.0666623 0.0692179 0.0957049 0.160855 0.273605 0.428625 0.575453 0.709554 0.846126 0.993389 1.15617 1.33581 1.50478 1.6427 1.75476 1.87181 2.07913 2.50407 2.7681 0.0161159 0.0144157 0.0141596 0.0166394 0.0209261 0.0205098 0.0164643 0.0157551 0.0201392 0.0326044 0.0449429 0.0439559 0.04544 0.0612578 0.104527 0.18051 0.299573 0.465372 0.632337 0.78524 0.935015 1.0899 1.25593 1.43815 1.62979 1.82154 2.02945 2.32737 2.77789 2.88312 0.0212718 0.0192634 0.0208995 0.0291996 0.0410076 0.0403908 0.0316091 0.0202085 0.0188928 0.021441 0.0258049 0.0284778 0.0320885 0.0432688 0.071539 0.123037 0.200648 0.30658 0.434624 0.573025 0.717436 0.872498 1.04789 1.25919 1.52272 1.82725 2.17506 2.58413 3.05695 3.03987 0.0277705 0.0259751 0.032362 0.0562902 0.0753542 0.0718552 0.0559651 0.0328355 0.0215141 0.0201048 0.0207568 0.0223497 0.0259786 0.0352749 0.0560923 0.0924966 0.145213 0.214436 0.299906 0.400584 0.517851 0.657463 0.830468 1.05475 1.35519 1.75855 2.25949 2.76242 3.23149 3.1601 0.0353684 0.0354553 0.0573239 0.0992618 0.109879 0.0951955 0.0724227 0.0453379 0.0259448 0.0207755 0.0205198 0.0214272 0.0247892 0.0336358 0.0523102 0.0835224 0.126563 0.179807 0.243934 0.321465 0.416972 0.538523 0.699899 0.92363 1.24184 1.69875 2.30929 2.85122 3.28594 3.18427 0.0440189 0.0523626 0.10365 0.136388 0.136718 0.101645 0.0668499 0.0441178 0.0285415 0.0223628 0.0214307 0.0227347 0.0271312 0.0374428 0.057017 0.0877243 0.128486 0.177897 0.235702 0.304909 0.39092 0.502545 0.655006 0.873368 1.19529 1.66714 2.30854 2.84996 3.24445 3.1251 0.0538911 0.0776129 0.143391 0.168549 0.159564 0.108317 0.0693699 0.0455099 0.0321309 0.0260145 0.024825 0.0271663 0.034163 0.0495993 0.076011 0.112375 0.156959 0.207386 0.262651 0.326311 0.405386 0.510411 0.65873 0.875789 1.19917 1.66693 2.27978 2.77211 3.07959 3.00107 0.0643253 0.100325 0.178876 0.211812 0.209758 0.15438 0.0961783 0.0615995 0.0435077 0.0354642 0.0337991 0.0375865 0.0497128 0.0734904 0.110956 0.161051 0.219901 0.281338 0.342413 0.40615 0.481154 0.579057 0.719885 0.931835 1.25193 1.68888 2.22148 2.60939 2.80789 2.80863 0.0750219 0.111186 0.209646 0.266866 0.279379 0.246084 0.161898 0.105461 0.0722527 0.0566031 0.0527118 0.0573427 0.0762796 0.111087 0.164172 0.23273 0.310287 0.38718 0.460434 0.53179 0.610347 0.707254 0.844642 1.04612 1.33372 1.71092 2.12765 2.415 2.57582 2.59112 0.0877191 0.116751 0.229509 0.324247 0.359724 0.355084 0.275236 0.182058 0.124304 0.0933845 0.0841852 0.0882608 0.112767 0.161213 0.232651 0.320052 0.411422 0.496231 0.576007 0.654948 0.739671 0.837882 0.968512 1.14813 1.38943 1.70095 1.98211 2.23217 2.38373 2.38011 0.105743 0.123986 0.225634 0.365843 0.445982 0.466595 0.429947 0.301851 0.202463 0.146481 0.12746 0.129204 0.157389 0.219949 0.310063 0.41116 0.50733 0.596167 0.680124 0.76342 0.851283 0.948025 1.06707 1.22138 1.41297 1.63498 1.85869 2.08852 2.22692 2.20967 0.134504 0.139317 0.213694 0.37249 0.511562 0.577038 0.575848 0.4678 0.30887 0.21607 0.180916 0.178783 0.207889 0.281405 0.386978 0.495619 0.595449 0.685805 0.770741 0.854515 0.940095 1.03159 1.13479 1.25966 1.41177 1.57436 1.77318 1.98168 2.10498 2.08976 0.181691 0.173557 0.217316 0.372747 0.564362 0.686089 0.709662 0.634306 0.437244 0.301851 0.245267 0.236755 0.263309 0.342611 0.459994 0.574827 0.678743 0.769827 0.85172 0.930699 1.00822 1.0876 1.17571 1.27165 1.391 1.53391 1.72603 1.90927 2.01885 2.01558 0.257416 0.239852 0.250519 0.394725 0.632657 0.804471 0.846177 0.787013 0.575904 0.402833 0.323046 0.306147 0.327131 0.406335 0.530942 0.652963 0.761221 0.852891 0.92963 0.998433 1.06309 1.12454 1.19515 1.27406 1.37211 1.51339 1.69702 1.85795 1.9628 1.97624 0.371823 0.350095 0.331902 0.464945 0.740207 0.943621 0.99352 0.936743 0.720483 0.520363 0.418787 0.392348 0.406451 0.481523 0.60957 0.737528 0.848539 0.938329 1.00725 1.06243 1.10929 1.15231 1.20056 1.27408 1.36127 1.50548 1.68593 1.83115 1.92914 1.95596 0.532013 0.515648 0.474331 0.60259 0.899845 1.10827 1.15643 1.09165 0.875621 0.66017 0.540569 0.504206 0.511756 0.579586 0.706518 0.835804 0.94497 1.0289 1.08859 1.12778 1.15421 1.19638 1.2355 1.3034 1.39283 1.53233 1.70176 1.82455 1.91332 1.94305 0.739414 0.742772 0.688503 0.813763 1.10921 1.29513 1.33625 1.25777 1.05097 0.833342 0.702236 0.656951 0.660402 0.72079 0.844477 0.967874 1.0666 1.1333 1.17145 1.19183 1.20274 1.24338 1.28615 1.35866 1.45436 1.59554 1.73682 1.8465 1.92502 1.94573 0.991716 1.02923 0.975873 1.09198 1.34864 1.4759 1.50523 1.43986 1.26204 1.05763 0.926138 0.875504 0.87773 0.93356 1.04764 1.14836 1.22001 1.25942 1.27374 1.27425 1.26748 1.30599 1.36713 1.4418 1.54941 1.68541 1.79675 1.888 1.95568 1.96949 1.25996 1.32418 1.2942 1.38239 1.52752 1.60807 1.64311 1.63105 1.52515 1.35794 1.24439 1.19746 1.20113 1.25354 1.33512 1.39069 1.41399 1.40856 1.38834 1.37543 1.36736 1.39132 1.45737 1.55573 1.67948 1.80232 1.88792 1.95188 1.99238 1.99108 1.45974 1.53077 1.52341 1.57064 1.64099 1.68946 1.75476 1.82224 1.82876 1.76086 1.70099 1.66895 1.66854 1.69025 1.71232 1.70176 1.63477 1.57599 1.53461 1.51154 1.50417 1.53524 1.59409 1.68811 1.80465 1.95452 2.04947 2.07655 2.08785 2.04512 1.61596 1.6767 1.68239 1.70361 1.73722 1.7771 1.87144 2.02934 2.17568 2.2607 2.3106 2.30964 2.28045 2.22168 2.12755 1.98223 1.85891 1.77328 1.72692 1.69895 1.68679 1.70231 1.73701 1.79779 1.88986 2.05138 2.20455 2.28557 2.28343 2.15922 1.75644 1.82865 1.85556 1.87143 1.89271 1.93939 2.07844 2.32655 2.58379 2.76252 2.85142 2.85003 2.77185 2.60882 2.41379 2.23089 2.08818 1.98244 1.90968 1.8583 1.83192 1.82544 1.84734 1.88879 1.95302 2.07891 2.2878 2.47745 2.576 2.43651 2.10448 2.19176 2.24631 2.26891 2.294 2.35122 2.50287 2.77648 3.05575 3.23068 3.28524 3.24371 3.07884 2.80715 2.57534 2.38339 2.22632 2.1047 2.01889 1.96315 1.92977 1.91402 1.92552 1.9559 1.9928 2.08955 2.28658 2.57747 2.81653 2.83604 2.58256 2.64382 2.70695 2.73438 2.73073 2.73319 2.76695 2.88196 3.03849 3.15867 3.18288 3.12388 3.00019 2.80807 2.59072 2.37985 2.20948 2.08969 2.01563 1.97643 1.95625 1.94326 1.94609 1.9692 1.99017 2.04856 2.15839 2.43943 2.83758 3.21546
				</DataArray>
				<DataArray Name="Energy" type="Float32" format="ascii">
 949.168 924.916 864.581 769.185 657.087 542.24 431.785 332.123 251.418 192.562 151.257 121.516 99.1405 82.8307 70.7101 60.1491 49.6079 38.7601 28.4463 19.8798 13.6075 9.39536 6.66574 4.89653 3.76781 3.15775 2.82049 2.60567 2.51665 2.46412 925.201 912.793 870.815 795.897 703.671 600.13 485.302 371.396 277.606 205.708 150.583 101.657 68.5288 52.9656 47.5658 45.0356 42.2101 37.2699 29.6569 21.3231 14.4468 9.67939 6.63073 4.7183 3.59085 3.02472 2.71957 2.52793 2.46041 2.42887 865.503 871.383 853.426 799.204 720.378 625.262 510.406 377.599 255.456 164.555 92.6725 51.4851 37.2905 29.8078 25.2907 22.9076 23.0959 24.2305 23.6753 20.3697 15.2355 10.5485 7.17839 4.98859 3.67376 3.02967 2.70188 2.52013 2.45432 2.41269 771.032 797.308 800.053 755.798 682.734 590.346 469.78 320.918 182.745 94.6807 53.9543 39.3972 31.8296 25.2603 19.9631 16.3315 14.3638 13.9871 13.8694 13.0125 10.9523 8.35956 6.09914 4.45496 3.42327 2.92203 2.66391 2.51774 2.47785 2.43926 659.841 706.071 722.1 683.898 624.225 547.885 421.11 254.641 130.414 71.1129 48.8838 39.3859 33.7001 25.5849 19.1563 14.8145 11.8862 10.3001 9.28727 8.24897 7.00762 5.71473 4.57143 3.68398 3.15768 2.84483 2.64845 2.53947 2.52335 2.49082 545.529 603.244 627.759 593.278 550.656 516.037 428.47 260.543 132.712 74.8266 56.6414 53.1475 49.7855 34.9546 21.8784 15.1126 11.4742 9.26424 7.79272 6.6473 5.65462 4.79311 4.05357 3.48775 3.11283 2.86764 2.68464 2.58427 2.56246 2.53277 434.994 488.523 513.44 473.794 425.864 431.386 431.138 326.909 170.366 96.4571 74.7069 80.8135 77.8163 56.3038 33.4868 19.685 12.5877 9.40146 7.65655 6.45189 5.51324 4.74191 4.07897 3.57442 3.20987 2.9216 2.722 2.60667 2.54617 2.55807 334.874 374.383 381.127 324.323 257.873 263.095 327.858 342.44 267.963 165.456 120.047 122.611 118.63 88.0151 51.6026 29.91 18.0785 11.7012 8.67388 7.04501 5.96432 5.15023 4.47342 3.88927 3.40089 2.99763 2.72538 2.55729 2.43708 2.51217 253.639 280.12 258.194 184.796 131.587 133.628 170.65 267.042 285.586 251.651 209.13 189.365 168.108 124.686 75.4651 43.9437 27.0518 17.8171 12.68 9.71637 7.83826 6.50752 5.4603 4.56829 3.7895 3.16512 2.74455 2.47708 2.30461 2.41567 194.218 207.682 166.737 95.8545 71.57 75.0673 96.3652 164.292 250.801 268.41 259.977 241.483 207.723 153.028 96.2863 58.4419 37.329 25.3979 18.2839 13.8122 10.7993 8.61411 6.9117 5.5205 4.36255 3.42517 2.78145 2.40922 2.19889 2.32283 152.432 152.141 94.131 54.3088 49.0144 56.5997 74.4422 119.004 208.006 259.747 263.029 251.934 217.773 160.525 103.276 64.7512 42.8176 30.2471 22.4144 17.125 13.3164 10.427 8.14447 6.29887 4.80188 3.63108 2.7953 2.35964 2.13219 2.24551 122.363 102.978 51.9916 39.5169 39.4194 52.9817 80.5899 122.161 188.948 241.346 251.894 237.468 199.015 144.216 94.7364 61.6266 42.14 30.5084 23.0953 17.9337 14.0834 11.0549 8.59419 6.56921 4.92747 3.67019 2.76332 2.30865 2.065 2.16343 99.7733 69.365 37.5043 31.9034 33.7006 49.679 77.6455 118.449 167.887 207.438 217.459 198.758 158.061 108.875 71.0484 48.0736 34.437 26.0762 20.6047 16.6209 13.4259 10.7295 8.41451 6.43441 4.80235 3.56314 2.6785 2.23497 1.99308 2.07226 83.2857 53.484 29.9493 25.3107 25.597 34.8225 56.0237 87.5273 124.003 152.213 159.75 143.667 108.625 73.4746 48.648 33.4969 24.5066 19.1184 15.6742 13.1925 11.1414 9.28631 7.52674 5.87551 4.4394 3.34583 2.55876 2.15804 1.92027 1.97429 71.0186 47.9898 25.4164 20.0053 19.1712 21.8168 33.2707 51.145 74.7198 95.4175 102.491 94.1979 70.7994 48.5901 32.8449 23.1187 17.2832 13.7823 11.5246 9.92098 8.6138 7.42517 6.23393 5.04428 3.96311 3.0807 2.4468 2.09538 1.86018 1.87838 60.3335 45.3754 23.0456 16.3729 14.8274 15.1023 19.5673 29.6553 43.4962 57.8864 64.2426 61.2533 47.9071 33.4644 23.1256 16.7376 12.9445 10.6425 9.08288 7.91977 6.94641 6.0906 5.24097 4.38321 3.57139 2.85878 2.37431 2.02474 1.79994 1.78434 49.6901 42.4393 23.2443 14.4111 11.9017 11.4758 12.5486 17.9423 26.81 37.0072 42.5177 41.9074 34.3441 24.5031 17.2973 12.9508 10.4029 8.77365 7.59288 6.66811 5.89723 5.20304 4.54672 3.88925 3.26683 2.7203 2.28043 1.93549 1.73591 1.70153 38.7712 37.3886 24.3708 14.0439 10.3213 9.26881 9.39473 11.6408 17.6863 25.2072 30.0631 30.3591 26.015 19.1146 13.7912 10.6578 8.7765 7.52075 6.5973 5.82955 5.18242 4.60545 4.05282 3.52876 3.01329 2.56312 2.15363 1.83769 1.67152 1.63127 28.4226 29.6927 23.7838 13.9312 9.31143 7.79892 7.65504 8.64727 12.6055 18.1673 22.2943 22.9946 20.5554 15.6675 11.5341 9.10312 7.6132 6.59326 5.8458 5.22289 4.64638 4.15084 3.67143 3.22476 2.797 2.38958 2.01673 1.74808 1.61289 1.57334 19.8479 21.3208 20.4285 13.0715 8.2736 6.65285 6.45122 7.02953 9.66918 13.7371 17.0439 17.8636 16.5802 13.1874 9.93809 7.93956 6.68925 5.84871 5.21565 4.69584 4.21314 3.76231 3.3483 2.95187 2.58447 2.22 1.89211 1.67208 1.56312 1.52736 13.5807 14.4367 15.2613 10.9969 7.02803 5.65826 5.51223 5.95368 7.80628 10.7498 13.2606 14.0334 13.3918 11.1343 8.62688 6.97147 5.91137 5.19645 4.66172 4.2068 3.79424 3.40929 3.05786 2.70376 2.38799 2.07103 1.79257 1.61266 1.52471 1.4938 9.37671 9.67168 10.5601 8.38655 5.72799 4.79475 4.74045 5.14222 6.48531 8.5811 10.3887 11.0201 10.7025 9.27809 7.43104 6.10791 5.22901 4.61206 4.14727 3.76115 3.40709 3.04915 2.74727 2.44952 2.18419 1.92379 1.70232 1.56855 1.49923 1.47206 6.65391 6.62638 7.18353 6.11301 4.57819 4.05362 4.07714 4.46698 5.44521 6.89003 8.11933 8.57063 8.39408 7.51719 6.23519 5.24103 4.54634 4.06897 3.68238 3.35159 3.05351 2.7365 2.47113 2.21218 1.99166 1.77951 1.62406 1.52509 1.4767 1.45616 4.88941 4.71604 4.99048 4.46135 3.6863 3.48715 3.57265 3.8845 4.55851 5.50695 6.28343 6.55424 6.42083 5.86556 5.03904 4.38644 3.89033 3.52438 3.22787 2.95293 2.70976 2.44452 2.20403 2.00013 1.81556 1.65401 1.55059 1.48388 1.4545 1.44756 3.76438 3.58991 3.67422 3.42521 3.15799 3.11206 3.20832 3.39812 3.78388 4.35471 4.7932 4.91921 4.79522 4.43426 3.95811 3.56744 3.26843 3.01775 2.7971 2.58042 2.38094 2.18496 1.98702 1.81016 1.65677 1.54177 1.47438 1.43765 1.42993 1.43737 3.15616 3.0242 3.02971 2.92231 2.84454 2.86683 2.92076 2.99611 3.16259 3.42107 3.62667 3.66625 3.55988 3.34301 3.07817 2.85659 2.71978 2.5641 2.39073 2.22073 2.072 1.92117 1.78048 1.65185 1.54049 1.42826 1.36834 1.3597 1.37573 1.41412 2.81963 2.71909 2.70164 2.66375 2.64803 2.68392 2.72137 2.72471 2.7434 2.77974 2.7935 2.76175 2.67725 2.55774 2.44629 2.37451 2.28018 2.15234 2.01498 1.89115 1.79151 1.70153 1.62382 1.54947 1.47348 1.3671 1.28171 1.25124 1.27053 1.34995 2.60488 2.52739 2.51971 2.51732 2.53891 2.58363 2.60626 2.55713 2.47668 2.40851 2.35885 2.30787 2.23436 2.15778 2.09541 2.02457 1.93534 1.83761 1.74762 1.67153 1.61218 1.56786 1.52449 1.48333 1.43693 1.35862 1.25028 1.16835 1.14711 1.22188 2.51566 2.45955 2.45348 2.47699 2.52245 2.56172 2.54592 2.43722 2.30466 2.19866 2.13179 2.06453 1.99265 1.91998 1.86008 1.8 1.73596 1.67172 1.61316 1.56328 1.52462 1.49868 1.47593 1.4541 1.42983 1.37451 1.26904 1.14678 1.08993 1.06062 2.46321 2.428 2.41179 2.43837 2.48995 2.53209 2.55765 2.51206 2.41582 2.32296 2.24547 2.16322 2.07195 1.97395 1.87799 1.78406 1.70143 1.63143 1.57363 1.52757 1.49387 1.47201 1.45587 1.44725 1.43758 1.41274 1.3502 1.22069 1.06011 1.1198
				</DataArray>
				<DataArray Name="F1" type="Float32" format="ascii">
 1 1 1 1 1 1 1 1 1 1 1 1 1 1 1 1 1 1 1 1 1 1 1 1 1 1 1 1 1 1 1 1 1 1 1 1 1 1 1 1 1 1 1 1 1 1 1 1 1 1 1 1 1 1 1 1 1 1 1 1 1 1 1 1 1 1 1 1 1 1 1 1 1 1 1 1 1 1 1 1 1 1 1 1 1 1 1 1 1 1 1 1 1 1 1 1 1 1 1 1 1 1 1 1 1 1 1 1 1 1 1 1 1 1 1 1 1 1 1 1 1 1 1 1 1 1 1 1 1 1 1 1 1 1 1 1 1 1 1 1 1 1 1 1 1 1 1 1 1 1 1 1 1 1 1 1 1 1 1 1 1 1 1 1 1 1 1 1 1 1 1 1 1 1 1 1 1 1 1 1 1 1 1 1 1 1 1 1 1 1 1 1 1 1 1 1 1 1 1 1 1 1 1 1 1 1 1 1 1 1 1 1 1 1 1 1 1 1 1 1 1 1 1 1 1 1 1 1 1 1 1 1 1 1 1 1 1 1 1 1 1 1 1 1 1 1 1 1 1 1 1 1 1 1 1 1 1 1 1 1 1 1 1 1 1 1 1 1 1 1 1 1 1 1 1 1 1 1 1 1 1 1 1 1 1 1 1 1 1 1 1 1 1 1 1 1 1 1 1 1 1 1 1 1 1 1 1 1 1 1 1 1 1 1 1 1 1 1 1 1 1 1 1 1 1 1 1 1 1 1 1 1 1 1 1 1 1 1 1 1 1 1 1 1 1 1 1 1 1 1 1 1 1 1 1 1 1 1 1 1 1 1 1 1 1 1 1 1 1 1 1 1 1 1 1 1 1 1 1 1 1 1 1 1 1 1 1 1 1 1 1 1 1 1 1 1 1 1 1 1 1 1 1 1 1 1 1 1 1 1 1 1 1 1 1 1 1 1 1 1 1 1 1 1 1 1 1 1 1 1 1 1 1 1 1 1 1 1 1 1 1 1 1 1 1 1 1 1 1 1 1 1 1 1 1 1 1 1 1 1 1 1 1 1 1 1 1 1 1 1 1 1 1 1 1 1 1 1 1 1 1 1 1 1 1 1 1 1 1 1 1 1 1 1 1 1 1 1 1 1 1 1 1 1 1 1 1 1 1 1 1 1 1 1 1 1 1 1 1 1 1 1 1 1 1 1 1 1 1 1 1 1 1 1 1 1 1 1 1 1 1 1 1 1 1 1 1 1 1 1 1 1 1 1 1 1 1 1 1 1 1 1 1 1 1 1 1 1 1 1 1 1 1 1 1 1 1 1 1 1 1 1 1 1 1 1 1 1 1 1 1 1 1 1 1 1 1 1 1 1 1 1 1 1 1 1 1 1 1 1 1 1 1 1 1 1 1 1 1 1 1 1 1 1 1 1 1 1 1 1 1 1 1 1 1 1 1 1 1 1 1 1 1 1 1 1 1 1 1 1 1 1 1 1 1 1 1 1 1 1 1 1 1 1 1 1 1 1 1 1 1 1 1 1 1 1 1 1 1 1 1 1 1 1 1 1 1 1 1 1 1 1 1 1 1 1 1 1 1 1 1 1 1 1 1 1 1 1 1 1 1 1 1 1 1 1 1 1 1 1 1 1 1 1 1 1 1 1 1 1 1 1 1 1 1 1 1 1 1 1 1 1 1 1 1 1 1 1 1 1 1 1 1 1 1 1 1 1 1 1 1 1 1 1 1 1 1 1 1 1 1 1 1 1 1 1 1 1 1 1 1 1 1 1 1 1 1 1 1 1 1 1 1 1 1 1 1 1 1 1 1 1 1 1 1 1 1 1 1 1 1 1 1 1 1 1 1 1 1 1 1 1 1 1 1 1 1 1 1 1 1 1 1 1 1 1 1 1 1 1 1 1 1 1 1 1 1 1 1 1 1 1 1 1 1 1 1 1 1 1 1 1 1 1 1 1 1 1 1 1 1 1 1 1 1 1 1 1 1 1 1 1 1 1 1 1 1 1 1 1 1 1 1 1 1 1 1 1 1 1
				</DataArray>
				<DataArray Name="F2" type="Float32" format="ascii">
 0 0 0 0 0 0 0 0 0 0 0 0 0 0 0 0 0 0 0 0 0 0 0 0 0 0 0 0 0 0 0 0 0 0 0 0 0 0 0 0 0 0 0 0 0 0 0 0 0 0 0 0 0 0 0 0 0 0 0 0 0 0 0 0 0 0 0 0 0 0 0 0 0 0 0 0 0 0 0 0 0 0 0 0 0 0 0 0 0 0 0 0 0 0 0 0 0 0 0 0 0 0 0 0 0 0 0 0 0 0 0 0 0 0 0 0 0 0 0 0 0 0 0 0 0 0 0 0 0 0 0 0 0 0 0 0 0 0 0 0 0 0 0 0 0 0 0 0 0 0 0 0 0 0 0 0 0 0 0 0 0 0 0 0 0 0 0 0 0 0 0 0 0 0 0 0 0 0 0 0 0 0 0 0 0 0 0 0 0 0 0 0 0 0 0 0 0 0 0 0 0 0 0 0 0 0 0 0 0 0 0 0 0 0 0 0 0 0 0 0 0 0 0 0 0 0 0 0 0 0 0 0 0 0 0 0 0 0 0 0 0 0 0 0 0 0 0 0 0 0 0 0 0 0 0 0 0 0 0 0 0 0 0 0 0 0 0 0 0 0 0 0 0 0 0 0 0 0 0 0 0 0 0 0 0 0 0 0 0 0 0 0 0 0 0 0 0 0 0 0 0 0 0 0 0 0 0 0 0 0 0 0 0 0 0 0 0 0 0 0 0 0 0 0 0 0 0 0 0 0 0 0 0 0 0 0 0 0 0 0 0 0 0 0 0 0 0 0 0 0 0 0 0 0 0 0 0 0 0 0 0 0 0 0 0 0 0 0 0 0 0 0 0 0 0 0 0 0 0 0 0 0 0 0 0 0 0 0 0 0 0 0 0 0 0 0 0 0 0 0 0 0 0 0 0 0 0 0 0 0 0 0 0 0 0 0 0 0 0 0 0 0 0 0 0 0 0 0 0 0 0 0 0 0 0 0 0 0 0 0 0 0 0 0 0 0 0 0 0 0 0 0 0 0 0 0 0 0 0 0 0 0 0 0 0 0 0 0 0 0 0 0 0 0 0 0 0 0 0 0 0 0 0 0 0 0 0 0 0 0 0 0 0 0 0 0 0 0 0 0 0 0 0 0 0 0 0 0 0 0 0 0 0 0 0 0 0 0 0 0 0 0 0 0 0 0 0 0 0 0 0 0 0 0 0 0 0 0 0 0 0 0 0 0 0 0 0 0 0 0 0 0 0 0 0 0 0 0 0 0 0 0 0 0 0 0 0 0 0 0 0 0 0 0 0 0 0 0 0 0 0 0 0 0 0 0 0 0 0 0 0 0 0 0 0 0 0 0 0 0 0 0 0 0 0 0 0 0 0 0 0 0 0 0 0 0 0 0 0 0 0 0 0 0 0 0 0 0 0 0 0 0 0 0 0 0 0 0 0 0 0 0 0 0 0 0 0 0 0 0 0 0 0 0 0 0 0 0 0 0 0 0 0 0 0 0 0 0 0 0 0 0 0 0 0 0 0 0 0 0 0 0 0 0 0 0 0 0 0 0 0 0 0 0 0 0 0 0 0 0 0 0 0 0 0 0 0 0 0 0 0 0 0 0 0 0 0 0 0 0 0 0 0 0 0 0 0 0 0 0 0 0 0 0 0 0 0 0 0 0 0 0 0 0 0 0 0 0 0 0 0 0 0 0 0 0 0 0 0 0 0 0 0 0 0 0 0 0 0 0 0 0 0 0 0 0 0 0 0 0 0 0 0 0 0 0 0 0 0 0 0 0 0 0 0 0 0 0 0 0 0 0 0 0 0 0 0 0 0 0 0 0 0 0 0 0 0 0 0 0 0 0 0 0 0 0 0 0 0 0 0 0 0 0 0 0 0 0 0 0 0 0 0 0 0 0 0 0 0 0 0 0 0 0 0 0 0 0 0 0 0 0 0 0 0 0 0 0 0 0 0 0 0 0 0 0 0 0 0 0 0 0 0 0 0 0 0 0 0 0 0 0 0 0 0 0 0 0 0 0
				</DataArray>
				<DataArray Name="F3" type="Float32" format="ascii">