<?xml version="1.0"?>
<VTKFile type="PolyData">
	<PolyData>
		<Piece NumberOfPoints="961" NumberOfPolys="900">
			<Points>
				<DataArray type="Float32" NumberOfComponents="3" format="ascii">
 0 0 0 0.04 0 0 0.08 0 0 0.12 0 0 0.16 0 0 0.2 0 0 0.24 0 0 0.28 0 0 0.32 0 0 0.36 0 0 0.4 0 0 0.44 0 0 0.48 0 0 0.52 0 0 0.56 0 0 0.6 0 0 0.64 0 0 0.68 0 0 0.72 0 0 0.76 0 0 0.8 0 0 0.84 0 0 0.88 0 0 0.92 0 0 0.96 0 0 1 0 0 1.04 0 0 1.08 0 0 1.12 0 0 1.16 0 0 1.2 0 0 0 0.04 0 0.04 0.04 0 0.08 0.04 0 0.12 0.04 0 0.16 0.04 0 0.2 0.04 0 0.24 0.04 0 0.28 0.04 0 0.32 0.04 0 0.36 0.04 0 0.4 0.04 0 0.44 0.04 0 0.48 0.04 0 0.52 0.04 0 0.56 0.04 0 0.6 0.04 0 0.64 0.04 0 0.68 0.04 0 0.72 0.04 0 0.76 0.04 0 0.8 0.04 0 0.84 0.04 0 0.88 0.04 0 0.92 0.04 0 0.96 0.04 0 1 0.04 0 1.04 0.04 0 1.08 0.04 0 1.12 0.04 0 1.16 0.04 0 1.2 0.04 0 0 0.08 0 0.04 0.08 0 0.08 0.08 0 0.12 0.08 0 0.16 0.08 0 0.2 0.08 0 0.24 0.08 0 0.28 0.08 0 0.32 0.08 0 0.36 0.08 0 0.4 0.08 0 0.44 0.08 0 0.48 0.08 0 0.52 0.08 0 0.56 0.08 0 0.6 0.08 0 0.64 0.08 0 0.68 0.08 0 0.72 0.08 0 0.76 0.08 0 0.8 0.08 0 0.84 0.08 0 0.88 0.08 0 0.92 0.08 0 0.96 0.08 0 1 0.08 0 1.04 0.08 0 1.08 0.08 0 1.12 0.08 0 1.16 0.08 0 1.2 0.08 0 0 0.12 0 0.04 0.12 0 0.08 0.12 0 0.12 0.12 0 0.16 0.12 0 0.2 0.12 0 0.24 0.12 0 0.28 0.12 0 0.32 0.12 0 0.36 0.12 0 0.4 0.12 0 0.44 0.12 0 0.48 0.12 0 0.52 0.12 0 0.56 0.12 0 0.6 0.12 0 0.64 0.12 0 0.68 0.12 0 0.72 0.12 0 0.76 0.12 0 0.8 0.12 0 0.84 0.12 0 0.88 0.12 0 0.92 0.12 0 0.96 0.12 0 1 0.12 0 1.04 0.12 0 1.08 0.12 0 1.12 0.12 0 1.16 0.12 0 1.2 0.12 0 0 0.16 0 0.04 0.16 0 0.08 0.16 0 0.12 0.16 0 0.16 0.16 0 0.2 0.16 0 0.24 0.16 0 0.28 0.16 0 0.32 0.16 0 0.36 0.16 0 0.4 0.16 0 0.44 0.16 0 0.48 0.16 0 0.52 0.16 0 0.56 0.16 0 0.6 0.16 0 0.64 0.16 0 0.68 0.16 0 0.72 0.16 0 0.76 0.16 0 0.8 0.16 0 0.84 0.16 0 0.88 0.16 0 0.92 0.16 0 0.96 0.16 0 1 0.16 0 1.04 0.16 0 1.08 0.16 0 1.12 0.16 0 1.16 0.16 0 1.2 0.16 0 0 0.2 0 0.04 0.2 0 0.08 0.2 0 0.12 0.2 0 0.16 0.2 0 0.2 0.2 0 0.24 0.2 0 0.28 0.2 0 0.32 0.2 0 0.36 0.2 0 0.4 0.2 0 0.44 0.2 0 0.48 0.2 0 0.52 0.2 0 0.56 0.2 0 0.6 0.2 0 0.64 0.2 0 0.68 0.2 0 0.72 0.2 0 0.76 0.2 0 0.8 0.2 0 0.84 0.2 0 0.88 0.2 0 0.92 0.2 0 0.96 0.2 0 1 0.2 0 1.04 0.2 0 1.08 0.2 0 1.12 0.2 0 1.16 0.2 0 1.2 0.2 0 0 0.24 0 0.04 0.24 0 0.08 0.24 0 0.12 0.24 0 0.16 0.24 0 0.2 0.24 0 0.24 0.24 0 0.28 0.24 0 0.32 0.24 0 0.36 0.24 0 0.4 0.24 0 0.44 0.24 0 0.48 0.24 0 0.52 0.24 0 0.56 0.24 0 0.6 0.24 0 0.64 0.24 0 0.68 0.24 0 0.72 0.24 0 0.76 0.24 0 0.8 0.24 0 0.84 0.24 0 0.88 0.24 0 0.92 0.24 0 0.96 0.24 0 1 0.24 0 1.04 0.24 0 1.08 0.24 0 1.12 0.24 0 1.16 0.24 0 1.2 0.24 0 0 0.28 0 0.04 0.28 0 0.08 0.28 0 0.12 0.28 0 0.16 0.28 0 0.2 0.28 0 0.24 0.28 0 0.28 0.28 0 0.32 0.28 0 0.36 0.28 0 0.4 0.28 0 0.44 0.28 0 0.48 0.28 0 0.52 0.28 0 0.56 0.28 0 0.6 0.28 0 0.64 0.28 0 0.68 0.28 0 0.72 0.28 0 0.76 0.28 0 0.8 0.28 0 0.84 0.28 0 0.88 0.28 0 0.92 0.28 0 0.96 0.28 0 1 0.28 0 1.04 0.28 0 1.08 0.28 0 1.12 0.28 0 1.16 0.28 0 1.2 0.28 0 0 0.32 0 0.04 0.32 0 0.08 0.32 0 0.12 0.32 0 0.16 0.32 0 0.2 0.32 0 0.24 0.32 0 0.28 0.32 0 0.32 0.32 0 0.36 0.32 0 0.4 0.32 0 0.44 0.32 0 0.48 0.32 0 0.52 0.32 0 0.56 0.32 0 0.6 0.32 0 0.64 0.32 0 0.68 0.32 0 0.72 0.32 0 0.76 0.32 0 0.8 0.32 0 0.84 0.32 0 0.88 0.32 0 0.92 0.32 0 0.96 0.32 0 1 0.32 0 1.04 0.32 0 1.08 0.32 0 1.12 0.32 0 1.16 0.32 0 1.2 0.32 0 0 0.36 0 0.04 0.36 0 0.08 0.36 0 0.12 0.36 0 0.16 0.36 0 0.2 0.36 0 0.24 0.36 0 0.28 0.36 0 0.32 0.36 0 0.36 0.36 0 0.4 0.36 0 0.44 0.36 0 0.48 0.36 0 0.52 0.36 0 0.56 0.36 0 0.6 0.36 0 0.64 0.36 0 0.68 0.36 0 0.72 0.36 0 0.76 0.36 0 0.8 0.36 0 0.84 0.36 0 0.88 0.36 0 0.92 0.36 0 0.96 0.36 0 1 0.36 0 1.04 0.36 0 1.08 0.36 0 1.12 0.36 0 1.16 0.36 0 1.2 0.36 0 0 0.4 0 0.04 0.4 0 0.08 0.4 0 0.12 0.4 0 0.16 0.4 0 0.2 0.4 0 0.24 0.4 0 0.28 0.4 0 0.32 0.4 0 0.36 0.4 0 0.4 0.4 0 0.44 0.4 0 0.48 0.4 0 0.52 0.4 0 0.56 0.4 0 0.6 0.4 0 0.64 0.4 0 0.68 0.4 0 0.72 0.4 0 0.76 0.4 0 0.8 0.4 0 0.84 0.4 0 0.88 0.4 0 0.92 0.4 0 0.96 0.4 0 1 0.4 0 1.04 0.4 0 1.08 0.4 0 1.12 0.4 0 1.16 0.4 0 1.2 0.4 0 0 0.44 0 0.04 0.44 0 0.08 0.44 0 0.12 0.44 0 0.16 0.44 0 0.2 0.44 0 0.24 0.44 0 0.28 0.44 0 0.32 0.44 0 0.36 0.44 0 0.4 0.44 0 0.44 0.44 0 0.48 0.44 0 0.52 0.44 0 0.56 0.44 0 0.6 0.44 0 0.64 0.44 0 0.68 0.44 0 0.72 0.44 0 0.76 0.44 0 0.8 0.44 0 0.84 0.44 0 0.88 0.44 0 0.92 0.44 0 0.96 0.44 0 1 0.44 0 1.04 0.44 0 1.08 0.44 0 1.12 0.44 0 1.16 0.44 0 1.2 0.44 0 0 0.48 0 0.04 0.48 0 0.08 0.48 0 0.12 0.48 0 0.16 0.48 0 0.2 0.48 0 0.24 0.48 0 0.28 0.48 0 0.32 0.48 0 0.36 0.48 0 0.4 0.48 0 0.44 0.48 0 0.48 0.48 0 0.52 0.48 0 0.56 0.48 0 0.6 0.48 0 0.64 0.48 0 0.68 0.48 0 0.72 0.48 0 0.76 0.48 0 0.8 0.48 0 0.84 0.48 0 0.88 0.48 0 0.92 0.48 0 0.96 0.48 0 1 0.48 0 1.04 0.48 0 1.08 0.48 0 1.12 0.48 0 1.16 0.48 0 1.2 0.48 0 0 0.52 0 0.04 0.52 0 0.08 0.52 0 0.12 0.52 0 0.16 0.52 0 0.2 0.52 0 0.24 0.52 0 0.28 0.52 0 0.32 0.52 0 0.36 0.52 0 0.4 0.52 0 0.44 0.52 0 0.48 0.52 0 0.52 0.52 0 0.56 0.52 0 0.6 0.52 0 0.64 0.52 0 0.68 0.52 0 0.72 0.52 0 0.76 0.52 0 0.8 0.52 0 0.84 0.52 0 0.88 0.52 0 0.92 0.52 0 0.96 0.52 0 1 0.52 0 1.04 0.52 0 1.08 0.52 0 1.12 0.52 0 1.16 0.52 0 1.2 0.52 0 0 0.56 0 0.04 0.56 0 0.08 0.56 0 0.12 0.56 0 0.16 0.56 0 0.2 0.56 0 0.24 0.56 0 0.28 0.56 0 0.32 0.56 0 0.36 0.56 0 0.4 0.56 0 0.44 0.56 0 0.48 0.56 0 0.52 0.56 0 0.56 0.56 0 0.6 0.56 0 0.64 0.56 0 0.68 0.56 0 0.72 0.56 0 0.76 0.56 0 0.8 0.56 0 0.84 0.56 0 0.88 0.56 0 0.92 0.56 0 0.96 0.56 0 1 0.56 0 1.04 0.56 0 1.08 0.56 0 1.12 0.56 0 1.16 0.56 0 1.2 0.56 0 0 0.6 0 0.04 0.6 0 0.08 0.6 0 0.12 0.6 0 0.16 0.6 0 0.2 0.6 0 0.24 0.6 0 0.28 0.6 0 0.32 0.6 0 0.36 0.6 0 0.4 0.6 0 0.44 0.6 0 0.48 0.6 0 0.52 0.6 0 0.56 0.6 0 0.6 0.6 0 0.64 0.6 0 0.68 0.6 0 0.72 0.6 0 0.76 0.6 0 0.8 0.6 0 0.84 0.6 0 0.88 0.6 0 0.92 0.6 0 0.96 0.6 0 1 0.6 0 1.04 0.6 0 1.08 0.6 0 1.12 0.6 0 1.16 0.6 0 1.2 0.6 0 0 0.64 0 0.04 0.64 0 0.08 0.64 0 0.12 0.64 0 0.16 0.64 0 0.2 0.64 0 0.24 0.64 0 0.28 0.64 0 0.32 0.64 0 0.36 0.64 0 0.4 0.64 0 0.44 0.64 0 0.48 0.64 0 0.52 0.64 0 0.56 0.64 0 0.6 0.64 0 0.64 0.64 0 0.68 0.64 0 0.72 0.64 0 0.76 0.64 0 0.8 0.64 0 0.84 0.64 0 0.88 0.64 0 0.92 0.64 0 0.96 0.64 0 1 0.64 0 1.04 0.64 0 1.08 0.64 0 1.12 0.64 0 1.16 0.64 0 1.2 0.64 0 0 0.68 0 0.04 0.68 0 0.08 0.68 0 0.12 0.68 0 0.16 0.68 0 0.2 0.68 0 0.24 0.68 0 0.28 0.68 0 0.32 0.68 0 0.36 0.68 0 0.4 0.68 0 0.44 0.68 0 0.48 0.68 0 0.52 0.68 0 0.56 0.68 0 0.6 0.68 0 0.64 0.68 0 0.68 0.68 0 0.72 0.68 0 0.76 0.68 0 0.8 0.68 0 0.84 0.68 0 0.88 0.68 0 0.92 0.68 0 0.96 0.68 0 1 0.68 0 1.04 0.68 0 1.08 0.68 0 1.12 0.68 0 1.16 0.68 0 1.2 0.68 0 0 0.72 0 0.04 0.72 0 0.08 0.72 0 0.12 0.72 0 0.16 0.72 0 0.2 0.72 0 0.24 0.72 0 0.28 0.72 0 0.32 0.72 0 0.36 0.72 0 0.4 0.72 0 0.44 0.72 0 0.48 0.72 0 0.52 0.72 0 0.56 0.72 0 0.6 0.72 0 0.64 0.72 0 0.68 0.72 0 0.72 0.72 0 0.76 0.72 0 0.8 0.72 0 0.84 0.72 0 0.88 0.72 0 0.92 0.72 0 0.96 0.72 0 1 0.72 0 1.04 0.72 0 1.08 0.72 0 1.12 0.72 0 1.16 0.72 0 1.2 0.72 0 0 0.76 0 0.04 0.76 0 0.08 0.76 0 0.12 0.76 0 0.16 0.76 0 0.2 0.76 0 0.24 0.76 0 0.28 0.76 0 0.32 0.76 0 0.36 0.76 0 0.4 0.76 0 0.44 0.76 0 0.48 0.76 0 0.52 0.76 0 0.56 0.76 0 0.6 0.76 0 0.64 0.76 0 0.68 0.76 0 0.72 0.76 0 0.76 0.76 0 0.8 0.76 0 0.84 0.76 0 0.88 0.76 0 0.92 0.76 0 0.96 0.76 0 1 0.76 0 1.04 0.76 0 1.08 0.76 0 1.12 0.76 0 1.16 0.76 0 1.2 0.76 0 0 0.8 0 0.04 0.8 0 0.08 0.8 0 0.12 0.8 0 0.16 0.8 0 0.2 0.8 0 0.24 0.8 0 0.28 0.8 0 0.32 0.8 0 0.36 0.8 0 0.4 0.8 0 0.44 0.8 0 0.48 0.8 0 0.52 0.8 0 0.56 0.8 0 0.6 0.8 0 0.64 0.8 0 0.68 0.8 0 0.72 0.8 0 0.76 0.8 0 0.8 0.8 0 0.84 0.8 0 0.88 0.8 0 0.92 0.8 0 0.96 0.8 0 1 0.8 0 1.04 0.8 0 1.08 0.8 0 1.12 0.8 0 1.16 0.8 0 1.2 0.8 0 0 0.84 0 0.04 0.84 0 0.08 0.84 0 0.12 0.84 0 0.16 0.84 0 0.2 0.84 0 0.24 0.84 0 0.28 0.84 0 0.32 0.84 0 0.36 0.84 0 0.4 0.84 0 0.44 0.84 0 0.48 0.84 0 0.52 0.84 0 0.56 0.84 0 0.6 0.84 0 0.64 0.84 0 0.68 0.84 0 0.72 0.84 0 0.76 0.84 0 0.8 0.84 0 0.84 0.84 0 0.88 0.84 0 0.92 0.84 0 0.96 0.84 0 1 0.84 0 1.04 0.84 0 1.08 0.84 0 1.12 0.84 0 1.16 0.84 0 1.2 0.84 0 0 0.88 0 0.04 0.88 0 0.08 0.88 0 0.12 0.88 0 0.16 0.88 0 0.2 0.88 0 0.24 0.88 0 0.28 0.88 0 0.32 0.88 0 0.36 0.88 0 0.4 0.88 0 0.44 0.88 0 0.48 0.88 0 0.52 0.88 0 0.56 0.88 0 0.6 0.88 0 0.64 0.88 0 0.68 0.88 0 0.72 0.88 0 0.76 0.88 0 0.8 0.88 0 0.84 0.88 0 0.88 0.88 0 0.92 0.88 0 0.96 0.88 0 1 0.88 0 1.04 0.88 0 1.08 0.88 0 1.12 0.88 0 1.16 0.88 0 1.2 0.88 0 0 0.92 0 0.04 0.92 0 0.08 0.92 0 0.12 0.92 0 0.16 0.92 0 0.2 0.92 0 0.24 0.92 0 0.28 0.92 0 0.32 0.92 0 0.36 0.92 0 0.4 0.92 0 0.44 0.92 0 0.48 0.92 0 0.52 0.92 0 0.56 0.92 0 0.6 0.92 0 0.64 0.92 0 0.68 0.92 0 0.72 0.92 0 0.76 0.92 0 0.8 0.92 0 0.84 0.92 0 0.88 0.92 0 0.92 0.92 0 0.96 0.92 0 1 0.92 0 1.04 0.92 0 1.08 0.92 0 1.12 0.92 0 1.16 0.92 0 1.2 0.92 0 0 0.96 0 0.04 0.96 0 0.08 0.96 0 0.12 0.96 0 0.16 0.96 0 0.2 0.96 0 0.24 0.96 0 0.28 0.96 0 0.32 0.96 0 0.36 0.96 0 0.4 0.96 0 0.44 0.96 0 0.48 0.96 0 0.52 0.96 0 0.56 0.96 0 0.6 0.96 0 0.64 0.96 0 0.68 0.96 0 0.72 0.96 0 0.76 0.96 0 0.8 0.96 0 0.84 0.96 0 0.88 0.96 0 0.92 0.96 0 0.96 0.96 0 1 0.96 0 1.04 0.96 0 1.08 0.96 0 1.12 0.96 0 1.16 0.96 0 1.2 0.96 0 0 1 0 0.04 1 0 0.08 1 0 0.12 1 0 0.16 1 0 0.2 1 0 0.24 1 0 0.28 1 0 0.32 1 0 0.36 1 0 0.4 1 0 0.44 1 0 0.48 1 0 0.52 1 0 0.56 1 0 0.6 1 0 0.64 1 0 0.68 1 0 0.72 1 0 0.76 1 0 0.8 1 0 0.84 1 0 0.88 1 0 0.92 1 0 0.96 1 0 1 1 0 1.04 1 0 1.08 1 0 1.12 1 0 1.16 1 0 1.2 1 0 0 1.04 0 0.04 1.04 0 0.08 1.04 0 0.12 1.04 0 0.16 1.04 0 0.2 1.04 0 0.24 1.04 0 0.28 1.04 0 0.32 1.04 0 0.36 1.04 0 0.4 1.04 0 0.44 1.04 0 0.48 1.04 0 0.52 1.04 0 0.56 1.04 0 0.6 1.04 0 0.64 1.04 0 0.68 1.04 0 0.72 1.04 0 0.76 1.04 0 0.8 1.04 0 0.84 1.04 0 0.88 1.04 0 0.92 1.04 0 0.96 1.04 0 1 1.04 0 1.04 1.04 0 1.08 1.04 0 1.12 1.04 0 1.16 1.04 0 1.2 1.04 0 0 1.08 0 0.04 1.08 0 0.08 1.08 0 0.12 1.08 0 0.16 1.08 0 0.2 1.08 0 0.24 1.08 0 0.28 1.08 0 0.32 1.08 0 0.36 1.08 0 0.4 1.08 0 0.44 1.08 0 0.48 1.08 0 0.52 1.08 0 0.56 1.08 0 0.6 1.08 0 0.64 1.08 0 0.68 1.08 0 0.72 1.08 0 0.76 1.08 0 0.8 1.08 0 0.84 1.08 0 0.88 1.08 0 0.92 1.08 0 0.96 1.08 0 1 1.08 0 1.04 1.08 0 1.08 1.08 0 1.12 1.08 0 1.16 1.08 0 1.2 1.08 0 0 1.12 0 
[...]
			<CellData Scalars="Density">
				<DataArray Name="Density" type="Float32" format="ascii">
 0.00494771 0.00504851 0.00530052 0.00579962 0.00664974 0.00797612 0.00993638 0.0127265 0.0165944 0.021765 0.0283793 0.0362904 0.0447878 0.0529482 0.0627655 0.0776688 0.0980062 0.127096 0.168177 0.22621 0.306543 0.415248 0.557901 0.739248 0.968082 1.26281 1.61544 1.92044 2.15402 2.27858 0.00504852 0.00512642 0.00533322 0.00576652 0.00651413 0.00772872 0.0095802 0.0122678 0.0160599 0.0212887 0.0281903 0.0366142 0.0458864 0.0550658 0.0653208 0.0806193 0.101173 0.130252 0.170983 0.228426 0.308809 0.419438 0.567148 0.755762 0.990753 1.2892 1.64269 1.94943 2.17884 2.27956 0.00530043 0.00533297 0.00544661 0.00576088 0.00636478 0.00733542 0.0089071 0.0113387 0.0149395 0.0199851 0.0266953 0.0349564 0.0441003 0.0536295 0.0636067 0.0776426 0.0967313 0.124057 0.162838 0.217587 0.294479 0.400785 0.543212 0.727913 0.962632 1.26177 1.62455 1.94676 2.1945 2.32647 0.00579885 0.00576539 0.00576005 0.00593715 0.00638551 0.00722287 0.00856526 0.0107186 0.0140063 0.0187556 0.0251931 0.0332522 0.0426941 0.053337 0.0645582 0.0797221 0.10022 0.128403 0.168401 0.224049 0.301316 0.40753 0.549846 0.734484 0.968921 1.26907 1.63694 1.96273 2.20653 2.31788 0.00664743 0.00651099 0.00636248 0.00638345 0.00665664 0.00728473 0.00848833 0.0104495 0.0135955 0.0182266 0.0245872 0.0327798 0.0426981 0.0541021 0.0665532 0.0819088 0.102552 0.130343 0.169944 0.224714 0.300594 0.404929 0.545239 0.727684 0.959325 1.25744 1.62237 1.94525 2.18894 2.31266 0.00797109 0.0077226 0.00732986 0.00721817 0.00728136 0.00760444 0.00846536 0.0101415 0.012901 0.0173334 0.0236359 0.0319243 0.0422616 0.0547815 0.0689669 0.0843564 0.105068 0.132788 0.172195 0.226451 0.301356 0.404322 0.542908 0.723786 0.954589 1.25171 1.61466 1.93377 2.1718 2.28919 0.00992729 0.00957031 0.00889734 0.00855585 0.00848105 0.0084589 0.00880969 0.00996764 0.0121769 0.0158872 0.0216385 0.0296384 0.0401802 0.0533693 0.0687189 0.0854668 0.106483 0.134158 0.173379 0.227806 0.302331 0.40415 0.540941 0.718996 0.947313 1.24202 1.59863 1.90853 2.13695 2.25171 0.0127123 0.0122529 0.0113253 0.0107032 0.0104359 0.010132 0.00996176 0.0104178 0.0118585 0.0147654 0.0195903 0.0269222 0.0370764 0.0503341 0.0668356 0.0857451 0.10677 0.133981 0.171964 0.225248 0.298114 0.397505 0.530683 0.704398 0.927291 1.21616 1.57645 1.89563 2.13027 2.24507 0.0165748 0.0160391 0.014921 0.0139854 0.0135765 0.0128807 0.0121682 0.011851 0.0122769 0.014177 0.0179241 0.0241555 0.0334924 0.046508 0.0634995 0.0840293 0.10643 0.133578 0.169784 0.221566 0.292231 0.388722 0.518471 0.687946 0.907559 1.19473 1.56961 1.913 2.16462 2.28596 0.0217416 0.0212606 0.0199617 0.0187288 0.018208 0.0172999 0.0158732 0.0147552 0.0141609 0.0146631 0.0171135 0.0220478 0.0301305 0.0421767 0.0588465 0.0803467 0.104818 0.132014 0.166259 0.21584 0.28437 0.377192 0.503476 0.669374 0.885795 1.17287 1.56658 1.95505 2.24317 2.37981 0.0283543 0.028159 0.0266665 0.0251639 0.0245669 0.0235869 0.0216279 0.0195781 0.0178999 0.0171059 0.0178268 0.0211603 0.0277664 0.0384634 0.0544712 0.0757086 0.101498 0.129538 0.163098 0.209766 0.276098 0.365791 0.487664 0.651548 0.867711 1.15847 1.56778 2.02218 2.36702 2.52572 0.0362711 0.0365819 0.034922 0.0332293 0.0327433 0.0318728 0.029633 0.0269167 0.0241196 0.0220256 0.0211414 0.0222604 0.0268437 0.0358494 0.050385 0.0710102 0.0975277 0.127168 0.160074 0.202979 0.266806 0.353685 0.471095 0.63091 0.847642 1.14235 1.56518 2.09714 2.52212 2.72026 0.0447833 0.0458733 0.0441 0.0426719 0.0426705 0.0422247 0.0401588 0.0370947 0.0334463 0.0300879 0.0277341 0.0268343 0.0286717 0.0351996 0.0475493 0.0672152 0.0934707 0.124774 0.158513 0.198714 0.25898 0.343185 0.458177 0.613595 0.828994 1.1308 1.56906 2.17295 2.69016 2.93913 0.0529634 0.055076 0.0536096 0.053328 0.0541331 0.0547388 0.0533631 0.0503763 0.0464594 0.042144 0.0384249 0.035844 0.0351859 0.0383871 0.0477125 0.064939 0.0906594 0.12315 0.158832 0.199332 0.254829 0.336264 0.447972 0.601828 0.816082 1.12191 1.57465 2.2487 2.87229 3.19087 0.0627805 0.0653363 0.0636465 0.0646011 0.0665474 0.0689135 0.0687689 0.0668363 0.0635346 0.0588344 0.0543863 0.050356 0.047526 0.0476641 0.0532731 0.0669705 0.0908823 0.12354 0.161148 0.202367 0.254586 0.335174 0.444732 0.597988 0.814315 1.12473 1.59316 2.32655 3.07303 3.47843 0.0776898 0.0806468 0.0776656 0.0796997 0.0819325 0.0844303 0.0855257 0.0857039 0.0840538 0.0802562 0.0757592 0.0710703 0.0670848 0.0648202 0.0668994 0.0765914 0.0972901 0.128736 0.168315 0.211662 0.261383 0.339985 0.449515 0.602221 0.821252 1.14074 1.62526 2.40252 3.283 3.80211 0.0980357 0.101201 0.09676 0.100258 0.102617 0.105071 0.106448 0.106903 0.106622 0.104842 0.101598 0.0973332 0.0934025 0.0906109 0.0907498 0.0971319 0.114424 0.144537 0.18405 0.230085 0.280622 0.355844 0.466375 0.621824 0.845328 1.17477 1.67505 2.48799 3.50446 4.16274 0.127136 0.130284 0.12409 0.128419 0.130352 0.132791 0.134245 0.134047 0.133437 0.13212 0.130022 0.127159 0.124908 0.122878 0.12325 0.128433 0.144302 0.173861 0.213764 0.26 0.314128 0.389459 0.501282 0.65929 0.886516 1.22492 1.73647 2.57431 3.72964 4.55696 0.168228 0.171022 0.162884 0.168421 0.16996 0.1722 0.173402 0.171955 0.169922 0.166578 0.163102 0.159976 0.15891 0.158759 0.161045 0.167954 0.183504 0.213287 0.255416 0.300089 0.349484 0.4213 0.544031 0.718404 0.958141 1.30155 1.81567 2.65992 3.94771 4.98298 0.226287 0.228488 0.21765 0.224078 0.224736 0.226461 0.227811 0.225231 0.221626 0.215931 0.209897 0.203281 0.198809 0.199124 0.202498 0.211457 0.229478 0.259193 0.299517 0.345566 0.38893 0.448614 0.566622 0.752262 1.02208 1.39995 1.93409 2.76605 4.15642 5.44776 0.306652 0.308902 0.294573 0.301369 0.300634 0.301381 0.302336 0.298091 0.292259 0.284428 0.276206 0.26697 0.259199 0.255053 0.254751 0.261263 0.280249 0.313697 0.348829 0.388573 0.431324 0.473082 0.576092 0.756001 1.03829 1.44945 2.04618 2.91354 4.36996 5.9603 0.4154 0.41957 0.400916 0.407611 0.404997 0.404364 0.404202 0.397495 0.388722 0.377248 0.36589 0.353769 0.343226 0.336441 0.335354 0.340096 0.355645 0.389179 0.420521 0.448738 0.473111 0.500578 0.578803 0.741012 1.01539 1.44223 2.08436 3.03417 4.57983 6.53845 0.558091 0.567315 0.543391 0.549963 0.545356 0.542988 0.540999 0.530715 0.518571 0.503534 0.487647 0.471251 0.458187 0.447929 0.444832 0.449828 0.46642 0.501048 0.544002 0.566348 0.576423 0.578774 0.598276 0.713574 0.950196 1.37212 2.0618 3.10787 4.776 7.2296 0.739479 0.755969 0.728136 0.734629 0.727798 0.723924 0.71916 0.704437 0.688077 0.669555 0.651566 0.630971 0.613539 0.601859 0.597909 0.602271 0.622245 0.6595 0.719115 0.751835 0.755975 0.740135 0.713927 0.75656 0.919423 1.25889 1.92871 3.06831 4.84909 7.95905 0.968354 0.991008 0.96291 0.96914 0.959484 0.954728 0.947539 0.927393 0.907696 0.886003 0.867855 0.847664 0.82872 0.816078 0.814252 0.821266 0.845327 0.886606 0.958303 1.02136 1.03906 1.01614 0.950879 0.918931 0.996515 1.24431 1.78016 2.91435 4.87236 8.61439 1.26311 1.28948 1.26209 1.26932 1.25769 1.25191 1.2423 1.21641 1.19497 1.17312 1.15854 1.14267 1.13061 1.12173 1.12484 1.14083 1.17448 1.22482 1.30143 1.40048 1.45051 1.44367 1.37157 1.25914 1.24486 1.38388 1.78945 2.73751 4.8654 8.93755 1.61579 1.64303 1.62493 1.63723 1.62271 1.61494 1.59894 1.57674 1.56991 1.56674 1.56786 1.5653 1.5688 1.57447 1.59274 1.62532 1.67473 1.73592 1.8155 1.93443 2.0458 2.08464 2.06124 1.92985 1.77985 1.78926 2.05873 2.8388 4.85115 8.80339 1.92082 1.94982 1.9472 1.9631 1.94573 1.93417 1.90898 1.89595 1.91338 1.95533 2.02236 2.09704 2.17242 2.24862 2.32601 2.40229 2.48747 2.57363 2.65985 2.76638 2.91402 3.0354 3.10876 3.06901 2.91464 2.73772 2.83892 3.49609 4.90107 8.10866 2.15443 2.17927 2.19498 2.20696 2.18951 2.17231 2.13754 2.1307 2.16481 2.24301 2.36665 2.52154 2.68972 2.87166 3.07208 3.2826 3.5043 3.72978 3.94795 4.15671 4.37062 4.57995 4.77678 4.84919 4.87288 4.86587 4.85156 4.90122 5.05738 6.66849 2.27901 2.28001 2.32695 2.31836 2.31328 2.28969 2.25222 2.24571 2.2864 2.38032 2.52588 2.7195 2.93878 3.19019 3.47771 3.80182 4.16325 4.55749 4.98365 5.44853 5.96112 6.53925 7.23006 7.95921 8.61503 8.93801 8.80369 8.10881 6.66853 4.29193
				</DataArray>
				<DataArray Name="Energy" type="Float32" format="ascii">
 901.224 883.126 840.752 767.868 668.983 556.88 445.936 346.812 264.323 198.872 148.506 110.27 81.549 60.9627 46.127 35.6126 27.6361 21.4756 16.6503 12.8483 9.88507 7.62279 5.92709 4.6776 3.76941 3.0959 2.59799 2.30492 2.14592 2.07118 883.128 869.518 835.448 772.016 682.756 574.488 462.294 359.602 272.564 203.035 149.543 109.465 79.9986 59.2986 44.8159 34.5189 26.8571 20.8795 16.2017 12.4921 9.58614 7.35665 5.68696 4.46123 3.57743 2.94102 2.50406 2.24898 2.1084 2.03278 840.788 835.485 817.599 772.399 698.082 604.82 496.754 388.516 292.999 216.107 157.771 114.862 83.8724 62.2087 47.3113 36.4501 28.438 22.158 17.2603 13.3371 10.2354 7.83804 6.03255 4.70942 3.75885 3.06456 2.5527 2.25193 2.09188 2.01739 767.993 772.167 772.503 748.607 695.209 613.215 515.939 410.445 311.645 229.895 167.152 120.983 87.8385 64.2433 48.053 36.3162 28.02 21.668 16.8928 13.1123 10.1287 7.8005 6.01681 4.68819 3.72586 3.02874 2.52801 2.23487 2.07745 1.99734 669.228 683.078 698.353 695.414 665.676 607.147 519.299 420.165 320.604 236.064 170.948 123.393 89.4371 65.2622 48.4912 36.441 28.0226 21.6846 16.9791 13.2594 10.304 7.97549 6.17122 4.81101 3.81739 3.09412 2.569 2.26259 2.10029 2.02304 557.218 574.961 605.25 613.639 607.391 580.083 519.538 431.438 336.848 247.755 178.161 127.802 91.9918 66.8079 49.0761 36.8015 28.1026 21.7313 17.0315 13.3524 10.43 8.11571 6.30607 4.92575 3.90247 3.15089 2.61256 2.30103 2.13492 2.05367 446.298 462.808 497.287 516.466 519.763 519.892 497.368 437.454 355.413 269.729 194.733 138.397 98.8233 71.155 51.6365 38.2415 28.7811 22.1056 17.1938 13.4834 10.5598 8.25334 6.44749 5.06143 4.02501 3.25493 2.69969 2.37675 2.20104 2.11444 347.149 360.054 389.008 411.003 420.683 431.859 437.664 416.48 363.358 289.077 214.96 153.816 109.21 77.7578 55.8188 40.5446 30.1449 22.9493 17.7006 13.8924 10.9046 8.55119 6.70489 5.28433 4.21288 3.40538 2.80521 2.45068 2.25416 2.15424 264.602 272.934 293.375 312.117 321.062 337.333 355.689 363.557 348.935 300.109 235.225 172.746 122.875 86.8831 61.5802 43.9448 32.0936 24.0562 18.4008 14.4065 11.3308 8.91898 7.01361 5.53295 4.40557 3.54841 2.88979 2.49496 2.2745 2.16235 199.083 203.304 216.384 230.197 236.357 248.202 269.925 289.298 300.422 289.164 246.74 190.715 138.766 98.2373 69.1614 48.8813 34.9735 25.7624 19.513 15.1394 11.9182 9.39097 7.39854 5.8336 4.62527 3.69657 2.96841 2.51469 2.2671 2.14293 148.648 149.733 157.959 167.332 171.142 178.477 194.888 215.099 235.543 246.867 237.358 200.424 152.78 110.175 77.8737 54.7027 38.7109 28.0547 21.0135 16.0816 12.6347 9.94202 7.83138 6.16454 4.85491 3.83399 3.04001 2.51072 2.23228 2.09635 110.362 109.593 114.991 121.106 123.49 128.017 138.474 153.827 173.036 190.942 200.612 191.95 160.675 121.172 86.9952 61.2573 43.1805 30.886 22.8366 17.2736 13.4907 10.6195 8.36011 6.55963 5.13803 4.01301 3.12958 2.51251 2.20073 2.05543 81.6096 80.0676 83.9282 87.8928 89.5034 92.1224 98.8517 109.214 123.071 138.943 152.968 160.735 152.426 126.401 94.9514 67.9651 47.9449 34.0289 24.778 18.6288 14.409 11.3493 8.93986 7.00183 5.4539 4.21597 3.23877 2.53413 2.18702 2.03224 60.9997 59.3428 62.2683 64.2963 65.2803 66.8469 71.1816 77.7443 86.9455 98.3902 110.346 121.25 126.43 118.404 97.5165 73.3405 52.396 37.2829 26.881 20.0419 15.3604 12.0936 9.5446 7.48494 5.80411 4.44813 3.37955 2.58515 2.1944 2.02762 46.1482 44.8421 47.3219 48.0571 48.5065 49.1209 51.6399 55.7987 61.6503 69.1972 77.9419 87.0369 95.0422 97.6099 89.9163 73.7224 55.5506 39.9737 28.8445 21.3744 16.248 12.7784 10.0955 7.94533 6.1691 4.70773 3.53996 2.66215 2.21593 2.03403 35.6221 34.5297 36.4603 36.3375 36.4559 36.8062 38.2202 40.5762 43.9739 48.8419 54.7676 61.2899 68.0293 73.4386 73.8096 66.7008 54.4619 41.1541 30.1606 22.3288 16.9737 13.343 10.5837 8.36238 6.52409 4.97573 3.71647 2.76578 2.25211 2.05083 27.6409 26.8635 28.4431 28.0245 28.027 28.1047 28.7816 30.149 32.0524 34.9363 38.7257 43.1472 47.9893 52.4953 55.6631 54.5335 48.2991 39.1428 30.0063 22.5823 17.2446 13.5928 10.882 8.67529 6.81359 5.22432 3.91003 2.89648 2.30147 2.0719 21.4772 20.8821 22.1593 21.673 21.6892 21.7308 22.106 22.9507 24.0505 25.7587 28.0298 30.8639 34.0465 37.3096 40.03 41.2587 39.2092 33.9354 27.4173 21.4426 16.7566 13.3438 10.8793 8.80122 6.99653 5.42241 4.09431 3.04255 2.36095 2.09375 16.6509 16.2029 17.2615 16.8963 16.9817 17.0329 17.195 17.7021 18.3927 19.5027 20.9948 22.8211 24.7699 26.8748 28.8771 30.2191 30.0822 27.4648 23.1433 18.7888 15.1532 12.4267 10.4031 8.6689 7.05507 5.56332 4.25908 3.19105 2.42894 2.11543 12.8487 12.4931 13.3377 13.1151 13.2622 13.3541 13.4857 13.8946 14.4036 15.1328 16.0707 17.2578 18.6135 20.0269 21.3818 22.3483 22.6308 21.4913 18.8149 15.5556 12.8865 10.8871 9.47184 8.18486 6.8814 5.60138 4.39517 3.33382 2.50525 2.13477 9.88532 9.5868 10.2359 10.1306 10.3059 10.4322 10.5618 10.9068 11.3313 11.9178 12.6294 13.4809 14.3978 15.3497 16.2391 16.9646 17.263 16.7759 15.1724 12.8938 10.5026 8.95568 7.97496 7.26111 6.46297 5.46292 4.42144 3.44691 2.59603 2.1519 7.62306 7.35714 7.83848 7.80168 7.977 8.11702 8.25472 8.55354 8.92043 9.39034 9.94207 10.6163 11.3435 12.0839 12.7722 13.3352 13.59 13.3442 12.4494 10.896 8.96237 7.31291 6.42813 5.88388 5.56473 5.08522 4.32001 3.47544 2.68805 2.1673 5.92741 5.68741 6.03298 6.0176 6.17217 6.30712 6.44844 6.70623 7.01445 7.39878 7.83181 8.35984 8.93847 9.5411 10.0888 10.5774 10.8814 10.8808 10.4009 9.47227 7.97458 6.4266 5.37556 4.75234 4.43755 4.31262 4.01368 3.41747 2.74796 2.17924 4.67806 4.46173 4.70983 4.68883 4.81162 4.92636 5.06203 5.28495 5.53368 5.83431 6.16504 6.55876 7.00345 7.48465 7.9434 8.35949 8.6706 8.79805 8.66067 8.1861 7.26125 5.8807 4.75397 4.11293 3.63332 3.42394 3.3874 3.17144 2.71259 2.16916 3.76999 3.57801 3.75932 3.72643 3.8179 3.9028 4.02536 4.21342 4.4058 4.62553 4.85608 5.13781 5.45457 5.80487 6.16977 6.52208 6.81138 6.99584 7.05229 6.88062 6.45972 5.56214 4.43612 3.63091 3.20368 2.83572 2.68925 2.67763 2.56644 2.11301 3.09646 2.94159 3.06502 3.02922 3.09458 3.15121 3.2552 3.40588 3.54861 3.69658 3.83483 4.01346 4.21657 4.44859 4.70842 4.97608 5.2247 5.42215 5.56416 5.59875 5.46209 5.08463 4.30964 3.42353 2.83563 2.52196 2.23721 2.12305 2.24212 1.98795 2.59848 2.50454 2.55311 2.52837 2.56932 2.6128 2.69981 2.8054 2.89 2.96858 3.04047 3.12992 3.23932 3.38045 3.54052 3.71736 3.90987 4.09404 4.25958 4.39397 4.42186 4.31854 4.01158 3.38695 2.68775 2.23695 1.98029 1.78411 1.83653 1.74639 2.30536 2.24939 2.2523 2.23516 2.26284 2.30119 2.37685 2.45077 2.49512 2.51504 2.51121 2.51301 2.53466 2.58541 2.66246 2.76638 2.897 3.0427 3.19114 3.33392 3.44691 3.4753 3.41723 3.17084 2.67678 2.12278 1.78396 1.54828 1.45791 1.38855 2.14631 2.10877 2.09221 2.07769 2.1005 2.13504 2.20117 2.25422 2.27454 2.26724 2.23256 2.20117 2.1877 2.19446 2.21582 2.25218 2.30156 2.36089 2.42877 2.50524 2.59603 2.68842 2.7478 2.71261 2.56617 2.24193 1.83643 1.45786 1.2106 0.948843 2.07155 2.03313 2.0177 1.99758 2.02322 2.05376 2.11451 2.15436 2.16248 2.14331 2.09686 2.05576 2.03275 2.0278 2.0341 2.05077 2.07183 2.09366 2.11539 2.13476 2.15195 2.16742 2.17932 2.16923 2.11308 1.98799 1.74638 1.38854 0.948841 0.454777
				</DataArray>
				<DataArray Name="F1" type="Float32" format="ascii">
 1 1 1 1 1 1 1 1 1 1 1 1 1 1 1 1 1 1 1 1 1 1 1 1 1 1 1 1 1 1 1 1 1 1 1 1 1 1 1 1 1 1 1 1 1 1 1 1 1 1 1 1 1 1 1 1 1 1 1 1 1 1 1 1 1 1 1 1 1 1 1 1 1 1 1 1 1 1 1 1 1 1 1 1 1 1 1 1 1 1 1 1 1 1 1 1 1 1 1 1 1 1 1 1 1 1 1 1 1 1 1 1 1 1 1 1 1 1 1 1 1 1 1 1 1 1 1 1 1 1 1 1 1 1 1 1 1 1 1 1 1 1 1 1 1 1 1 1 1 1 1 1 1 1 1 1 1 1 1 1 1 1 1 1 1 1 1 1 1 1 1 1 1 1 1 1 1 1 1 1 1 1 1 1 1 1 1 1 1 1 1 1 1 1 1 1 1 1 1 1 1 1 1 1 1 1 1 1 1 1 1 1 1 1 1 1 1 1 1 1 1 1 1 1 1 1 1 1 1 1 1 1 1 1 1 1 1 1 1 1 1 1 1 1 1 1 1 1 1 1 1 1 1 1 1 1 1 1 1 1 1 1 1 1 1 1 1 1 1 1 1 1 1 1 1 1 1 1 1 1 1 1 1 1 1 1 1 1 1 1 1 1 1 1 1 1 1 1 1 1 1 1 1 1 1 1 1 1 1 1 1 1 1 1 1 1 1 1 1 1 1 1 1 1 1 1 1 1 1 1 1 1 1 1 1 1 1 1 1 1 1 1 1 1 1 1 1 1 1 1 1 1 1 1 1 1 1 1 1 1 1 1 1 1 1 1 1 1 1 1 1 1 1 1 1 1 1 1 1 1 1 1 1 1 1 1 1 1 1 1 1 1 1 1 1 1 1 1 1 1 1 1 1 1 1 1 1 1 1 1 1 1 1 1 1 1 1 1 1 1 1 1 1 1 1 1 1 1 1 1 1 1 1 1 1 1 1 1 1 1 1 1 1 1 1 1 1 1 1 1 1 1 1 1 1 1 1 1 1 1 1 1 1 1 1 1 1 1 1 1 1 1 1 1 1 1 1 1 1 1 1 1 1 1 1 1 1 1 1 1 1 1 1 1 1 1 1 1 1 1 1 1 1 1 1 1 1 1 1 1 1 1 1 1 1 1 1 1 1 1 1 1 1 1 1 1 1 1 1 1 1 1 1 1 1 1 1 1 1 1 1 1 1 1 1 1 1 1 1 1 1 1 1 1 1 1 1 1 1 1 1 1 1 1 1 1 1 1 1 1 1 1 1 1 1 1 1 1 1 1 1 1 1 1 1 1 1 1 1 1 1 1 1 1 1 1 1 1 1 1 1 1 1 1 1 1 1 1 1 1 1 1 1 1 1 1 1 1 1 1 1 1 1 1 1 1 1 1 1 1 1 1 1 1 1 1 1 1 1 1 1 1 1 1 1 1 1 1 1 1 1 1 1 1 1 1 1 1 1 1 1 1 1 1 1 1 1 1 1 1 1 1 1 1 1 1 1 1 1 1 1 1 1 1 1 1 1 1 1 1 1 1 1 1 1 1 1 1 1 1 1 1 1 1 1 1 1 1 1 1 1 1 1 1 1 1 1 1 1 1 1 1 1 1 1 1 1 1 1 1 1 1 1 1 1 1 1 1 1 1 1 1 1 1 1 1 1 1 1 1 1 1 1 1 1 1 1 1 1 1 1 1 1 1 1 1 1 1 1 1 1 1 1 1 1 1 1 1 1 1 1 1 1 1 1 1 1 1 1 1 1 1 1 1 1 1 1 1 1 1 1 1 1 1 1 1 1 1 1 1 1 1 1 1 1 1 1 1 1 1 1 1 1 1 1 1 1 1 1 1 1 1 1 1 1 1 1 1 1 1 1 1 1 1 1 1 1 1 1 1 1 1 1 1 1 1 1 1 1 1 1 1 1 1 1 1 1 1 1 1 1 1 1 1 1 1 1 1 1 1 1 1 1 1 1 1 1 1 1 1 1 1 1 1 1 1 1 1 1 1
				</DataArray>
				<DataArray Name="F2" type="Float32" format="ascii">
 0 0 0 0 0 0 0 0 0 0 0 0 0 0 0 0 0 0 0 0 0 0 0 0 0 0 0 0 0 0 0 0 0 0 0 0 0 0 0 0 0 0 0 0 0 0 0 0 0 0 0 0 0 0 0 0 0 0 0 0 0 0 0 0 0 0 0 0 0 0 0 0 0 0 0 0 0 0 0 0 0 0 0 0 0 0 0 0 0 0 0 0 0 0 0 0 0 0 0 0 0 0 0 0 0 0 0 0 0 0 0 0 0 0 0 0 0 0 0 0 0 0 0 0 0 0 0 0 0 0 0 0 0 0 0 0 0 0 0 0 0 0 0 0 0 0 0 0 0 0 0 0 0 0 0 0 0 0 0 0 0 0 0 0 0 0 0 0 0 0 0 0 0 0 0 0 0 0 0 0 0 0 0 0 0 0 0 0 0 0 0 0 0 0 0 0 0 0 0 0 0 0 0 0 0 0 0 0 0 0 0 0 0 0 0 0 0 0 0 0 0 0 0 0 0 0 0 0 0 0 0 0 0 0 0 0 0 0 0 0 0 0 0 0 0 0 0 0 0 0 0 0 0 0 0 0 0 0 0 0 0 0 0 0 0 0 0 0 0 0 0 0 0 0 0 0 0 0 0 0 0 0 0 0 0 0 0 0 0 0 0 0 0 0 0 0 0 0 0 0 0 0 0 0 0 0 0 0 0 0 0 0 0 0 0 0 0 0 0 0 0 0 0 0 0 0 0 0 0 0 0 0 0 0 0 0 0 0 0 0 0 0 0 0 0 0 0 0 0 0 0 0 0 0 0 0 0 0 0 0 0 0 0 0 0 0 0 0 0 0 0 0 0 0 0 0 0 0 0 0 0 0 0 0 0 0 0 0 0 0 0 0 0 0 0 0 0 0 0 0 0 0 0 0 0 0 0 0 0 0 0 0 0 0 0 0 0 0 0 0 0 0 0 0 0 0 0 0 0 0 0 0 0 0 0 0 0 0 0 0 0 0 0 0 0 0 0 0 0 0 0 0 0 0 0 0 0 0 0 0 0 0 0 0 0 0 0 0 0 0 0 0 0 0 0 0 0 0 0 0 0 0 0 0 0 0 0 0 0 0 0 0 0 0 0 0 0 0 0 0 0 0 0 0 0 0 0 0 0 0 0 0 0 0 0 0 0 0 0 0 0 0 0 0 0 0 0 0 0 0 0 0 0 0 0 0 0 0 0 0 0 0 0 0 0 0 0 0 0 0 0 0 0 0 0 0 0 0 0 0 0 0 0 0 0 0 0 0 0 0 0 0 0 0 0 0 0 0 0 0 0 0 0 0 0 0 0 0 0 0 0 0 0 0 0 0 0 0 0 0 0 0 0 0 0 0 0 0 0 0 0 0 0 0 0 0 0 0 0 0 0 0 0 0 0 0 0 0 0 0 0 0 0 0 0 0 0 0 0 0 0 0 0 0 0 0 0 0 0 0 0 0 0 0 0 0 0 0 0 0 0 0 0 0 0 0 0 0 0 0 0 0 0 0 0 0 0 0 0 0 0 0 0 0 0 0 0 0 0 0 0 0 0 0 0 0 0 0 0 0 0 0 0 0 0 0 0 0 0 0 0 0 0 0 0 0 0 0 0 0 0 0 0 0 0 0 0 0 0 0 0 0 0 0 0 0 0 0 0 0 0 0 0 0 0 0 0 0 0 0 0 0 0 0 0 0 0 0 0 0 0 0 0 0 0 0 0 0 0 0 0 0 0 0 0 0 0 0 0 0 0 0 0 0 0 0 0 0 0 0 0 0 0 0 0 0 0 0 0 0 0 0 0 0 0 0 0 0 0 0 0 0 0 0 0 0 0 0 0 0 0 0 0 0 0 0 0 0 0 0 0 0 0 0 0 0 0 0 0 0 0 0 0 0 0 0 0 0 0 0 0 0 0 0 0 0 0 0 0 0 0 0 0 0 0 0 0 0 0 0 0 0 0 0 0 0 0 0 0 0 0 0 0 0 0 0 0 0 0 0 0 0 0 0 0 0 0 0 0 0
				</DataArray>
				<DataArray Name="F3" type="Float32" format="ascii">