<?xml version="1.0"?>
<VTKFile type="PolyData">
	<PolyData>
		<Piece NumberOfPoints="961" NumberOfPolys="900">
			<Points>
				<DataArray type="Float32" NumberOfComponents="3" format="ascii">
 0 0 0 0.04 0 0 0.08 0 0 0.12 0 0 0.16 0 0 0.2 0 0 0.24 0 0 0.28 0 0 0.32 0 0 0.36 0 0 0.4 0 0 0.44 0 0 0.48 0 0 0.52 0 0 0.56 0 0 0.6 0 0 0.64 0 0 0.68 0 0 0.72 0 0 0.76 0 0 0.8 0 0 0.84 0 0 0.88 0 0 0.92 0 0 0.96 0 0 1 0 0 1.04 0 0 1.08 0 0 1.12 0 0 1.16 0 0 1.2 0 0 0 0.04 0 0.04 0.04 0 0.08 0.04 0 0.12 0.04 0 0.16 0.04 0 0.2 0.04 0 0.24 0.04 0 0.28 0.04 0 0.32 0.04 0 0.36 0.04 0 0.4 0.04 0 0.44 0.04 0 0.48 0.04 0 0.52 0.04 0 0.56 0.04 0 0.6 0.04 0 0.64 0.04 0 0.68 0.04 0 0.72 0.04 0 0.76 0.04 0 0.8 0.04 0 0.84 0.04 0 0.88 0.04 0 0.92 0.04 0 0.96 0.04 0 1 0.04 0 1.04 0.04 0 1.08 0.04 0 1.12 0.04 0 1.16 0.04 0 1.2 0.04 0 0 0.08 0 0.04 0.08 0 0.08 0.08 0 0.12 0.08 0 0.16 0.08 0 0.2 0.08 0 0.24 0.08 0 0.28 0.08 0 0.32 0.08 0 0.36 0.08 0 0.4 0.08 0 0.44 0.08 0 0.48 0.08 0 0.52 0.08 0 0.56 0.08 0 0.6 0.08 0 0.64 0.08 0 0.68 0.08 0 0.72 0.08 0 0.76 0.08 0 0.8 0.08 0 0.84 0.08 0 0.88 0.08 0 0.92 0.08 0 0.96 0.08 0 1 0.08 0 1.04 0.08 0 1.08 0.08 0 1.12 0.08 0 1.16 0.08 0 1.2 0.08 0 0 0.12 0 0.04 0.12 0 0.08 0.12 0 0.12 0.12 0 0.16 0.12 0 0.2 0.12 0 0.24 0.12 0 0.28 0.12 0 0.32 0.12 0 0.36 0.12 0 0.4 0.12 0 0.44 0.12 0 0.48 0.12 0 0.52 0.12 0 0.56 0.12 0 0.6 0.12 0 0.64 0.12 0 0.68 0.12 0 0.72 0.12 0 0.76 0.12 0 0.8 0.12 0 0.84 0.12 0 0.88 0.12 0 0.92 0.12 0 0.96 0.12 0 1 0.12 0 1.04 0.12 0 1.08 0.12 0 1.12 0.12 0 1.16 0.12 0 1.2 0.12 0 0 0.16 0 0.04 0.16 0 0.08 0.16 0 0.12 0.16 0 0.16 0.16 0 0.2 0.16 0 0.24 0.16 0 0.28 0.16 0 0.32 0.16 0 0.36 0.16 0 0.4 0.16 0 0.44 0.16 0 0.48 0.16 0 0.52 0.16 0 0.56 0.16 0 0.6 0.16 0 0.64 0.16 0 0.68 0.16 0 0.72 0.16 0 0.76 0.16 0 0.8 0.16 0 0.84 0.16 0 0.88 0.16 0 0.92 0.16 0 0.96 0.16 0 1 0.16 0 1.04 0.16 0 1.08 0.16 0 1.12 0.16 0 1.16 0.16 0 1.2 0.16 0 0 0.2 0 0.04 0.2 0 0.08 0.2 0 0.12 0.2 0 0.16 0.2 0 0.2 0.2 0 0.24 0.2 0 0.28 0.2 0 0.32 0.2 0 0.36 0.2 0 0.4 0.2 0 0.44 0.2 0 0.48 0.2 0 0.52 0.2 0 0.56 0.2 0 0.6 0.2 0 0.64 0.2 0 0.68 0.2 0 0.72 0.2 0 0.76 0.2 0 0.8 0.2 0 0.84 0.2 0 0.88 0.2 0 0.92 0.2 0 0.96 0.2 0 1 0.2 0 1.04 0.2 0 1.08 0.2 0 1.12 0.2 0 1.16 0.2 0 1.2 0.2 0 0 0.24 0 0.04 0.24 0 0.08 0.24 0 0.12 0.24 0 0.16 0.24 0 0.2 0.24 0 0.24 0.24 0 0.28 0.24 0 0.32 0.24 0 0.36 0.24 0 0.4 0.24 0 0.44 0.24 0 0.48 0.24 0 0.52 0.24 0 0.56 0.24 0 0.6 0.24 0 0.64 0.24 0 0.68 0.24 0 0.72 0.24 0 0.76 0.24 0 0.8 0.24 0 0.84 0.24 0 0.88 0.24 0 0.92 0.24 0 0.96 0.24 0 1 0.24 0 1.04 0.24 0 1.08 0.24 0 1.12 0.24 0 1.16 0.24 0 1.2 0.24 0 0 0.28 0 0.04 0.28 0 0.08 0.28 0 0.12 0.28 0 0.16 0.28 0 0.2 0.28 0 0.24 0.28 0 0.28 0.28 0 0.32 0.28 0 0.36 0.28 0 0.4 0.28 0 0.44 0.28 0 0.48 0.28 0 0.52 0.28 0 0.56 0.28 0 0.6 0.28 0 0.64 0.28 0 0.68 0.28 0 0.72 0.28 0 0.76 0.28 0 0.8 0.28 0 0.84 0.28 0 0.88 0.28 0 0.92 0.28 0 0.96 0.28 0 1 0.28 0 1.04 0.28 0 1.08 0.28 0 1.12 0.28 0 1.16 0.28 0 1.2 0.28 0 0 0.32 0 0.04 0.32 0 0.08 0.32 0 0.12 0.32 0 0.16 0.32 0 0.2 0.32 0 0.24 0.32 0 0.28 0.32 0 0.32 0.32 0 0.36 0.32 0 0.4 0.32 0 0.44 0.32 0 0.48 0.32 0 0.52 0.32 0 0.56 0.32 0 0.6 0.32 0 0.64 0.32 0 0.68 0.32 0 0.72 0.32 0 0.76 0.32 0 0.8 0.32 0 0.84 0.32 0 0.88 0.32 0 0.92 0.32 0 0.96 0.32 0 1 0.32 0 1.04 0.32 0 1.08 0.32 0 1.12 0.32 0 1.16 0.32 0 1.2 0.32 0 0 0.36 0 0.04 0.36 0 0.08 0.36 0 0.12 0.36 0 0.16 0.36 0 0.2 0.36 0 0.24 0.36 0 0.28 0.36 0 0.32 0.36 0 0.36 0.36 0 0.4 0.36 0 0.44 0.36 0 0.48 0.36 0 0.52 0.36 0 0.56 0.36 0 0.6 0.36 0 0.64 0.36 0 0.68 0.36 0 0.72 0.36 0 0.76 0.36 0 0.8 0.36 0 0.84 0.36 0 0.88 0.36 0 0.92 0.36 0 0.96 0.36 0 1 0.36 0 1.04 0.36 0 1.08 0.36 0 1.12 0.36 0 1.16 0.36 0 1.2 0.36 0 0 0.4 0 0.04 0.4 0 0.08 0.4 0 0.12 0.4 0 0.16 0.4 0 0.2 0.4 0 0.24 0.4 0 0.28 0.4 0 0.32 0.4 0 0.36 0.4 0 0.4 0.4 0 0.44 0.4 0 0.48 0.4 0 0.52 0.4 0 0.56 0.4 0 0.6 0.4 0 0.64 0.4 0 0.68 0.4 0 0.72 0.4 0 0.76 0.4 0 0.8 0.4 0 0.84 0.4 0 0.88 0.4 0 0.92 0.4 0 0.96 0.4 0 1 0.4 0 1.04 0.4 0 1.08 0.4 0 1.12 0.4 0 1.16 0.4 0 1.2 0.4 0 0 0.44 0 0.04 0.44 0 0.08 0.44 0 0.12 0.44 0 0.16 0.44 0 0.2 0.44 0 0.24 0.44 0 0.28 0.44 0 0.32 0.44 0 0.36 0.44 0 0.4 0.44 0 0.44 0.44 0 0.48 0.44 0 0.52 0.44 0 0.56 0.44 0 0.6 0.44 0 0.64 0.44 0 0.68 0.44 0 0.72 0.44 0 0.76 0.44 0 0.8 0.44 0 0.84 0.44 0 0.88 0.44 0 0.92 0.44 0 0.96 0.44 0 1 0.44 0 1.04 0.44 0 1.08 0.44 0 1.12 0.44 0 1.16 0.44 0 1.2 0.44 0 0 0.48 0 0.04 0.48 0 0.08 0.48 0 0.12 0.48 0 0.16 0.48 0 0.2 0.48 0 0.24 0.48 0 0.28 0.48 0 0.32 0.48 0 0.36 0.48 0 0.4 0.48 0 0.44 0.48 0 0.48 0.48 0 0.52 0.48 0 0.56 0.48 0 0.6 0.48 0 0.64 0.48 0 0.68 0.48 0 0.72 0.48 0 0.76 0.48 0 0.8 0.48 0 0.84 0.48 0 0.88 0.48 0 0.92 0.48 0 0.96 0.48 0 1 0.48 0 1.04 0.48 0 1.08 0.48 0 1.12 0.48 0 1.16 0.48 0 1.2 0.48 0 0 0.52 0 0.04 0.52 0 0.08 0.52 0 0.12 0.52 0 0.16 0.52 0 0.2 0.52 0 0.24 0.52 0 0.28 0.52 0 0.32 0.52 0 0.36 0.52 0 0.4 0.52 0 0.44 0.52 0 0.48 0.52 0 0.52 0.52 0 0.56 0.52 0 0.6 0.52 0 0.64 0.52 0 0.68 0.52 0 0.72 0.52 0 0.76 0.52 0 0.8 0.52 0 0.84 0.52 0 0.88 0.52 0 0.92 0.52 0 0.96 0.52 0 1 0.52 0 1.04 0.52 0 1.08 0.52 0 1.12 0.52 0 1.16 0.52 0 1.2 0.52 0 0 0.56 0 0.04 0.56 0 0.08 0.56 0 0.12 0.56 0 0.16 0.56 0 0.2 0.56 0 0.24 0.56 0 0.28 0.56 0 0.32 0.56 0 0.36 0.56 0 0.4 0.56 0 0.44 0.56 0 0.48 0.56 0 0.52 0.56 0 0.56 0.56 0 0.6 0.56 0 0.64 0.56 0 0.68 0.56 0 0.72 0.56 0 0.76 0.56 0 0.8 0.56 0 0.84 0.56 0 0.88 0.56 0 0.92 0.56 0 0.96 0.56 0 1 0.56 0 1.04 0.56 0 1.08 0.56 0 1.12 0.56 0 1.16 0.56 0 1.2 0.56 0 0 0.6 0 0.04 0.6 0 0.08 0.6 0 0.12 0.6 0 0.16 0.6 0 0.2 0.6 0 0.24 0.6 0 0.28 0.6 0 0.32 0.6 0 0.36 0.6 0 0.4 0.6 0 0.44 0.6 0 0.48 0.6 0 0.52 0.6 0 0.56 0.6 0 0.6 0.6 0 0.64 0.6 0 0.68 0.6 0 0.72 0.6 0 0.76 0.6 0 0.8 0.6 0 0.84 0.6 0 0.88 0.6 0 0.92 0.6 0 0.96 0.6 0 1 0.6 0 1.04 0.6 0 1.08 0.6 0 1.12 0.6 0 1.16 0.6 0 1.2 0.6 0 0 0.64 0 0.04 0.64 0 0.08 0.64 0 0.12 0.64 0 0.16 0.64 0 0.2 0.64 0 0.24 0.64 0 0.28 0.64 0 0.32 0.64 0 0.36 0.64 0 0.4 0.64 0 0.44 0.64 0 0.48 0.64 0 0.52 0.64 0 0.56 0.64 0 0.6 0.64 0 0.64 0.64 0 0.68 0.64 0 0.72 0.64 0 0.76 0.64 0 0.8 0.64 0 0.84 0.64 0 0.88 0.64 0 0.92 0.64 0 0.96 0.64 0 1 0.64 0 1.04 0.64 0 1.08 0.64 0 1.12 0.64 0 1.16 0.64 0 1.2 0.64 0 0 0.68 0 0.04 0.68 0 0.08 0.68 0 0.12 0.68 0 0.16 0.68 0 0.2 0.68 0 0.24 0.68 0 0.28 0.68 0 0.32 0.68 0 0.36 0.68 0 0.4 0.68 0 0.44 0.68 0 0.48 0.68 0 0.52 0.68 0 0.56 0.68 0 0.6 0.68 0 0.64 0.68 0 0.68 0.68 0 0.72 0.68 0 0.76 0.68 0 0.8 0.68 0 0.84 0.68 0 0.88 0.68 0 0.92 0.68 0 0.96 0.68 0 1 0.68 0 1.04 0.68 0 1.08 0.68 0 1.12 0.68 0 1.16 0.68 0 1.2 0.68 0 0 0.72 0 0.04 0.72 0 0.08 0.72 0 0.12 0.72 0 0.16 0.72 0 0.2 0.72 0 0.24 0.72 0 0.28 0.72 0 0.32 0.72 0 0.36 0.72 0 0.4 0.72 0 0.44 0.72 0 0.48 0.72 0 0.52 0.72 0 0.56 0.72 0 0.6 0.72 0 0.64 0.72 0 0.68 0.72 0 0.72 0.72 0 0.76 0.72 0 0.8 0.72 0 0.84 0.72 0 0.88 0.72 0 0.92 0.72 0 0.96 0.72 0 1 0.72 0 1.04 0.72 0 1.08 0.72 0 1.12 0.72 0 1.16 0.72 0 1.2 0.72 0 0 0.76 0 0.04 0.76 0 0.08 0.76 0 0.12 0.76 0 0.16 0.76 0 0.2 0.76 0 0.24 0.76 0 0.28 0.76 0 0.32 0.76 0 0.36 0.76 0 0.4 0.76 0 0.44 0.76 0 0.48 0.76 0 0.52 0.76 0 0.56 0.76 0 0.6 0.76 0 0.64 0.76 0 0.68 0.76 0 0.72 0.76 0 0.76 0.76 0 0.8 0.76 0 0.84 0.76 0 0.88 0.76 0 0.92 0.76 0 0.96 0.76 0 1 0.76 0 1.04 0.76 0 1.08 0.76 0 1.12 0.76 0 1.16 0.76 0 1.2 0.76 0 0 0.8 0 0.04 0.8 0 0.08 0.8 0 0.12 0.8 0 0.16 0.8 0 0.2 0.8 0 0.24 0.8 0 0.28 0.8 0 0.32 0.8 0 0.36 0.8 0 0.4 0.8 0 0.44 0.8 0 0.48 0.8 0 0.52 0.8 0 0.56 0.8 0 0.6 0.8 0 0.64 0.8 0 0.68 0.8 0 0.72 0.8 0 0.76 0.8 0 0.8 0.8 0 0.84 0.8 0 0.88 0.8 0 0.92 0.8 0 0.96 0.8 0 1 0.8 0 1.04 0.8 0 1.08 0.8 0 1.12 0.8 0 1.16 0.8 0 1.2 0.8 0 0 0.84 0 0.04 0.84 0 0.08 0.84 0 0.12 0.84 0 0.16 0.84 0 0.2 0.84 0 0.24 0.84 0 0.28 0.84 0 0.32 0.84 0 0.36 0.84 0 0.4 0.84 0 0.44 0.84 0 0.48 0.84 0 0.52 0.84 0 0.56 0.84 0 0.6 0.84 0 0.64 0.84 0 0.68 0.84 0 0.72 0.84 0 0.76 0.84 0 0.8 0.84 0 0.84 0.84 0 0.88 0.84 0 0.92 0.84 0 0.96 0.84 0 1 0.84 0 1.04 0.84 0 1.08 0.84 0 1.12 0.84 0 1.16 0.84 0 1.2 0.84 0 0 0.88 0 0.04 0.88 0 0.08 0.88 0 0.12 0.88 0 0.16 0.88 0 0.2 0.88 0 0.24 0.88 0 0.28 0.88 0 0.32 0.88 0 0.36 0.88 0 0.4 0.88 0 0.44 0.88 0 0.48 0.88 0 0.52 0.88 0 0.56 0.88 0 0.6 0.88 0 0.64 0.88 0 0.68 0.88 0 0.72 0.88 0 0.76 0.88 0 0.8 0.88 0 0.84 0.88 0 0.88 0.88 0 0.92 0.88 0 0.96 0.88 0 1 0.88 0 1.04 0.88 0 1.08 0.88 0 1.12 0.88 0 1.16 0.88 0 1.2 0.88 0 0 0.92 0 0.04 0.92 0 0.08 0.92 0 0.12 0.92 0 0.16 0.92 0 0.2 0.92 0 0.24 0.92 0 0.28 0.92 0 0.32 0.92 0 0.36 0.92 0 0.4 0.92 0 0.44 0.92 0 0.48 0.92 0 0.52 0.92 0 0.56 0.92 0 0.6 0.92 0 0.64 0.92 0 0.68 0.92 0 0.72 0.92 0 0.76 0.92 0 0.8 0.92 0 0.84 0.92 0 0.88 0.92 0 0.92 0.92 0 0.96 0.92 0 1 0.92 0 1.04 0.92 0 1.08 0.92 0 1.12 0.92 0 1.16 0.92 0 1.2 0.92 0 0 0.96 0 0.04 0.96 0 0.08 0.96 0 0.12 0.96 0 0.16 0.96 0 0.2 0.96 0 0.24 0.96 0 0.28 0.96 0 0.32 0.96 0 0.36 0.96 0 0.4 0.96 0 0.44 0.96 0 0.48 0.96 0 0.52 0.96 0 0.56 0.96 0 0.6 0.96 0 0.64 0.96 0 0.68 0.96 0 0.72 0.96 0 0.76 0.96 0 0.8 0.96 0 0.84 0.96 0 0.88 0.96 0 0.92 0.96 0 0.96 0.96 0 1 0.96 0 1.04 0.96 0 1.08 0.96 0 1.12 0.96 0 1.16 0.96 0 1.2 0.96 0 0 1 0 0.04 1 0 0.08 1 0 0.12 1 0 0.16 1 0 0.2 1 0 0.24 1 0 0.28 1 0 0.32 1 0 0.36 1 0 0.4 1 0 0.44 1 0 0.48 1 0 0.52 1 0 0.56 1 0 0.6 1 0 0.64 1 0 0.68 1 0 0.72 1 0 0.76 1 0 0.8 1 0 0.84 1 0 0.88 1 0 0.92 1 0 0.96 1 0 1 1 0 1.04 1 0 1.08 1 0 1.12 1 0 1.16 1 0 1.2 1 0 0 1.04 0 0.04 1.04 0 0.08 1.04 0 0.12 1.04 0 0.16 1.04 0 0.2 1.04 0 0.24 1.04 0 0.28 1.04 0 0.32 1.04 0 0.36 1.04 0 0.4 1.04 0 0.44 1.04 0 0.48 1.04 0 0.52 1.04 0 0.56 1.04 0 0.6 1.04 0 0.64 1.04 0 0.68 1.04 0 0.72 1.04 0 0.76 1.04 0 0.8 1.04 0 0.84 1.04 0 0.88 1.04 0 0.92 1.04 0 0.96 1.04 0 1 1.04 0 1.04 1.04 0 1.08 1.04 0 1.12 1.04 0 1.16 1.04 0 1.2 1.04 0 0 1.08 0 0.04 1.08 0 0.08 1.08 0 0.12 1.08 0 0.16 1.08 0 0.2 1.08 0 0.24 1.08 0 0.28 1.08 0 0.32 1.08 0 0.36 1.08 0 0.4 1.08 0 0.44 1.08 0 0.48 1.08 0 0.52 1.08 0 0.56 1.08 0 0.6 1.08 0 0.64 1.08 0 0.68 1.08 0 0.72 1.08 0 0.76 1.08 0 0.8 1.08 0 0.84 1.08 0 0.88 1.08 0 0.92 1.08 0 0.96 1.08 0 1 1.08 0 1.04 1.08 0 1.08 1.08 0 1.12 1.08 0 1.16 1.08 0 1.2 1.08 0 0 1.12 0 
[...]
			<CellData Scalars="Density">
				<DataArray Name="Density" type="Float32" format="ascii">
 0.00360452 0.00365254 0.00376906 0.00399051 0.00435604 0.00490143 0.00565906 0.00665878 0.00793128 0.00950875 0.0114268 0.0137244 0.0164492 0.0196664 0.0234691 0.0279918 0.0334334 0.0400912 0.0484352 0.0592203 0.0736888 0.0949679 0.134053 0.218424 0.386778 0.711776 1.2994 2.24194 3.83926 5.28069 0.00365264 0.00369358 0.00379588 0.00399958 0.00434675 0.00487587 0.00562241 0.00662097 0.00790875 0.00952925 0.0115307 0.0139635 0.0168847 0.0203657 0.0245017 0.0294275 0.0353382 0.042528 0.0514655 0.0629458 0.0782925 0.100664 0.140891 0.226307 0.395435 0.720247 1.30756 2.24957 3.85376 5.31796 0.00376938 0.00379609 0.00386676 0.00402575 0.00430875 0.00474832 0.00538931 0.00627115 0.00743225 0.00891166 0.0107492 0.0129898 0.0156854 0.0189039 0.0227342 0.0272977 0.032764 0.0393933 0.0476216 0.0581826 0.072291 0.0930818 0.13101 0.213517 0.379836 0.703598 1.29497 2.25619 3.90189 5.4769 0.0039911 0.00400002 0.00402593 0.00412751 0.00434997 0.00472433 0.00526751 0.00601813 0.0070249 0.00834186 0.010025 0.0121364 0.014746 0.0179325 0.0217879 0.0264288 0.0320123 0.038773 0.0471133 0.0576787 0.0715311 0.0914204 0.126815 0.202313 0.353117 0.655938 1.23241 2.19986 3.85533 5.47057 0.00435687 0.00434727 0.00430885 0.00434994 0.0045049 0.00481501 0.00531272 0.00602872 0.00700551 0.00829886 0.00997643 0.0121105 0.0147789 0.0180741 0.0221094 0.0270224 0.0329934 0.0402746 0.0492526 0.0605059 0.0751102 0.0956858 0.131346 0.206165 0.352761 0.642256 1.1975 2.15187 3.80922 5.45421 0.00490247 0.00487633 0.0047481 0.00472392 0.00481473 0.00506097 0.00550727 0.00618565 0.00714185 0.0084358 0.0101437 0.0123554 0.015178 0.0187343 0.0231658 0.0286363 0.0353387 0.0435049 0.0534607 0.0656731 0.0811271 0.102179 0.137426 0.209668 0.349013 0.618998 1.13973 2.05733 3.6768 5.31522 0.00566035 0.00562277 0.00538857 0.00526646 0.00531184 0.00550668 0.00591611 0.00657583 0.00753628 0.00886637 0.0106593 0.0130312 0.0161211 0.0200862 0.0251054 0.0313648 0.039073 0.0484553 0.0598009 0.0735483 0.0905959 0.113159 0.148697 0.219524 0.35655 0.617415 1.10586 1.973 3.53207 5.20269 0.00666039 0.00662127 0.00626991 0.00601631 0.0060271 0.00618424 0.00657488 0.0072384 0.00823109 0.00963067 0.01155 0.0141292 0.0175406 0.0219754 0.027642 0.0347537 0.0435204 0.054162 0.0669512 0.0822789 0.101018 0.125174 0.161468 0.229827 0.364192 0.610797 1.06585 1.89818 3.42627 5.14228 0.00793327 0.00790901 0.00743079 0.0070225 0.00700334 0.00713969 0.00753426 0.00822977 0.00928813 0.0107951 0.0128826 0.0157166 0.0194964 0.0244474 0.030808 0.0388143 0.0487061 0.0606933 0.0750433 0.0921967 0.113071 0.139458 0.176429 0.240464 0.373602 0.61654 1.05487 1.85865 3.39228 5.24278 0.00951119 0.00952939 0.0089106 0.00833936 0.00829658 0.00843329 0.00886354 0.00962804 0.0107933 0.0124542 0.0147619 0.0179094 0.0221289 0.0276727 0.0348197 0.0438385 0.0549997 0.0685682 0.0847893 0.104056 0.127269 0.156138 0.194589 0.25575 0.379604 0.623806 1.05375 1.8478 3.4205 5.49843 0.0114297 0.011531 0.0107489 0.010023 0.00997467 0.0101414 0.0106562 0.0115465 0.012879 0.0147591 0.0173652 0.0209195 0.0256927 0.0319773 0.040082 0.0503264 0.0630221 0.0784538 0.0969667 0.118862 0.144942 0.177 0.218412 0.27855 0.387565 0.6259 1.07039 1.87282 3.51045 5.94767 0.013728 0.0139642 0.0129906 0.0121357 0.01211 0.0123539 0.0130283 0.0141251 0.0157108 0.0179021 0.0209118 0.0250074 0.0305004 0.0377296 0.0470552 0.0588191 0.0734009 0.0911238 0.112353 0.137564 0.167362 0.203353 0.248851 0.311218 0.411781 0.62323 1.07984 1.932 3.64403 6.55224 0.016454 0.0168861 0.0156881 0.0147475 0.0147803 0.0151778 0.0161184 0.0175359 0.019488 0.0221144 0.0256721 0.0304796 0.0369126 0.0453509 0.0562045 0.0698718 0.0867313 0.107195 0.13169 0.160699 0.195139 0.236183 0.286599 0.352941 0.451596 0.634961 1.06864 1.9749 3.74976 7.23611 0.0196729 0.0203686 0.0189094 0.0179375 0.0180786 0.0187359 0.0200841 0.0219693 0.024436 0.02765 0.031937 0.0376791 0.0453068 0.0552717 0.0680117 0.0839676 0.103589 0.127238 0.155504 0.18899 0.228658 0.276161 0.333771 0.406723 0.508997 0.678107 1.04816 1.94778 3.82661 7.90739 0.0234781 0.0245069 0.0227438 0.0217978 0.022118 0.0231702 0.0251048 0.0276364 0.0307916 0.0347879 0.0400215 0.0469632 0.0561074 0.0679377 0.0829687 0.101635 0.124433 0.151838 0.184345 0.222859 0.268605 0.323236 0.389995 0.472874 0.582305 0.747929 1.06656 1.8945 3.90382 8.47291 0.0280044 0.0294363 0.0273125 0.026445 0.0270366 0.0286458 0.031368 0.0347501 0.0387983 0.0437929 0.0502439 0.0586866 0.0697024 0.0838139 0.101526 0.123368 0.149791 0.181355 0.218786 0.26281 0.315283 0.378266 0.455097 0.551525 0.675367 0.848355 1.14997 1.87349 3.9524 8.76998 0.0334508 0.0353521 0.0327849 0.0320359 0.0330151 0.0353558 0.0390855 0.0435252 0.0486931 0.0549531 0.0629109 0.0732306 0.0864987 0.103332 0.124226 0.149652 0.18023 0.21645 0.259265 0.309805 0.369626 0.442078 0.530976 0.642381 0.787565 0.982289 1.29 1.9602 3.98065 8.80796 0.0401147 0.0425486 0.0394211 0.0388049 0.0403053 0.0435338 0.0484824 0.0541864 0.0606974 0.0685287 0.0783448 0.090918 0.106928 0.12691 0.151516 0.181135 0.216307 0.257865 0.306706 0.364469 0.433389 0.516314 0.619737 0.750246 0.920504 1.15334 1.495 2.18541 4.00835 8.54829 0.0484664 0.0514946 0.0476569 0.0471535 0.0492934 0.0535036 0.0598481 0.0669997 0.0750822 0.08478 0.0968807 0.112169 0.131407 0.155182 0.183969 0.218461 0.259074 0.306562 0.362554 0.428581 0.5081 0.604811 0.724852 0.879832 1.08443 1.36529 1.78386 2.56309 4.05674 7.8666 0.0592606 0.0629847 0.0582265 0.0577274 0.0605577 0.0657296 0.0736142 0.0823556 0.0922705 0.104098 0.11882 0.137436 0.16048 0.188702 0.22257 0.262494 0.309548 0.364328 0.428536 0.504912 0.597093 0.711114 0.854562 1.04041 1.29344 1.64213 2.20164 3.17859 4.07574 6.71445 0.0737394 0.0783423 0.0723463 0.0715886 0.0751719 0.081194 0.0906751 0.101115 0.113178 0.12736 0.14497 0.167295 0.195016 0.228481 0.268391 0.315137 0.36948 0.433209 0.508068 0.597104 0.7061 0.841633 1.01711 1.24935 1.56499 2.04702 2.82887 3.78716 4.04806 5.1536 0.0950252 0.100722 0.0931462 0.0914814 0.09575 0.102244 0.113239 0.125273 0.139582 0.156259 0.177087 0.20337 0.236142 0.276117 0.323174 0.37821 0.442153 0.516361 0.604826 0.711217 0.841778 1.00792 1.22684 1.52419 1.95092 2.67324 3.5695 4.02793 3.92799 3.2924 0.134099 0.140939 0.131068 0.126859 0.13139 0.137466 0.148753 0.161542 0.176546 0.194716 0.218521 0.248921 0.286636 0.333799 0.390055 0.455179 0.531109 0.620002 0.725103 0.854753 1.01735 1.22704 1.50737 1.9125 2.56979 3.46482 3.98536 4.10736 3.31555 1.81802 0.218494 0.226376 0.213603 0.202366 0.206209 0.209692 0.219542 0.229847 0.24053 0.255841 0.27864 0.311285 0.353003 0.4068 0.472976 0.551689 0.642602 0.750523 0.880211 1.0408 1.2497 1.52452 1.91279 2.52664 3.41989 3.9973 4.05871 3.55529 1.90972 1.20057 0.386916 0.395584 0.38001 0.353241 0.352855 0.34907 0.356572 0.364174 0.373598 0.379624 0.387595 0.4118 0.451615 0.509055 0.582408 0.675519 0.787801 0.920816 1.08477 1.29386 1.56549 1.95141 2.57021 3.42041 3.933 4.11752 3.66383 2.14015 1.22628 1.05131 0.712055 0.720562 0.703939 0.656232 0.642495 0.619164 0.617508 0.610798 0.616492 0.623717 0.625811 0.623159 0.634902 0.678092 0.747982 0.848492 0.982506 1.15364 1.36566 1.64248 2.04747 2.67412 3.46532 3.99739 4.11773 3.71832 2.22577 1.27803 1.06147 1.00903 1.2998 1.30801 1.29546 1.23288 1.19793 1.14008 1.10611 1.06597 1.05486 1.05363 1.07015 1.07957 1.06842 1.04805 1.06655 1.15007 1.29024 1.49529 1.78418 2.20203 2.82924 3.56985 3.98575 4.05892 3.66339 2.22612 1.29195 1.06682 1.01149 1.00057 2.24249 2.25018 2.25692 2.20066 2.15269 2.05808 1.97364 1.8986 1.85884 1.84774 1.87255 1.93144 1.97429 1.94729 1.8943 1.87353 1.96049 2.18587 2.56347 3.17883 3.78748 4.0281 4.10734 3.5557 2.13998 1.27801 1.06681 1.01226 1.00072 1.00001 3.83988 3.85442 3.90267 3.85618 3.81018 3.67773 3.53292 3.42688 3.39268 3.42057 3.51014 3.64326 3.74865 3.82535 3.90305 3.95235 3.98104 4.00892 4.05704 4.076 4.04772 3.92815 3.3155 1.90938 1.22627 1.06146 1.01149 1.00072 1.00001 1 5.28148 5.31884 5.47789 5.47178 5.45568 5.31678 5.20417 5.14349 5.24371 5.49869 5.947 6.55056 7.23411 7.90598 8.47254 8.77048 8.80876 8.54863 7.86641 6.71417 5.1529 3.29201 1.81791 1.20049 1.05131 1.00902 1.00057 1.00001 1 1
				</DataArray>
				<DataArray Name="Energy" type="Float32" format="ascii">
 798.003 786.981 762.703 720.431 660.02 586.621 508.131 431.894 362.658 302.557 251.849 209.767 175.104 146.564 122.949 103.258 86.6954 72.6502 60.6637 50.388 41.552 34.0473 27.9506 22.4706 16.6619 11.4716 7.71249 5.25493 3.57907 2.88932 786.957 777.619 756.628 718.082 660.745 589.065 510.875 433.857 363.246 301.507 249.221 205.862 170.311 141.286 117.542 98.0064 81.801 68.241 56.8049 47.1064 38.8366 31.8368 26.1484 21.1364 15.8368 10.9826 7.41611 5.11214 3.51728 2.84714 762.636 756.584 742.758 713.435 666.591 604.913 532.995 458.082 386.563 322.438 267.371 221.325 183.38 152.268 126.751 105.738 88.3341 73.8141 61.6087 51.2388 42.3195 34.6689 28.3393 22.6476 16.7225 11.4569 7.64436 5.19336 3.52974 2.83231 720.323 718.003 713.403 695.861 660.298 608.002 545.348 477.366 409 344.487 286.708 236.899 195.057 160.495 132.21 109.137 90.2968 74.8432 62.0808 51.4372 42.4676 34.9358 28.8258 23.3966 17.4568 11.8852 7.79712 5.2276 3.53076 2.81176 659.893 660.666 666.576 660.303 637.617 596.585 540.731 476.566 410.163 346.299 288.137 237.433 194.653 159.262 130.314 106.77 87.6454 72.1051 59.4495 49.0994 40.5761 33.5542 27.9086 22.9711 17.501 12.1962 8.08123 5.38804 3.60064 2.84285 586.495 589.009 604.94 608.055 596.621 567.629 521.673 464.507 402.381 340.713 283.417 232.759 189.55 153.66 124.366 100.732 81.787 66.67 54.6154 44.9832 37.2283 30.9565 26.0039 21.8459 17.1762 12.3471 8.31525 5.53309 3.66496 2.87282 508.015 510.842 533.068 545.457 540.821 521.73 485.669 436.994 381.357 324.22 269.747 220.725 178.502 143.346 114.78 91.9758 73.9721 59.8652 48.8173 40.1541 33.3018 27.8693 23.6128 20.2986 16.6299 12.404 8.54505 5.74835 3.80973 2.95073 431.789 433.838 458.173 477.51 476.694 464.613 437.058 397.05 349.22 298.533 249.001 203.613 164.094 131.063 104.279 83.0356 66.411 53.5081 43.4971 35.7112 29.6028 24.7957 21.0658 18.3128 15.602 12.2253 8.74516 5.96321 3.92436 2.99378 362.567 363.234 386.639 409.14 410.291 402.502 381.46 349.275 309.539 266.387 223.293 183.11 147.679 117.857 93.614 74.3937 59.3841 47.7629 38.7673 31.7984 26.3586 22.0873 18.7331 16.2553 14.2961 11.8029 8.81918 6.13885 4.01446 3.00488 302.48 301.503 322.476 344.591 346.395 340.815 324.324 298.615 266.431 230.969 194.925 160.743 130.176 104.172 82.8809 65.9237 52.6403 42.3375 34.3473 28.1443 23.2961 19.4899 16.4777 14.2081 12.6513 11.0159 8.69164 6.22222 4.08625 2.98505 251.784 249.215 267.379 286.764 288.188 283.481 269.825 249.077 223.355 194.961 165.776 137.678 112.18 90.2204 72.0601 57.4895 46.0106 37.066 30.108 24.6829 20.4257 17.0759 14.4136 12.3364 10.843 9.81583 8.28115 6.22051 4.16482 2.93844 209.711 205.852 221.31 236.912 237.444 232.787 220.774 203.672 183.176 160.81 137.727 115.248 94.5678 76.532 61.4583 49.2558 39.5759 31.9897 26.0566 21.411 17.7378 14.8243 12.4869 10.6213 9.20064 8.29365 7.49697 6.02947 4.21849 2.89736 175.053 170.297 183.348 195.036 194.633 189.554 178.531 164.139 147.743 130.26 112.272 94.6288 78.2212 63.7481 51.5277 41.549 33.5688 27.2728 22.3176 18.4098 15.2993 12.8018 10.776 9.12741 7.81564 6.88189 6.36814 5.59141 4.19604 2.87386 146.515 141.266 152.223 160.45 159.222 153.647 143.361 131.097 117.915 104.258 90.3329 76.6374 63.8064 52.3913 42.665 34.6546 28.1979 23.0605 18.987 15.7491 13.148 11.0403 9.30792 7.8786 6.70407 5.79112 5.20102 4.85786 4.07416 2.8492 122.902 117.517 126.697 132.15 130.262 124.342 114.782 104.301 93.6592 82.959 72.1708 61.5765 51.6191 42.708 35.0648 28.7192 23.5617 19.4238 16.1102 13.4526 11.2973 9.53034 8.06379 6.83338 5.80211 4.95874 4.34566 4.05127 3.82587 2.79551 103.211 97.9764 105.679 109.07 106.712 100.699 91.9651 83.0429 74.4258 65.9869 57.587 49.3677 41.6471 34.7195 28.7471 23.7583 19.6695 16.3587 13.6823 11.5102 9.73115 8.25669 7.01774 5.9702 5.0746 4.32688 3.7419 3.39129 3.42869 2.69322 86.6499 81.768 88.2765 90.2296 87.5859 81.7468 73.9488 66.4021 59.3984 52.6862 46.087 39.6705 33.6578 28.2647 23.6019 19.6846 16.4532 13.8111 11.6534 9.88359 8.41446 7.18506 6.14008 5.24585 4.47641 3.81612 3.2813 2.91304 2.94349 2.51316 72.6066 68.2068 73.7603 74.7807 72.0474 66.6256 59.8313 53.4849 47.7582 42.3609 37.1177 32.0584 27.3429 23.1171 19.4622 16.3793 13.8178 11.7077 9.9657 8.52072 7.30817 6.27859 5.39675 4.6335 3.96882 3.39566 2.90874 2.53911 2.4638 2.23927 60.623 56.7712 61.5607 62.0256 59.3969 54.5711 48.7785 43.464 38.7484 34.3499 30.1347 26.0991 22.3637 19.0277 16.1396 13.6997 11.6617 9.96741 8.55751 7.37308 6.36874 5.50605 4.75628 4.10353 3.52982 3.02687 2.5965 2.21779 2.04605 1.88157 50.3513 47.0746 51.1969 51.3908 49.0546 44.9432 40.1166 35.6764 31.7716 28.1333 24.6897 21.4315 18.4348 15.7723 13.4716 11.5217 9.88909 8.52237 7.37304 6.39851 5.56159 4.83601 4.19831 3.63579 3.14 2.69721 2.32877 1.92401 1.7 1.44631 41.52 38.8078 42.2835 42.43 40.5402 37.1954 33.2705 29.5728 26.3317 23.2792 20.421 17.7431 15.3091 13.1579 11.306 9.73736 8.41704 7.30788 6.3679 5.56096 4.86135 4.24617 3.70266 3.21938 2.78381 2.39903 2.07915 1.64627 1.43502 0.973577 34.0199 31.8112 34.6376 34.9052 33.5257 30.9306 27.8457 24.773 22.0659 19.4733 17.0676 14.8223 12.8029 11.0422 9.53234 8.25799 7.18551 6.27735 5.50418 4.83471 4.24558 3.72334 3.25703 2.83697 2.46689 2.13074 1.73015 1.46465 1.13146 0.499556 27.9276 26.1262 28.3119 28.8003 27.8856 25.9837 23.5963 21.0506 18.7191 16.4655 14.4061 12.4835 10.774 9.30629 8.06258 7.01649 6.13877 5.39522 4.75437 4.19666 3.70167 3.2566 2.85511 2.49113 2.17768 1.79001 1.51635 1.21218 0.659569 0.133583 22.4564 21.1218 22.6295 23.3805 22.9567 21.8335 20.2888 18.3043 16.2477 14.2013 12.332 10.6192 9.12591 7.87679 6.83156 5.96838 5.24403 4.63182 4.10193 3.63438 3.21838 2.83639 2.49092 2.20346 1.81032 1.53651 1.27905 0.757431 0.190278 0.00877324 16.6552 15.8295 16.7137 17.4486 17.4939 17.1705 16.6258 15.5993 14.294 12.6495 10.8422 9.20078 7.81574 6.70354 5.801 5.07322 4.47492 3.9674 3.52861 3.13901 2.78306 2.46639 2.17741 1.81025 1.5557 1.3036 0.829457 0.245151 0.0157471 0.000117935 11.4694 10.9799 11.4537 11.8818 12.1934 12.3449 12.4025 12.2249 11.8034 11.017 9.81749 8.29589 6.88364 5.79192 4.95865 4.3262 3.81519 3.39469 3.02607 2.69663 2.39861 2.13041 1.78978 1.53644 1.30364 0.851231 0.272422 0.0238304 0.000241021 3.04283e-06 7.71227 7.41561 7.64371 7.7962 8.08037 8.31434 8.54452 8.74496 8.81985 8.69268 8.28308 7.49971 6.371 5.20294 4.34636 3.74178 3.28077 2.90815 2.59604 2.32854 2.07902 1.73004 1.51632 1.279 0.829413 0.272384 0.0259378 0.000331084 3.475e-06 2.50281e-06 5.2555 5.11262 5.19371 5.22781 5.38814 5.53307 5.74842 5.96334 6.1393 6.22293 6.22153 6.03126 5.59368 4.86 4.05245 3.39153 2.9127 2.53867 2.21753 1.9239 1.64626 1.46461 1.21214 0.757424 0.245121 0.023835 0.000330792 3.63751e-06 2.50417e-06 2.50001e-06 3.57965 3.51783 3.53022 3.5312 3.601 3.66528 3.81001 3.92463 4.01487 4.08668 4.1654 4.21932 4.19722 4.07551 3.82675 3.42891 2.94315 2.46333 2.04579 1.69985 1.435 1.13143 0.659508 0.190268 0.0157398 0.000240881 3.47576e-06 2.50416e-06 2.50001e-06 2.5e-06 2.88979 2.84759 2.83272 2.81211 2.8431 2.87302 2.9509 2.9939 3.00504 2.98534 2.93891 2.89794 2.87437 2.84955 2.79571 2.6932 2.51293 2.23898 1.88135 1.44614 0.973468 0.499499 0.133526 0.00876611 0.000118025 3.04242e-06 2.50281e-06 2.50001e-06 2.5e-06 2.5e-06
				</DataArray>
				<DataArray Name="F1" type="Float32" format="ascii">
 1 1 1 1 1 1 1 1 1 1 1 1 1 1 1 1 1 1 1 1 1 1 1 1 1 1 1 1 1 1 1 1 1 1 1 1 1 1 1 1 1 1 1 1 1 1 1 1 1 1 1 1 1 1 1 1 1 1 1 1 1 1 1 1 1 1 1 1 1 1 1 1 1 1 1 1 1 1 1 1 1 1 1 1 1 1 1 1 1 1 1 1 1 1 1 1 1 1 1 1 1 1 1 1 1 1 1 1 1 1 1 1 1 1 1 1 1 1 1 1 1 1 1 1 1 1 1 1 1 1 1 1 1 1 1 1 1 1 1 1 1 1 1 1 1 1 1 1 1 1 1 1 1 1 1 1 1 1 1 1 1 1 1 1 1 1 1 1 1 1 1 1 1 1 1 1 1 1 1 1 1 1 1 1 1 1 1 1 1 1 1 1 1 1 1 1 1 1 1 1 1 1 1 1 1 1 1 1 1 1 1 1 1 1 1 1 1 1 1 1 1 1 1 1 1 1 1 1 1 1 1 1 1 1 1 1 1 1 1 1 1 1 1 1 1 1 1 1 1 1 1 1 1 1 1 1 1 1 1 1 1 1 1 1 1 1 1 1 1 1 1 1 1 1 1 1 1 1 1 1 1 1 1 1 1 1 1 1 1 1 1 1 1 1 1 1 1 1 1 1 1 1 1 1 1 1 1 1 1 1 1 1 1 1 1 1 1 1 1 1 1 1 1 1 1 1 1 1 1 1 1 1 1 1 1 1 1 1 1 1 1 1 1 1 1 1 1 1 1 1 1 1 1 1 1 1 1 1 1 1 1 1 1 1 1 1 1 1 1 1 1 1 1 1 1 1 1 1 1 1 1 1 1 1 1 1 1 1 1 1 1 1 1 1 1 1 1 1 1 1 1 1 1 1 1 1 1 1 1 1 1 1 1 1 1 1 1 1 1 1 1 1 1 1 1 1 1 1 1 1 1 1 1 1 1 1 1 1 1 1 1 1 1 1 1 1 1 1 1 1 1 1 1 1 1 1 1 1 1 1 1 1 1 1 1 1 1 1 1 1 1 1 1 1 1 1 1 1 1 1 1 1 1 1 1 1 1 1 1 1 1 1 1 1 1 1 1 1 1 1 1 1 1 1 1 1 1 1 1 1 1 1 1 1 1 1 1 1 1 1 1 1 1 1 1 1 1 1 1 1 1 1 1 1 1 1 1 1 1 1 1 1 1 1 1 1 1 1 1 1 1 1 1 1 1 1 1 1 1 1 1 1 1 1 1 1 1 1 1 1 1 1 1 1 1 1 1 1 1 1 1 1 1 1 1 1 1 1 1 1 1 1 1 1 1 1 1 1 1 1 1 1 1 1 1 1 1 1 1 1 1 1 1 1 1 1 1 1 1 1 1 1 1 1 1 1 1 1 1 1 1 1 1 1 1 1 1 1 1 1 1 1 1 1 1 1 1 1 1 1 1 1 1 1 1 1 1 1 1 1 1 1 1 1 1 1 1 1 1 1 1 1 1 1 1 1 1 1 1 1 1 1 1 1 1 1 1 1 1 1 1 1 1 1 1 1 1 1 1 1 1 1 1 1 1 1 1 1 1 1 1 1 1 1 1 1 1 1 1 1 1 1 1 1 1 1 1 1 1 1 1 1 1 1 1 1 1 1 1 1 1 1 1 1 1 1 1 1 1 1 1 1 1 1 1 1 1 1 1 1 1 1 1 1 1 1 1 1 1 1 1 1 1 1 1 1 1 1 1 1 1 1 1 1 1 1 1 1 1 1 1 1 1 1 1 1 1 1 1 1 1 1 1 1 1 1 1 1 1 1 1 1 1 1 1 1 1 1 1 1 1 1 1 1 1 1 1 1 1 1 1 1 1 1 1 1 1 1 1 1 1 1 1 1 1 1 1 1 1 1 1 1 1 1 1 1 1 1 1 1 1 1 1 1 1 1 1 1 1 1 1 1 1 1 1 1 1 1 1 1 1 1 1 1 1 1 1 1 1 1 1 1 1 1 1 1 1 1 1 1
				</DataArray>
				<DataArray Name="F2" type="Float32" format="ascii">
 0 0 0 0 0 0 0 0 0 0 0 0 0 0 0 0 0 0 0 0 0 0 0 0 0 0 0 0 0 0 0 0 0 0 0 0 0 0 0 0 0 0 0 0 0 0 0 0 0 0 0 0 0 0 0 0 0 0 0 0 0 0 0 0 0 0 0 0 0 0 0 0 0 0 0 0 0 0 0 0 0 0 0 0 0 0 0 0 0 0 0 0 0 0 0 0 0 0 0 0 0 0 0 0 0 0 0 0 0 0 0 0 0 0 0 0 0 0 0 0 0 0 0 0 0 0 0 0 0 0 0 0 0 0 0 0 0 0 0 0 0 0 0 0 0 0 0 0 0 0 0 0 0 0 0 0 0 0 0 0 0 0 0 0 0 0 0 0 0 0 0 0 0 0 0 0 0 0 0 0 0 0 0 0 0 0 0 0 0 0 0 0 0 0 0 0 0 0 0 0 0 0 0 0 0 0 0 0 0 0 0 0 0 0 0 0 0 0 0 0 0 0 0 0 0 0 0 0 0 0 0 0 0 0 0 0 0 0 0 0 0 0 0 0 0 0 0 0 0 0 0 0 0 0 0 0 0 0 0 0 0 0 0 0 0 0 0 0 0 0 0 0 0 0 0 0 0 0 0 0 0 0 0 0 0 0 0 0 0 0 0 0 0 0 0 0 0 0 0 0 0 0 0 0 0 0 0 0 0 0 0 0 0 0 0 0 0 0 0 0 0 0 0 0 0 0 0 0 0 0 0 0 0 0 0 0 0 0 0 0 0 0 0 0 0 0 0 0 0 0 0 0 0 0 0 0 0 0 0 0 0 0 0 0 0 0 0 0 0 0 0 0 0 0 0 0 0 0 0 0 0 0 0 0 0 0 0 0 0 0 0 0 0 0 0 0 0 0 0 0 0 0 0 0 0 0 0 0 0 0 0 0 0 0 0 0 0 0 0 0 0 0 0 0 0 0 0 0 0 0 0 0 0 0 0 0 0 0 0 0 0 0 0 0 0 0 0 0 0 0 0 0 0 0 0 0 0 0 0 0 0 0 0 0 0 0 0 0 0 0 0 0 0 0 0 0 0 0 0 0 0 0 0 0 0 0 0 0 0 0 0 0 0 0 0 0 0 0 0 0 0 0 0 0 0 0 0 0 0 0 0 0 0 0 0 0 0 0 0 0 0 0 0 0 0 0 0 0 0 0 0 0 0 0 0 0 0 0 0 0 0 0 0 0 0 0 0 0 0 0 0 0 0 0 0 0 0 0 0 0 0 0 0 0 0 0 0 0 0 0 0 0 0 0 0 0 0 0 0 0 0 0 0 0 0 0 0 0 0 0 0 0 0 0 0 0 0 0 0 0 0 0 0 0 0 0 0 0 0 0 0 0 0 0 0 0 0 0 0 0 0 0 0 0 0 0 0 0 0 0 0 0 0 0 0 0 0 0 0 0 0 0 0 0 0 0 0 0 0 0 0 0 0 0 0 0 0 0 0 0 0 0 0 0 0 0 0 0 0 0 0 0 0 0 0 0 0 0 0 0 0 0 0 0 0 0 0 0 0 0 0 0 0 0 0 0 0 0 0 0 0 0 0 0 0 0 0 0 0 0 0 0 0 0 0 0 0 0 0 0 0 0 0 0 0 0 0 0 0 0 0 0 0 0 0 0 0 0 0 0 0 0 0 0 0 0 0 0 0 0 0 0 0 0 0 0 0 0 0 0 0 0 0 0 0 0 0 0 0 0 0 0 0 0 0 0 0 0 0 0 0 0 0 0 0 0 0 0 0 0 0 0 0 0 0 0 0 0 0 0 0 0 0 0 0 0 0 0 0 0 0 0 0 0 0 0 0 0 0 0 0 0 0 0 0 0 0 0 0 0 0 0 0 0 0 0 0 0 0 0 0 0 0 0 0 0 0 0 0 0 0 0 0 0 0 0 0 0 0 0 0 0 0 0 0 0 0 0 0 0 0 0 0 0 0 0 0 0 0 0 0 0 0 0 0 0 0 0 0 0 0 0 0 0 0 0 0 0 0 0
				</DataArray>
				<DataArray Name="F3" type="Float32" format="ascii">