<?xml version="1.0"?>
<VTKFile type="PolyData">
	<PolyData>
		<Piece NumberOfPoints="961" NumberOfPolys="900">
			<Points>
				<DataArray type="Float32" NumberOfComponents="3" format="ascii">
 0 0 0 0.04 0 0 0.08 0 0 0.12 0 0 0.16 0 0 0.2 0 0 0.24 0 0 0.28 0 0 0.32 0 0 0.36 0 0 0.4 0 0 0.44 0 0 0.48 0 0 0.52 0 0 0.56 0 0 0.6 0 0 0.64 0 0 0.68 0 0 0.72 0 0 0.76 0 0 0.8 0 0 0.84 0 0 0.88 0 0 0.92 0 0 0.96 0 0 1 0 0 1.04 0 0 1.08 0 0 1.12 0 0 1.16 0 0 1.2 0 0 0 0.04 0 0.04 0.04 0 0.08 0.04 0 0.12 0.04 0 0.16 0.04 0 0.2 0.04 0 0.24 0.04 0 0.28 0.04 0 0.32 0.04 0 0.36 0.04 0 0.4 0.04 0 0.44 0.04 0 0.48 0.04 0 0.52 0.04 0 0.56 0.04 0 0.6 0.04 0 0.64 0.04 0 0.68 0.04 0 0.72 0.04 0 0.76 0.04 0 0.8 0.04 0 0.84 0.04 0 0.88 0.04 0 0.92 0.04 0 0.96 0.04 0 1 0.04 0 1.04 0.04 0 1.08 0.04 0 1.12 0.04 0 1.16 0.04 0 1.2 0.04 0 0 0.08 0 0.04 0.08 0 0.08 0.08 0 0.12 0.08 0 0.16 0.08 0 0.2 0.08 0 0.24 0.08 0 0.28 0.08 0 0.32 0.08 0 0.36 0.08 0 0.4 0.08 0 0.44 0.08 0 0.48 0.08 0 0.52 0.08 0 0.56 0.08 0 0.6 0.08 0 0.64 0.08 0 0.68 0.08 0 0.72 0.08 0 0.76 0.08 0 0.8 0.08 0 0.84 0.08 0 0.88 0.08 0 0.92 0.08 0 0.96 0.08 0 1 0.08 0 1.04 0.08 0 1.08 0.08 0 1.12 0.08 0 1.16 0.08 0 1.2 0.08 0 0 0.12 0 0.04 0.12 0 0.08 0.12 0 0.12 0.12 0 0.16 0.12 0 0.2 0.12 0 0.24 0.12 0 0.28 0.12 0 0.32 0.12 0 0.36 0.12 0 0.4 0.12 0 0.44 0.12 0 0.48 0.12 0 0.52 0.12 0 0.56 0.12 0 0.6 0.12 0 0.64 0.12 0 0.68 0.12 0 0.72 0.12 0 0.76 0.12 0 0.8 0.12 0 0.84 0.12 0 0.88 0.12 0 0.92 0.12 0 0.96 0.12 0 1 0.12 0 1.04 0.12 0 1.08 0.12 0 1.12 0.12 0 1.16 0.12 0 1.2 0.12 0 0 0.16 0 0.04 0.16 0 0.08 0.16 0 0.12 0.16 0 0.16 0.16 0 0.2 0.16 0 0.24 0.16 0 0.28 0.16 0 0.32 0.16 0 0.36 0.16 0 0.4 0.16 0 0.44 0.16 0 0.48 0.16 0 0.52 0.16 0 0.56 0.16 0 0.6 0.16 0 0.64 0.16 0 0.68 0.16 0 0.72 0.16 0 0.76 0.16 0 0.8 0.16 0 0.84 0.16 0 0.88 0.16 0 0.92 0.16 0 0.96 0.16 0 1 0.16 0 1.04 0.16 0 1.08 0.16 0 1.12 0.16 0 1.16 0.16 0 1.2 0.16 0 0 0.2 0 0.04 0.2 0 0.08 0.2 0 0.12 0.2 0 0.16 0.2 0 0.2 0.2 0 0.24 0.2 0 0.28 0.2 0 0.32 0.2 0 0.36 0.2 0 0.4 0.2 0 0.44 0.2 0 0.48 0.2 0 0.52 0.2 0 0.56 0.2 0 0.6 0.2 0 0.64 0.2 0 0.68 0.2 0 0.72 0.2 0 0.76 0.2 0 0.8 0.2 0 0.84 0.2 0 0.88 0.2 0 0.92 0.2 0 0.96 0.2 0 1 0.2 0 1.04 0.2 0 1.08 0.2 0 1.12 0.2 0 1.16 0.2 0 1.2 0.2 0 0 0.24 0 0.04 0.24 0 0.08 0.24 0 0.12 0.24 0 0.16 0.24 0 0.2 0.24 0 0.24 0.24 0 0.28 0.24 0 0.32 0.24 0 0.36 0.24 0 0.4 0.24 0 0.44 0.24 0 0.48 0.24 0 0.52 0.24 0 0.56 0.24 0 0.6 0.24 0 0.64 0.24 0 0.68 0.24 0 0.72 0.24 0 0.76 0.24 0 0.8 0.24 0 0.84 0.24 0 0.88 0.24 0 0.92 0.24 0 0.96 0.24 0 1 0.24 0 1.04 0.24 0 1.08 0.24 0 1.12 0.24 0 1.16 0.24 0 1.2 0.24 0 0 0.28 0 0.04 0.28 0 0.08 0.28 0 0.12 0.28 0 0.16 0.28 0 0.2 0.28 0 0.24 0.28 0 0.28 0.28 0 0.32 0.28 0 0.36 0.28 0 0.4 0.28 0 0.44 0.28 0 0.48 0.28 0 0.52 0.28 0 0.56 0.28 0 0.6 0.28 0 0.64 0.28 0 0.68 0.28 0 0.72 0.28 0 0.76 0.28 0 0.8 0.28 0 0.84 0.28 0 0.88 0.28 0 0.92 0.28 0 0.96 0.28 0 1 0.28 0 1.04 0.28 0 1.08 0.28 0 1.12 0.28 0 1.16 0.28 0 1.2 0.28 0 0 0.32 0 0.04 0.32 0 0.08 0.32 0 0.12 0.32 0 0.16 0.32 0 0.2 0.32 0 0.24 0.32 0 0.28 0.32 0 0.32 0.32 0 0.36 0.32 0 0.4 0.32 0 0.44 0.32 0 0.48 0.32 0 0.52 0.32 0 0.56 0.32 0 0.6 0.32 0 0.64 0.32 0 0.68 0.32 0 0.72 0.32 0 0.76 0.32 0 0.8 0.32 0 0.84 0.32 0 0.88 0.32 0 0.92 0.32 0 0.96 0.32 0 1 0.32 0 1.04 0.32 0 1.08 0.32 0 1.12 0.32 0 1.16 0.32 0 1.2 0.32 0 0 0.36 0 0.04 0.36 0 0.08 0.36 0 0.12 0.36 0 0.16 0.36 0 0.2 0.36 0 0.24 0.36 0 0.28 0.36 0 0.32 0.36 0 0.36 0.36 0 0.4 0.36 0 0.44 0.36 0 0.48 0.36 0 0.52 0.36 0 0.56 0.36 0 0.6 0.36 0 0.64 0.36 0 0.68 0.36 0 0.72 0.36 0 0.76 0.36 0 0.8 0.36 0 0.84 0.36 0 0.88 0.36 0 0.92 0.36 0 0.96 0.36 0 1 0.36 0 1.04 0.36 0 1.08 0.36 0 1.12 0.36 0 1.16 0.36 0 1.2 0.36 0 0 0.4 0 0.04 0.4 0 0.08 0.4 0 0.12 0.4 0 0.16 0.4 0 0.2 0.4 0 0.24 0.4 0 0.28 0.4 0 0.32 0.4 0 0.36 0.4 0 0.4 0.4 0 0.44 0.4 0 0.48 0.4 0 0.52 0.4 0 0.56 0.4 0 0.6 0.4 0 0.64 0.4 0 0.68 0.4 0 0.72 0.4 0 0.76 0.4 0 0.8 0.4 0 0.84 0.4 0 0.88 0.4 0 0.92 0.4 0 0.96 0.4 0 1 0.4 0 1.04 0.4 0 1.08 0.4 0 1.12 0.4 0 1.16 0.4 0 1.2 0.4 0 0 0.44 0 0.04 0.44 0 0.08 0.44 0 0.12 0.44 0 0.16 0.44 0 0.2 0.44 0 0.24 0.44 0 0.28 0.44 0 0.32 0.44 0 0.36 0.44 0 0.4 0.44 0 0.44 0.44 0 0.48 0.44 0 0.52 0.44 0 0.56 0.44 0 0.6 0.44 0 0.64 0.44 0 0.68 0.44 0 0.72 0.44 0 0.76 0.44 0 0.8 0.44 0 0.84 0.44 0 0.88 0.44 0 0.92 0.44 0 0.96 0.44 0 1 0.44 0 1.04 0.44 0 1.08 0.44 0 1.12 0.44 0 1.16 0.44 0 1.2 0.44 0 0 0.48 0 0.04 0.48 0 0.08 0.48 0 0.12 0.48 0 0.16 0.48 0 0.2 0.48 0 0.24 0.48 0 0.28 0.48 0 0.32 0.48 0 0.36 0.48 0 0.4 0.48 0 0.44 0.48 0 0.48 0.48 0 0.52 0.48 0 0.56 0.48 0 0.6 0.48 0 0.64 0.48 0 0.68 0.48 0 0.72 0.48 0 0.76 0.48 0 0.8 0.48 0 0.84 0.48 0 0.88 0.48 0 0.92 0.48 0 0.96 0.48 0 1 0.48 0 1.04 0.48 0 1.08 0.48 0 1.12 0.48 0 1.16 0.48 0 1.2 0.48 0 0 0.52 0 0.04 0.52 0 0.08 0.52 0 0.12 0.52 0 0.16 0.52 0 0.2 0.52 0 0.24 0.52 0 0.28 0.52 0 0.32 0.52 0 0.36 0.52 0 0.4 0.52 0 0.44 0.52 0 0.48 0.52 0 0.52 0.52 0 0.56 0.52 0 0.6 0.52 0 0.64 0.52 0 0.68 0.52 0 0.72 0.52 0 0.76 0.52 0 0.8 0.52 0 0.84 0.52 0 0.88 0.52 0 0.92 0.52 0 0.96 0.52 0 1 0.52 0 1.04 0.52 0 1.08 0.52 0 1.12 0.52 0 1.16 0.52 0 1.2 0.52 0 0 0.56 0 0.04 0.56 0 0.08 0.56 0 0.12 0.56 0 0.16 0.56 0 0.2 0.56 0 0.24 0.56 0 0.28 0.56 0 0.32 0.56 0 0.36 0.56 0 0.4 0.56 0 0.44 0.56 0 0.48 0.56 0 0.52 0.56 0 0.56 0.56 0 0.6 0.56 0 0.64 0.56 0 0.68 0.56 0 0.72 0.56 0 0.76 0.56 0 0.8 0.56 0 0.84 0.56 0 0.88 0.56 0 0.92 0.56 0 0.96 0.56 0 1 0.56 0 1.04 0.56 0 1.08 0.56 0 1.12 0.56 0 1.16 0.56 0 1.2 0.56 0 0 0.6 0 0.04 0.6 0 0.08 0.6 0 0.12 0.6 0 0.16 0.6 0 0.2 0.6 0 0.24 0.6 0 0.28 0.6 0 0.32 0.6 0 0.36 0.6 0 0.4 0.6 0 0.44 0.6 0 0.48 0.6 0 0.52 0.6 0 0.56 0.6 0 0.6 0.6 0 0.64 0.6 0 0.68 0.6 0 0.72 0.6 0 0.76 0.6 0 0.8 0.6 0 0.84 0.6 0 0.88 0.6 0 0.92 0.6 0 0.96 0.6 0 1 0.6 0 1.04 0.6 0 1.08 0.6 0 1.12 0.6 0 1.16 0.6 0 1.2 0.6 0 0 0.64 0 0.04 0.64 0 0.08 0.64 0 0.12 0.64 0 0.16 0.64 0 0.2 0.64 0 0.24 0.64 0 0.28 0.64 0 0.32 0.64 0 0.36 0.64 0 0.4 0.64 0 0.44 0.64 0 0.48 0.64 0 0.52 0.64 0 0.56 0.64 0 0.6 0.64 0 0.64 0.64 0 0.68 0.64 0 0.72 0.64 0 0.76 0.64 0 0.8 0.64 0 0.84 0.64 0 0.88 0.64 0 0.92 0.64 0 0.96 0.64 0 1 0.64 0 1.04 0.64 0 1.08 0.64 0 1.12 0.64 0 1.16 0.64 0 1.2 0.64 0 0 0.68 0 0.04 0.68 0 0.08 0.68 0 0.12 0.68 0 0.16 0.68 0 0.2 0.68 0 0.24 0.68 0 0.28 0.68 0 0.32 0.68 0 0.36 0.68 0 0.4 0.68 0 0.44 0.68 0 0.48 0.68 0 0.52 0.68 0 0.56 0.68 0 0.6 0.68 0 0.64 0.68 0 0.68 0.68 0 0.72 0.68 0 0.76 0.68 0 0.8 0.68 0 0.84 0.68 0 0.88 0.68 0 0.92 0.68 0 0.96 0.68 0 1 0.68 0 1.04 0.68 0 1.08 0.68 0 1.12 0.68 0 1.16 0.68 0 1.2 0.68 0 0 0.72 0 0.04 0.72 0 0.08 0.72 0 0.12 0.72 0 0.16 0.72 0 0.2 0.72 0 0.24 0.72 0 0.28 0.72 0 0.32 0.72 0 0.36 0.72 0 0.4 0.72 0 0.44 0.72 0 0.48 0.72 0 0.52 0.72 0 0.56 0.72 0 0.6 0.72 0 0.64 0.72 0 0.68 0.72 0 0.72 0.72 0 0.76 0.72 0 0.8 0.72 0 0.84 0.72 0 0.88 0.72 0 0.92 0.72 0 0.96 0.72 0 1 0.72 0 1.04 0.72 0 1.08 0.72 0 1.12 0.72 0 1.16 0.72 0 1.2 0.72 0 0 0.76 0 0.04 0.76 0 0.08 0.76 0 0.12 0.76 0 0.16 0.76 0 0.2 0.76 0 0.24 0.76 0 0.28 0.76 0 0.32 0.76 0 0.36 0.76 0 0.4 0.76 0 0.44 0.76 0 0.48 0.76 0 0.52 0.76 0 0.56 0.76 0 0.6 0.76 0 0.64 0.76 0 0.68 0.76 0 0.72 0.76 0 0.76 0.76 0 0.8 0.76 0 0.84 0.76 0 0.88 0.76 0 0.92 0.76 0 0.96 0.76 0 1 0.76 0 1.04 0.76 0 1.08 0.76 0 1.12 0.76 0 1.16 0.76 0 1.2 0.76 0 0 0.8 0 0.04 0.8 0 0.08 0.8 0 0.12 0.8 0 0.16 0.8 0 0.2 0.8 0 0.24 0.8 0 0.28 0.8 0 0.32 0.8 0 0.36 0.8 0 0.4 0.8 0 0.44 0.8 0 0.48 0.8 0 0.52 0.8 0 0.56 0.8 0 0.6 0.8 0 0.64 0.8 0 0.68 0.8 0 0.72 0.8 0 0.76 0.8 0 0.8 0.8 0 0.84 0.8 0 0.88 0.8 0 0.92 0.8 0 0.96 0.8 0 1 0.8 0 1.04 0.8 0 1.08 0.8 0 1.12 0.8 0 1.16 0.8 0 1.2 0.8 0 0 0.84 0 0.04 0.84 0 0.08 0.84 0 0.12 0.84 0 0.16 0.84 0 0.2 0.84 0 0.24 0.84 0 0.28 0.84 0 0.32 0.84 0 0.36 0.84 0 0.4 0.84 0 0.44 0.84 0 0.48 0.84 0 0.52 0.84 0 0.56 0.84 0 0.6 0.84 0 0.64 0.84 0 0.68 0.84 0 0.72 0.84 0 0.76 0.84 0 0.8 0.84 0 0.84 0.84 0 0.88 0.84 0 0.92 0.84 0 0.96 0.84 0 1 0.84 0 1.04 0.84 0 1.08 0.84 0 1.12 0.84 0 1.16 0.84 0 1.2 0.84 0 0 0.88 0 0.04 0.88 0 0.08 0.88 0 0.12 0.88 0 0.16 0.88 0 0.2 0.88 0 0.24 0.88 0 0.28 0.88 0 0.32 0.88 0 0.36 0.88 0 0.4 0.88 0 0.44 0.88 0 0.48 0.88 0 0.52 0.88 0 0.56 0.88 0 0.6 0.88 0 0.64 0.88 0 0.68 0.88 0 0.72 0.88 0 0.76 0.88 0 0.8 0.88 0 0.84 0.88 0 0.88 0.88 0 0.92 0.88 0 0.96 0.88 0 1 0.88 0 1.04 0.88 0 1.08 0.88 0 1.12 0.88 0 1.16 0.88 0 1.2 0.88 0 0 0.92 0 0.04 0.92 0 0.08 0.92 0 0.12 0.92 0 0.16 0.92 0 0.2 0.92 0 0.24 0.92 0 0.28 0.92 0 0.32 0.92 0 0.36 0.92 0 0.4 0.92 0 0.44 0.92 0 0.48 0.92 0 0.52 0.92 0 0.56 0.92 0 0.6 0.92 0 0.64 0.92 0 0.68 0.92 0 0.72 0.92 0 0.76 0.92 0 0.8 0.92 0 0.84 0.92 0 0.88 0.92 0 0.92 0.92 0 0.96 0.92 0 1 0.92 0 1.04 0.92 0 1.08 0.92 0 1.12 0.92 0 1.16 0.92 0 1.2 0.92 0 0 0.96 0 0.04 0.96 0 0.08 0.96 0 0.12 0.96 0 0.16 0.96 0 0.2 0.96 0 0.24 0.96 0 0.28 0.96 0 0.32 0.96 0 0.36 0.96 0 0.4 0.96 0 0.44 0.96 0 0.48 0.96 0 0.52 0.96 0 0.56 0.96 0 0.6 0.96 0 0.64 0.96 0 0.68 0.96 0 0.72 0.96 0 0.76 0.96 0 0.8 0.96 0 0.84 0.96 0 0.88 0.96 0 0.92 0.96 0 0.96 0.96 0 1 0.96 0 1.04 0.96 0 1.08 0.96 0 1.12 0.96 0 1.16 0.96 0 1.2 0.96 0 0 1 0 0.04 1 0 0.08 1 0 0.12 1 0 0.16 1 0 0.2 1 0 0.24 1 0 0.28 1 0 0.32 1 0 0.36 1 0 0.4 1 0 0.44 1 0 0.48 1 0 0.52 1 0 0.56 1 0 0.6 1 0 0.64 1 0 0.68 1 0 0.72 1 0 0.76 1 0 0.8 1 0 0.84 1 0 0.88 1 0 0.92 1 0 0.96 1 0 1 1 0 1.04 1 0 1.08 1 0 1.12 1 0 1.16 1 0 1.2 1 0 0 1.04 0 0.04 1.04 0 0.08 1.04 0 0.12 1.04 0 0.16 1.04 0 0.2 1.04 0 0.24 1.04 0 0.28 1.04 0 0.32 1.04 0 0.36 1.04 0 0.4 1.04 0 0.44 1.04 0 0.48 1.04 0 0.52 1.04 0 0.56 1.04 0 0.6 1.04 0 0.64 1.04 0 0.68 1.04 0 0.72 1.04 0 0.76 1.04 0 0.8 1.04 0 0.84 1.04 0 0.88 1.04 0 0.92 1.04 0 0.96 1.04 0 1 1.04 0 1.04 1.04 0 1.08 1.04 0 1.12 1.04 0 1.16 1.04 0 1.2 1.04 0 0 1.08 0 0.04 1.08 0 0.08 1.08 0 0.12 1.08 0 0.16 1.08 0 0.2 1.08 0 0.24 1.08 0 0.28 1.08 0 0.32 1.08 0 0.36 1.08 0 0.4 1.08 0 0.44 1.08 0 0.48 1.08 0 0.52 1.08 0 0.56 1.08 0 0.6 1.08 0 0.64 1.08 0 0.68 1.08 0 0.72 1.08 0 0.76 1.08 0 0.8 1.08 0 0.84 1.08 0 0.88 1.08 0 0.92 1.08 0 0.96 1.08 0 1 1.08 0 1.04 1.08 0 1.08 1.08 0 1.12 1.08 0 1.16 1.08 0 1.2 1.08 0 0 1.12 0 
[...]
			<CellData Scalars="Density">
				<DataArray Name="Density" type="Float32" format="ascii">
 0.00616818 0.00634092 0.00681273 0.00771797 0.00915795 0.0113168 0.0145055 0.0191235 0.025638 0.0346175 0.0467956 0.0632194 0.0857617 0.118094 0.16797 0.248926 0.375701 0.555954 0.780052 0.94016 0.877151 0.720129 0.730211 0.779114 0.850539 0.916228 0.969787 1.01169 1.04363 1.06044 0.00633997 0.00643156 0.00676409 0.00745826 0.00852266 0.0101645 0.0127447 0.0166911 0.0225063 0.0309126 0.0428352 0.0593649 0.0820702 0.113776 0.160809 0.235871 0.359012 0.550944 0.805312 0.992045 0.933587 0.773492 0.779902 0.821257 0.887409 0.948218 0.997542 1.03641 1.06735 1.07297 0.00680952 0.00676289 0.00690702 0.00741904 0.00830505 0.00965993 0.0118715 0.0154697 0.0211866 0.0298556 0.0425674 0.0606584 0.0851442 0.117104 0.160034 0.224595 0.328053 0.498329 0.73786 0.938309 0.906962 0.750274 0.764237 0.815951 0.889006 0.958014 1.01447 1.05816 1.09158 1.10635 0.00770966 0.00745454 0.00741792 0.00791747 0.00880696 0.0102669 0.0129231 0.0175129 0.0253702 0.0376567 0.0558398 0.0811278 0.113864 0.154391 0.204484 0.271986 0.373327 0.533545 0.761303 0.947796 0.917904 0.769077 0.785734 0.837557 0.910624 0.98077 1.03737 1.08206 1.11628 1.12823 0.00914127 0.00851361 0.00830107 0.00880347 0.00968626 0.0110233 0.0139799 0.0200253 0.0303385 0.0459582 0.0676318 0.0962515 0.133267 0.180958 0.241498 0.317849 0.421059 0.568841 0.771542 0.948628 0.927873 0.78811 0.804535 0.851967 0.921808 0.990678 1.04626 1.09092 1.12559 1.13703 0.0112882 0.0101473 0.00965044 0.010255 0.0110102 0.0115602 0.0136457 0.019297 0.0300392 0.0464816 0.0680061 0.0960625 0.133432 0.18399 0.251847 0.338817 0.451916 0.602358 0.791851 0.952492 0.937518 0.807263 0.818446 0.861969 0.927675 0.995685 1.05012 1.09319 1.12876 1.14384 0.0144621 0.0127178 0.0118541 0.0129004 0.0139456 0.0136278 0.013249 0.0162796 0.023667 0.0361925 0.0537165 0.0767786 0.110942 0.164026 0.241929 0.341161 0.463827 0.616575 0.791803 0.942247 0.958391 0.845102 0.836234 0.869738 0.923602 0.989121 1.04332 1.08613 1.12108 1.13674 0.0190632 0.0166507 0.0154393 0.0174736 0.019969 0.0192641 0.0162881 0.0152348 0.0184266 0.026138 0.0387828 0.0569974 0.0859389 0.133522 0.207643 0.313211 0.448751 0.606607 0.779673 0.929996 0.982009 0.887856 0.854776 0.877223 0.918005 0.984598 1.04197 1.08816 1.12521 1.14262 0.0255649 0.0224514 0.0211372 0.0252988 0.0302505 0.0299849 0.0236919 0.0184205 0.0178063 0.0213784 0.0295264 0.0435701 0.0670667 0.107728 0.174494 0.274046 0.41172 0.576745 0.748121 0.901108 0.990304 0.946011 0.886112 0.895929 0.928099 0.994784 1.05797 1.10959 1.15004 1.16665 0.0345385 0.030839 0.0297816 0.0375427 0.0458406 0.0464274 0.0362645 0.0261242 0.0213475 0.0214363 0.0261167 0.0362935 0.0545152 0.0870474 0.142746 0.229491 0.354447 0.518244 0.690586 0.857749 0.978609 1.00873 0.940335 0.92925 0.959224 1.02091 1.09044 1.14806 1.19258 1.21026 0.0467183 0.04274 0.0424586 0.0556735 0.0675062 0.0679848 0.0538472 0.0387699 0.0294753 0.026081 0.0269591 0.0340642 0.0482824 0.0733786 0.117504 0.189704 0.296826 0.442841 0.618798 0.795402 0.949312 1.04307 1.02125 0.989327 1.01545 1.06469 1.13729 1.20159 1.24997 1.26904 0.0631498 0.0592579 0.0605102 0.0809154 0.0961449 0.0960907 0.0768702 0.0569494 0.043505 0.0362601 0.0340619 0.0366954 0.0474893 0.0671138 0.100593 0.157748 0.246588 0.370707 0.530775 0.71185 0.893013 1.03956 1.10468 1.07502 1.0831 1.12355 1.18686 1.25446 1.30619 1.3267 0.085707 0.0819713 0.0849768 0.113633 0.133171 0.133446 0.110915 0.0858463 0.0670317 0.0545621 0.0483689 0.0475681 0.0509586 0.0659153 0.091704 0.134566 0.205119 0.308703 0.445724 0.614155 0.807477 0.997226 1.13725 1.17547 1.17298 1.20209 1.23869 1.30174 1.35694 1.378 0.118073 0.113699 0.11694 0.154129 0.180852 0.183987 0.163966 0.13353 0.107867 0.0872648 0.073578 0.0672422 0.0660028 0.0699619 0.0896022 0.122147 0.175136 0.258592 0.374986 0.522341 0.704935 0.916325 1.12339 1.26089 1.28363 1.29078 1.30445 1.34792 1.40359 1.42897 0.16802 0.160773 0.1599 0.20421 0.241338 0.25182 0.24188 0.207758 0.174885 0.14314 0.117822 0.100804 0.0918549 0.0897207 0.0936405 0.118811 0.158667 0.221988 0.318282 0.447249 0.610953 0.818553 1.06017 1.28157 1.40346 1.41232 1.40152 1.40926 1.45648 1.48735 0.249105 0.235904 0.224546 0.271728 0.317635 0.338799 0.341167 0.313315 0.274564 0.230018 0.190124 0.158064 0.134816 0.122297 0.11889 0.12216 0.153942 0.201848 0.27635 0.386267 0.534372 0.725042 0.975452 1.26078 1.4949 1.55725 1.52819 1.50026 1.51979 1.55011 0.376026 0.359151 0.328153 0.373078 0.42083 0.451892 0.463711 0.448832 0.412092 0.355185 0.297428 0.24715 0.205612 0.175454 0.158783 0.153963 0.157174 0.196089 0.253275 0.340817 0.470367 0.646344 0.882524 1.19701 1.53235 1.72734 1.70127 1.63221 1.60791 1.62487 0.556353 0.551175 0.498488 0.533442 0.568561 0.602334 0.616383 0.606688 0.576894 0.518821 0.443509 0.371476 0.309491 0.259172 0.222237 0.201822 0.196 0.200097 0.246689 0.315651 0.422146 0.578831 0.796076 1.11335 1.50463 1.84936 1.92923 1.81972 1.74062 1.71861 0.780367 0.805611 0.737948 0.761364 0.771284 0.791984 0.791743 0.779717 0.748209 0.691012 0.619217 0.531375 0.446557 0.375784 0.318803 0.276483 0.253203 0.246548 0.254 0.308975 0.39444 0.525247 0.721282 1.01716 1.4423 1.90578 2.18114 2.07775 1.93132 1.84605 0.940157 0.992042 0.938208 0.947773 0.948358 0.952548 0.942085 0.929981 0.901152 0.858081 0.795758 0.712384 0.61496 0.523275 0.448107 0.386764 0.341022 0.315658 0.308864 0.322855 0.387492 0.49654 0.66284 0.929413 1.34331 1.89021 2.39074 2.447 2.22005 2.04296 0.876694 0.933131 0.906681 0.917648 0.927535 0.937247 0.957906 0.981723 0.990131 0.978698 0.949436 0.893399 0.808008 0.705617 0.611791 0.535139 0.470987 0.422542 0.394598 0.38726 0.408876 0.489818 0.632387 0.854052 1.22509 1.80886 2.46808 2.85206 2.65705 2.37292 0.720004 0.773391 0.750209 0.768964 0.787971 0.80709 0.844859 0.887456 0.945434 1.00827 1.04297 1.03961 0.997537 0.916756 0.819216 0.725803 0.647032 0.579234 0.525548 0.496743 0.489004 0.52239 0.626772 0.816999 1.12634 1.66292 2.42344 3.16333 3.21657 2.9067 0.730218 0.779888 0.764239 0.785716 0.804503 0.818365 0.836138 0.854632 0.885807 0.939974 1.0207 1.10411 1.13723 1.12337 1.0605 0.975861 0.883143 0.796736 0.721531 0.663355 0.633142 0.625852 0.679122 0.819761 1.08038 1.53469 2.30141 3.28765 3.8453 3.73925 0.77917 0.821296 0.815997 0.837586 0.852013 0.861986 0.869776 0.877198 0.895828 0.929222 0.988996 1.07458 1.1748 1.26038 1.2815 1.26111 1.1975 1.11359 1.0179 0.929715 0.854257 0.819087 0.818429 0.900059 1.10297 1.47722 2.17066 3.30663 4.51755 4.96295 0.850622 0.887484 0.889086 0.910683 0.921897 0.927775 0.923696 0.918083 0.928112 0.959076 1.01514 1.08287 1.17228 1.28327 1.40301 1.49497 1.53223 1.50458 1.44209 1.34426 1.22541 1.1265 1.08352 1.10129 1.22827 1.54302 2.13483 3.28333 5.06961 6.55295 0.916318 0.948311 0.958102 0.980869 0.990778 0.99582 0.989237 0.984686 0.994829 1.02085 1.06452 1.12319 1.20169 1.2907 1.41212 1.5571 1.72722 1.84933 1.9053 1.88891 1.80846 1.66231 1.53319 1.48171 1.53749 1.77917 2.32645 3.4423 5.50926 8.47852 0.969899 0.997654 1.01459 1.03749 1.04642 1.05027 1.04346 1.04209 1.05801 1.09039 1.13714 1.18664 1.23853 1.30434 1.40144 1.52791 1.70145 1.92919 2.18064 2.39078 2.46774 2.42379 2.29733 2.16643 2.13662 2.31513 2.85513 3.99476 6.01769 10.1577 1.01183 1.03653 1.0583 1.0822 1.09109 1.09337 1.08629 1.0883 1.10965 1.14802 1.20146 1.25427 1.3016 1.34792 1.40922 1.50017 1.63233 1.81989 2.07836 2.44832 2.85333 3.16412 3.2911 3.30339 3.27774 3.43716 3.97095 5.09939 7.23111 11.3917 1.04379 1.06748 1.09172 1.11643 1.12577 1.12895 1.12126 1.12536 1.15012 1.19255 1.24984 1.30604 1.3568 1.40363 1.4565 1.51987 1.60801 1.7408 1.93137 2.22002 2.65731 3.21627 3.84752 4.523 5.0681 5.51056 6.00619 7.25463 9.90021 14.4476 1.0606 1.07312 1.10652 1.12839 1.1372 1.14404 1.13691 1.14279 1.16676 1.21023 1.26894 1.32658 1.37792 1.42896 1.48736 1.55017 1.62496 1.71871 1.84611 2.04313 2.37304 2.90615 3.74016 4.96589 6.5568 8.48785 10.1523 11.3803 14.4691 18.3893
				</DataArray>
				<DataArray Name="Energy" type="Float32" format="ascii">
 980.719 954.032 887.987 783.69 660.582 534.486 416.963 316.254 235.89 174.656 129.136 95.491 70.2477 50.8097 35.4888 23.7691 15.5405 10.2471 6.88486 4.72167 3.23274 2.31297 1.98156 1.78748 1.70386 1.6379 1.58852 1.55497 1.53711 1.52813 954.173 940.56 894.281 811.084 709.739 595.083 474.603 362.33 268.681 195.604 141.114 101.705 73.4081 52.773 37.1302 25.0888 16.2325 10.376 6.73771 4.50648 3.05518 2.18796 1.88819 1.7252 1.6557 1.60214 1.56211 1.534 1.51932 1.50345 888.403 894.437 875.784 815.301 728.357 626.09 509.451 390.818 285.4 202.509 141.984 99.5453 70.7373 51.2296 37.2369 26.3345 17.7041 11.3505 7.253 4.79817 3.24081 2.30686 1.96773 1.76932 1.68172 1.61421 1.56415 1.52995 1.51089 1.50019 784.527 811.487 815.425 764.018 686.697 589.002 467.885 345.175 238.305 160.51 108.198 74.4034 52.9087 38.8278 29.1161 21.7028 15.5987 10.6936 7.13746 4.79174 3.25794 2.32449 1.97275 1.76951 1.6792 1.61258 1.56377 1.53086 1.51173 1.49806 661.792 710.497 728.702 686.97 624.386 548.549 432.429 301.785 199.157 131.397 89.1906 62.6438 45.1328 33.1334 24.6513 18.529 13.7811 9.94206 6.92804 4.77256 3.28887 2.36783 2.00328 1.79791 1.70529 1.64015 1.59199 1.55933 1.54015 1.52538 535.838 596.092 626.712 589.683 549.198 522.85 442.762 313.018 200.931 129.745 88.5388 62.6205 45.0092 32.5155 23.6719 17.4432 12.9005 9.50437 6.87705 4.82827 3.37273 2.44828 2.06225 1.84297 1.74479 1.68038 1.632 1.59751 1.57762 1.56212 418.213 475.603 510.199 468.704 433.471 443.336 455.83 370.666 254.78 166.348 111.93 78.1498 54.0153 36.4277 24.638 17.32 12.5507 9.23687 6.84367 4.94209 3.51472 2.57338 2.14463 1.91268 1.80149 1.73852 1.68932 1.6528 1.63034 1.61452 317.254 363.206 391.583 345.952 302.645 313.526 370.444 395.876 326.843 230.112 154.78 105.143 69.6088 44.6851 28.5872 18.8582 13.0704 9.46211 7.01176 5.18239 3.7405 2.76747 2.26402 1.9997 1.86185 1.78983 1.73308 1.69052 1.66383 1.6474 236.562 269.338 286.066 238.972 199.737 201.304 254.502 326.963 337.587 281.042 203.095 137.407 89.0695 55.3461 34.0479 21.5042 14.1983 9.92969 7.31576 5.49626 4.04685 3.0306 2.4083 2.07817 1.90315 1.80972 1.74296 1.69424 1.66523 1.64972 175.054 196.07 203.011 160.997 131.728 129.898 166.013 230.231 281.466 279.684 229.398 164.71 109.483 68.3483 41.5247 25.6749 16.4511 11.0573 7.97856 5.95031 4.4831 3.34551 2.58739 2.16175 1.93324 1.80115 1.7246 1.66938 1.63841 1.62461 129.347 141.424 142.343 108.521 89.3582 88.5678 111.662 154.831 203.448 229.726 221.724 175.318 123.386 80.989 50.342 30.9695 19.5934 12.9003 8.94729 6.57467 4.96106 3.72275 2.81915 2.26681 1.9473 1.77591 1.68235 1.62194 1.58973 1.57705 95.5924 101.886 99.7825 74.5945 62.7092 62.6043 78.0556 105.234 137.612 164.866 175.335 162.396 125.245 88.3218 58.7097 37.2125 23.5681 15.4224 10.4876 7.49693 5.55844 4.18489 3.12424 2.41369 1.9854 1.76475 1.64068 1.57762 1.5433 1.52947 70.2884 73.4931 70.8719 53.0143 45.1637 45.0035 54.0291 69.6839 89.1181 109.39 123.167 125.041 116.407 89.7047 64.176 43.4811 28.2719 18.5269 12.5579 8.82149 6.38777 4.73408 3.51894 2.61934 2.07632 1.76849 1.61949 1.54123 1.5068 1.49115 50.8141 52.8054 51.2999 38.8921 33.1518 32.5144 36.4403 44.6826 55.2736 68.1793 80.7691 88.1518 89.5887 84.2279 65.4509 47.7211 33.0228 22.1019 14.9772 10.4935 7.50806 5.44378 4.0019 2.9306 2.21482 1.80365 1.6194 1.51463 1.479 1.46341 35.4739 37.136 37.2665 29.1553 24.6655 23.6742 24.6426 28.5705 33.9712 41.4086 50.2058 58.5856 64.0689 65.3663 62.3724 48.8611 36.3247 25.7221 17.708 12.3725 8.82857 6.34544 4.58489 3.32722 2.42533 1.89049 1.63258 1.50746 1.45937 1.44334 23.7509 25.0832 26.3379 21.7236 18.5401 17.4436 17.3187 18.8516 21.4636 25.6143 30.8992 37.1377 43.4 47.6618 48.8294 47.3169 37.3022 28.2297 20.4259 14.4358 10.264 7.38286 5.28484 3.79486 2.72239 2.0304 1.67603 1.51983 1.44879 1.42946 15.5256 16.2255 17.6972 15.6097 13.7864 12.9014 12.5519 13.0666 14.184 16.4169 19.5513 23.5137 28.2037 32.9628 36.2978 37.298 36.4085 29.0085 22.305 16.4717 11.829 8.50041 6.10888 4.34339 3.09664 2.24366 1.75936 1.54684 1.45003 1.42034 10.2384 10.371 11.3442 10.6968 9.94338 9.5055 9.2367 9.46128 9.92604 11.0453 12.8795 15.3893 18.4796 22.0514 25.6938 28.2328 29.0251 28.4162 22.9969 17.8903 13.3893 9.73028 7.02338 4.99436 3.54083 2.51979 1.89629 1.59988 1.46569 1.417 6.88035 6.73502 7.24938 7.13751 6.92708 6.87682 6.84268 7.01111 7.31342 7.97321 8.94007 10.4749 12.5339 14.9439 17.6786 20.4161 22.3134 23.0105 22.4463 18.5064 14.5312 11.0077 8.05978 5.77736 4.0891 2.891 2.1003 1.68726 1.50005 1.42344 4.71915 4.50476 4.79643 4.79112 4.77155 4.8272 4.94043 5.1809 5.49375 5.94686 6.57016 7.48993 8.80891 10.4728 12.348 14.4169 16.4632 17.894 18.5114 17.9658 15.1177 11.9651 9.14137 6.67787 4.75405 3.34747 2.38252 1.82717 1.56354 1.44658 3.23135 3.0542 3.23988 3.25734 3.28824 3.37181 3.51344 3.73913 4.04465 4.48012 4.95783 5.55431 6.3822 7.49919 8.81566 10.2485 11.8147 13.3798 14.5392 15.1197 14.6347 12.5503 9.97736 7.64044 5.54978 3.92182 2.75052 2.02048 1.67268 1.50142 2.31294 2.18797 2.30683 2.32448 2.36778 2.44794 2.57259 2.7666 3.02922 3.34345 3.72056 4.18223 4.73065 5.43938 6.33896 7.3742 8.49032 9.72042 11.0004 11.9819 12.5535 12.1335 10.5715 8.44035 6.41231 4.6247 3.24298 2.30868 1.8402 1.59283 1.98168 1.88834 1.96783 1.97284 2.00329 2.06224 2.14445 2.26357 2.40758 2.58654 2.81816 3.12252 3.5173 3.99968 4.58183 5.28102 6.10445 7.02135 8.05482 9.12833 10.0005 10.5718 10.2009 8.97657 7.18681 5.41926 3.88982 2.7107 2.06068 1.73578 1.7877 1.72538 1.76947 1.76964 1.79794 1.84294 1.91244 1.9995 2.078 2.16136 2.26615 2.41346 2.61903 2.92932 3.32609 3.79365 4.34164 4.99334 5.77577 6.67368 7.63249 8.46033 8.97466 8.68969 7.66119 6.14765 4.63318 3.30186 2.36848 1.94303 1.70411 1.65593 1.6819 1.67934 1.70536 1.74481 1.80142 1.86176 1.90304 1.93326 1.94749 1.98551 2.07619 2.21464 2.42472 2.72166 3.09588 3.53944 4.08751 4.75263 5.54809 6.40966 7.20272 7.64616 7.45045 6.5723 5.30815 4.0171 2.85388 2.18233 1.63814 1.60237 1.6144 1.61271 1.64021 1.68039 1.73846 1.78979 1.80974 1.80134 1.77617 1.76515 1.76883 1.80369 1.89047 2.03049 2.24352 2.51996 2.89079 3.34647 3.91934 4.62416 5.41638 6.15661 6.54643 6.42824 5.69956 4.60044 3.45457 2.43868 1.58877 1.56234 1.56434 1.5639 1.59204 1.632 1.68929 1.73305 1.74301 1.72481 1.68273 1.64114 1.61987 1.61956 1.6327 1.67599 1.75944 1.89623 2.09996 2.38266 2.75059 3.24374 3.88914 4.63273 5.31123 5.6722 5.58838 4.88625 3.93979 2.6741 1.55522 1.53422 1.53014 1.53099 1.55938 1.5975 1.65279 1.69051 1.6943 1.66962 1.6223 1.57806 1.54164 1.51481 1.50752 1.51984 1.54676 1.59981 1.68735 1.82754 2.02124 2.30936 2.71329 3.30377 4.01559 4.59643 4.86112 4.62316 3.89617 2.78602 1.53737 1.51953 1.51108 1.51186 1.54021 1.57763 1.63032 1.66383 1.6653 1.63863 1.59008 1.54372 1.50717 1.47922 1.45949 1.44881 1.44997 1.46564 1.49994 1.56343 1.67267 1.84005 2.06101 2.37057 2.85387 3.45717 3.9404 3.89319 3.21146 2.52778 1.52839 1.50368 1.50039 1.49819 1.52542 1.56215 1.61452 1.64739 1.64978 1.62481 1.57739 1.52984 1.49154 1.46363 1.44349 1.42945 1.42025 1.41691 1.42337 1.44656 1.50142 1.59267 1.73603 1.944 2.18292 2.43994 2.67428 2.7856 2.529 2.08521
				</DataArray>
				<DataArray Name="F1" type="Float32" format="ascii">
 1 1 1 1 1 1 1 1 1 1 1 1 1 1 1 1 1 1 1 1 1 1 1 1 1 1 1 1 1 1 1 1 1 1 1 1 1 1 1 1 1 1 1 1 1 1 1 1 1 1 1 1 1 1 1 1 1 1 1 1 1 1 1 1 1 1 1 1 1 1 1 1 1 1 1 1 1 1 1 1 1 1 1 1 1 1 1 1 1 1 1 1 1 1 1 1 1 1 1 1 1 1 1 1 1 1 1 1 1 1 1 1 1 1 1 1 1 1 1 1 1 1 1 1 1 1 1 1 1 1 1 1 1 1 1 1 1 1 1 1 1 1 1 1 1 1 1 1 1 1 1 1 1 1 1 1 1 1 1 1 1 1 1 1 1 1 1 1 1 1 1 1 1 1 1 1 1 1 1 1 1 1 1 1 1 1 1 1 1 1 1 1 1 1 1 1 1 1 1 1 1 1 1 1 1 1 1 1 1 1 1 1 1 1 1 1 1 1 1 1 1 1 1 1 1 1 1 1 1 1 1 1 1 1 1 1 1 1 1 1 1 1 1 1 1 1 1 1 1 1 1 1 1 1 1 1 1 1 1 1 1 1 1 1 1 1 1 1 1 1 1 1 1 1 1 1 1 1 1 1 1 1 1 1 1 1 1 1 1 1 1 1 1 1 1 1 1 1 1 1 1 1 1 1 1 1 1 1 1 1 1 1 1 1 1 1 1 1 1 1 1 1 1 1 1 1 1 1 1 1 1 1 1 1 1 1 1 1 1 1 1 1 1 1 1 1 1 1 1 1 1 1 1 1 1 1 1 1 1 1 1 1 1 1 1 1 1 1 1 1 1 1 1 1 1 1 1 1 1 1 1 1 1 1 1 1 1 1 1 1 1 1 1 1 1 1 1 1 1 1 1 1 1 1 1 1 1 1 1 1 1 1 1 1 1 1 1 1 1 1 1 1 1 1 1 1 1 1 1 1 1 1 1 1 1 1 1 1 1 1 1 1 1 1 1 1 1 1 1 1 1 1 1 1 1 1 1 1 1 1 1 1 1 1 1 1 1 1 1 1 1 1 1 1 1 1 1 1 1 1 1 1 1 1 1 1 1 1 1 1 1 1 1 1 1 1 1 1 1 1 1 1 1 1 1 1 1 1 1 1 1 1 1 1 1 1 1 1 1 1 1 1 1 1 1 1 1 1 1 1 1 1 1 1 1 1 1 1 1 1 1 1 1 1 1 1 1 1 1 1 1 1 1 1 1 1 1 1 1 1 1 1 1 1 1 1 1 1 1 1 1 1 1 1 1 1 1 1 1 1 1 1 1 1 1 1 1 1 1 1 1 1 1 1 1 1 1 1 1 1 1 1 1 1 1 1 1 1 1 1 1 1 1 1 1 1 1 1 1 1 1 1 1 1 1 1 1 1 1 1 1 1 1 1 1 1 1 1 1 1 1 1 1 1 1 1 1 1 1 1 1 1 1 1 1 1 1 1 1 1 1 1 1 1 1 1 1 1 1 1 1 1 1 1 1 1 1 1 1 1 1 1 1 1 1 1 1 1 1 1 1 1 1 1 1 1 1 1 1 1 1 1 1 1 1 1 1 1 1 1 1 1 1 1 1 1 1 1 1 1 1 1 1 1 1 1 1 1 1 1 1 1 1 1 1 1 1 1 1 1 1 1 1 1 1 1 1 1 1 1 1 1 1 1 1 1 1 1 1 1 1 1 1 1 1 1 1 1 1 1 1 1 1 1 1 1 1 1 1 1 1 1 1 1 1 1 1 1 1 1 1 1 1 1 1 1 1 1 1 1 1 1 1 1 1 1 1 1 1 1 1 1 1 1 1 1 1 1 1 1 1 1 1 1 1 1 1 1 1 1 1 1 1 1 1 1 1 1 1 1 1 1 1 1 1 1 1 1 1 1 1 1 1 1 1 1 1 1 1 1 1 1 1 1 1 1 1 1 1 1 1 1 1 1 1 1 1 1 1 1 1 1 1 1 1 1 1 1 1 1 1 1 1 1 1 1 1 1 1 1
				</DataArray>
				<DataArray Name="F2" type="Float32" format="ascii">
 0 0 0 0 0 0 0 0 0 0 0 0 0 0 0 0 0 0 0 0 0 0 0 0 0 0 0 0 0 0 0 0 0 0 0 0 0 0 0 0 0 0 0 0 0 0 0 0 0 0 0 0 0 0 0 0 0 0 0 0 0 0 0 0 0 0 0 0 0 0 0 0 0 0 0 0 0 0 0 0 0 0 0 0 0 0 0 0 0 0 0 0 0 0 0 0 0 0 0 0 0 0 0 0 0 0 0 0 0 0 0 0 0 0 0 0 0 0 0 0 0 0 0 0 0 0 0 0 0 0 0 0 0 0 0 0 0 0 0 0 0 0 0 0 0 0 0 0 0 0 0 0 0 0 0 0 0 0 0 0 0 0 0 0 0 0 0 0 0 0 0 0 0 0 0 0 0 0 0 0 0 0 0 0 0 0 0 0 0 0 0 0 0 0 0 0 0 0 0 0 0 0 0 0 0 0 0 0 0 0 0 0 0 0 0 0 0 0 0 0 0 0 0 0 0 0 0 0 0 0 0 0 0 0 0 0 0 0 0 0 0 0 0 0 0 0 0 0 0 0 0 0 0 0 0 0 0 0 0 0 0 0 0 0 0 0 0 0 0 0 0 0 0 0 0 0 0 0 0 0 0 0 0 0 0 0 0 0 0 0 0 0 0 0 0 0 0 0 0 0 0 0 0 0 0 0 0 0 0 0 0 0 0 0 0 0 0 0 0 0 0 0 0 0 0 0 0 0 0 0 0 0 0 0 0 0 0 0 0 0 0 0 0 0 0 0 0 0 0 0 0 0 0 0 0 0 0 0 0 0 0 0 0 0 0 0 0 0 0 0 0 0 0 0 0 0 0 0 0 0 0 0 0 0 0 0 0 0 0 0 0 0 0 0 0 0 0 0 0 0 0 0 0 0 0 0 0 0 0 0 0 0 0 0 0 0 0 0 0 0 0 0 0 0 0 0 0 0 0 0 0 0 0 0 0 0 0 0 0 0 0 0 0 0 0 0 0 0 0 0 0 0 0 0 0 0 0 0 0 0 0 0 0 0 0 0 0 0 0 0 0 0 0 0 0 0 0 0 0 0 0 0 0 0 0 0 0 0 0 0 0 0 0 0 0 0 0 0 0 0 0 0 0 0 0 0 0 0 0 0 0 0 0 0 0 0 0 0 0 0 0 0 0 0 0 0 0 0 0 0 0 0 0 0 0 0 0 0 0 0 0 0 0 0 0 0 0 0 0 0 0 0 0 0 0 0 0 0 0 0 0 0 0 0 0 0 0 0 0 0 0 0 0 0 0 0 0 0 0 0 0 0 0 0 0 0 0 0 0 0 0 0 0 0 0 0 0 0 0 0 0 0 0 0 0 0 0 0 0 0 0 0 0 0 0 0 0 0 0 0 0 0 0 0 0 0 0 0 0 0 0 0 0 0 0 0 0 0 0 0 0 0 0 0 0 0 0 0 0 0 0 0 0 0 0 0 0 0 0 0 0 0 0 0 0 0 0 0 0 0 0 0 0 0 0 0 0 0 0 0 0 0 0 0 0 0 0 0 0 0 0 0 0 0 0 0 0 0 0 0 0 0 0 0 0 0 0 0 0 0 0 0 0 0 0 0 0 0 0 0 0 0 0 0 0 0 0 0 0 0 0 0 0 0 0 0 0 0 0 0 0 0 0 0 0 0 0 0 0 0 0 0 0 0 0 0 0 0 0 0 0 0 0 0 0 0 0 0 0 0 0 0 0 0 0 0 0 0 0 0 0 0 0 0 0 0 0 0 0 0 0 0 0 0 0 0 0 0 0 0 0 0 0 0 0 0 0 0 0 0 0 0 0 0 0 0 0 0 0 0 0 0 0 0 0 0 0 0 0 0 0 0 0 0 0 0 0 0 0 0 0 0 0 0 0 0 0 0 0 0 0 0 0 0 0 0 0 0 0 0 0 0 0 0 0 0 0 0 0 0 0 0 0 0 0 0 0 0 0 0 0 0 0 0 0 0 0 0 0 0 0 0 0 0 0 0 0 0 0 0
				</DataArray>
				<DataArray Name="F3" type="Float32" format="ascii">