<?xml version="1.0"?>
<VTKFile type="PolyData">
	<PolyData>
		<Piece NumberOfPoints="961" NumberOfPolys="900">
			<Points>
				<DataArray type="Float32" NumberOfComponents="3" format="ascii">
 0 0 0 0.04 0 0 0.08 0 0 0.12 0 0 0.16 0 0 0.2 0 0 0.24 0 0 0.28 0 0 0.32 0 0 0.36 0 0 0.4 0 0 0.44 0 0 0.48 0 0 0.52 0 0 0.56 0 0 0.6 0 0 0.64 0 0 0.68 0 0 0.72 0 0 0.76 0 0 0.8 0 0 0.84 0 0 0.88 0 0 0.92 0 0 0.96 0 0 1 0 0 1.04 0 0 1.08 0 0 1.12 0 0 1.16 0 0 1.2 0 0 0 0.04 0 0.04 0.04 0 0.08 0.04 0 0.12 0.04 0 0.16 0.04 0 0.2 0.04 0 0.24 0.04 0 0.28 0.04 0 0.32 0.04 0 0.36 0.04 0 0.4 0.04 0 0.44 0.04 0 0.48 0.04 0 0.52 0.04 0 0.56 0.04 0 0.6 0.04 0 0.64 0.04 0 0.68 0.04 0 0.72 0.04 0 0.76 0.04 0 0.8 0.04 0 0.84 0.04 0 0.88 0.04 0 0.92 0.04 0 0.96 0.04 0 1 0.04 0 1.04 0.04 0 1.08 0.04 0 1.12 0.04 0 1.16 0.04 0 1.2 0.04 0 0 0.08 0 0.04 0.08 0 0.08 0.08 0 0.12 0.08 0 0.16 0.08 0 0.2 0.08 0 0.24 0.08 0 0.28 0.08 0 0.32 0.08 0 0.36 0.08 0 0.4 0.08 0 0.44 0.08 0 0.48 0.08 0 0.52 0.08 0 0.56 0.08 0 0.6 0.08 0 0.64 0.08 0 0.68 0.08 0 0.72 0.08 0 0.76 0.08 0 0.8 0.08 0 0.84 0.08 0 0.88 0.08 0 0.92 0.08 0 0.96 0.08 0 1 0.08 0 1.04 0.08 0 1.08 0.08 0 1.12 0.08 0 1.16 0.08 0 1.2 0.08 0 0 0.12 0 0.04 0.12 0 0.08 0.12 0 0.12 0.12 0 0.16 0.12 0 0.2 0.12 0 0.24 0.12 0 0.28 0.12 0 0.32 0.12 0 0.36 0.12 0 0.4 0.12 0 0.44 0.12 0 0.48 0.12 0 0.52 0.12 0 0.56 0.12 0 0.6 0.12 0 0.64 0.12 0 0.68 0.12 0 0.72 0.12 0 0.76 0.12 0 0.8 0.12 0 0.84 0.12 0 0.88 0.12 0 0.92 0.12 0 0.96 0.12 0 1 0.12 0 1.04 0.12 0 1.08 0.12 0 1.12 0.12 0 1.16 0.12 0 1.2 0.12 0 0 0.16 0 0.04 0.16 0 0.08 0.16 0 0.12 0.16 0 0.16 0.16 0 0.2 0.16 0 0.24 0.16 0 0.28 0.16 0 0.32 0.16 0 0.36 0.16 0 0.4 0.16 0 0.44 0.16 0 0.48 0.16 0 0.52 0.16 0 0.56 0.16 0 0.6 0.16 0 0.64 0.16 0 0.68 0.16 0 0.72 0.16 0 0.76 0.16 0 0.8 0.16 0 0.84 0.16 0 0.88 0.16 0 0.92 0.16 0 0.96 0.16 0 1 0.16 0 1.04 0.16 0 1.08 0.16 0 1.12 0.16 0 1.16 0.16 0 1.2 0.16 0 0 0.2 0 0.04 0.2 0 0.08 0.2 0 0.12 0.2 0 0.16 0.2 0 0.2 0.2 0 0.24 0.2 0 0.28 0.2 0 0.32 0.2 0 0.36 0.2 0 0.4 0.2 0 0.44 0.2 0 0.48 0.2 0 0.52 0.2 0 0.56 0.2 0 0.6 0.2 0 0.64 0.2 0 0.68 0.2 0 0.72 0.2 0 0.76 0.2 0 0.8 0.2 0 0.84 0.2 0 0.88 0.2 0 0.92 0.2 0 0.96 0.2 0 1 0.2 0 1.04 0.2 0 1.08 0.2 0 1.12 0.2 0 1.16 0.2 0 1.2 0.2 0 0 0.24 0 0.04 0.24 0 0.08 0.24 0 0.12 0.24 0 0.16 0.24 0 0.2 0.24 0 0.24 0.24 0 0.28 0.24 0 0.32 0.24 0 0.36 0.24 0 0.4 0.24 0 0.44 0.24 0 0.48 0.24 0 0.52 0.24 0 0.56 0.24 0 0.6 0.24 0 0.64 0.24 0 0.68 0.24 0 0.72 0.24 0 0.76 0.24 0 0.8 0.24 0 0.84 0.24 0 0.88 0.24 0 0.92 0.24 0 0.96 0.24 0 1 0.24 0 1.04 0.24 0 1.08 0.24 0 1.12 0.24 0 1.16 0.24 0 1.2 0.24 0 0 0.28 0 0.04 0.28 0 0.08 0.28 0 0.12 0.28 0 0.16 0.28 0 0.2 0.28 0 0.24 0.28 0 0.28 0.28 0 0.32 0.28 0 0.36 0.28 0 0.4 0.28 0 0.44 0.28 0 0.48 0.28 0 0.52 0.28 0 0.56 0.28 0 0.6 0.28 0 0.64 0.28 0 0.68 0.28 0 0.72 0.28 0 0.76 0.28 0 0.8 0.28 0 0.84 0.28 0 0.88 0.28 0 0.92 0.28 0 0.96 0.28 0 1 0.28 0 1.04 0.28 0 1.08 0.28 0 1.12 0.28 0 1.16 0.28 0 1.2 0.28 0 0 0.32 0 0.04 0.32 0 0.08 0.32 0 0.12 0.32 0 0.16 0.32 0 0.2 0.32 0 0.24 0.32 0 0.28 0.32 0 0.32 0.32 0 0.36 0.32 0 0.4 0.32 0 0.44 0.32 0 0.48 0.32 0 0.52 0.32 0 0.56 0.32 0 0.6 0.32 0 0.64 0.32 0 0.68 0.32 0 0.72 0.32 0 0.76 0.32 0 0.8 0.32 0 0.84 0.32 0 0.88 0.32 0 0.92 0.32 0 0.96 0.32 0 1 0.32 0 1.04 0.32 0 1.08 0.32 0 1.12 0.32 0 1.16 0.32 0 1.2 0.32 0 0 0.36 0 0.04 0.36 0 0.08 0.36 0 0.12 0.36 0 0.16 0.36 0 0.2 0.36 0 0.24 0.36 0 0.28 0.36 0 0.32 0.36 0 0.36 0.36 0 0.4 0.36 0 0.44 0.36 0 0.48 0.36 0 0.52 0.36 0 0.56 0.36 0 0.6 0.36 0 0.64 0.36 0 0.68 0.36 0 0.72 0.36 0 0.76 0.36 0 0.8 0.36 0 0.84 0.36 0 0.88 0.36 0 0.92 0.36 0 0.96 0.36 0 1 0.36 0 1.04 0.36 0 1.08 0.36 0 1.12 0.36 0 1.16 0.36 0 1.2 0.36 0 0 0.4 0 0.04 0.4 0 0.08 0.4 0 0.12 0.4 0 0.16 0.4 0 0.2 0.4 0 0.24 0.4 0 0.28 0.4 0 0.32 0.4 0 0.36 0.4 0 0.4 0.4 0 0.44 0.4 0 0.48 0.4 0 0.52 0.4 0 0.56 0.4 0 0.6 0.4 0 0.64 0.4 0 0.68 0.4 0 0.72 0.4 0 0.76 0.4 0 0.8 0.4 0 0.84 0.4 0 0.88 0.4 0 0.92 0.4 0 0.96 0.4 0 1 0.4 0 1.04 0.4 0 1.08 0.4 0 1.12 0.4 0 1.16 0.4 0 1.2 0.4 0 0 0.44 0 0.04 0.44 0 0.08 0.44 0 0.12 0.44 0 0.16 0.44 0 0.2 0.44 0 0.24 0.44 0 0.28 0.44 0 0.32 0.44 0 0.36 0.44 0 0.4 0.44 0 0.44 0.44 0 0.48 0.44 0 0.52 0.44 0 0.56 0.44 0 0.6 0.44 0 0.64 0.44 0 0.68 0.44 0 0.72 0.44 0 0.76 0.44 0 0.8 0.44 0 0.84 0.44 0 0.88 0.44 0 0.92 0.44 0 0.96 0.44 0 1 0.44 0 1.04 0.44 0 1.08 0.44 0 1.12 0.44 0 1.16 0.44 0 1.2 0.44 0 0 0.48 0 0.04 0.48 0 0.08 0.48 0 0.12 0.48 0 0.16 0.48 0 0.2 0.48 0 0.24 0.48 0 0.28 0.48 0 0.32 0.48 0 0.36 0.48 0 0.4 0.48 0 0.44 0.48 0 0.48 0.48 0 0.52 0.48 0 0.56 0.48 0 0.6 0.48 0 0.64 0.48 0 0.68 0.48 0 0.72 0.48 0 0.76 0.48 0 0.8 0.48 0 0.84 0.48 0 0.88 0.48 0 0.92 0.48 0 0.96 0.48 0 1 0.48 0 1.04 0.48 0 1.08 0.48 0 1.12 0.48 0 1.16 0.48 0 1.2 0.48 0 0 0.52 0 0.04 0.52 0 0.08 0.52 0 0.12 0.52 0 0.16 0.52 0 0.2 0.52 0 0.24 0.52 0 0.28 0.52 0 0.32 0.52 0 0.36 0.52 0 0.4 0.52 0 0.44 0.52 0 0.48 0.52 0 0.52 0.52 0 0.56 0.52 0 0.6 0.52 0 0.64 0.52 0 0.68 0.52 0 0.72 0.52 0 0.76 0.52 0 0.8 0.52 0 0.84 0.52 0 0.88 0.52 0 0.92 0.52 0 0.96 0.52 0 1 0.52 0 1.04 0.52 0 1.08 0.52 0 1.12 0.52 0 1.16 0.52 0 1.2 0.52 0 0 0.56 0 0.04 0.56 0 0.08 0.56 0 0.12 0.56 0 0.16 0.56 0 0.2 0.56 0 0.24 0.56 0 0.28 0.56 0 0.32 0.56 0 0.36 0.56 0 0.4 0.56 0 0.44 0.56 0 0.48 0.56 0 0.52 0.56 0 0.56 0.56 0 0.6 0.56 0 0.64 0.56 0 0.68 0.56 0 0.72 0.56 0 0.76 0.56 0 0.8 0.56 0 0.84 0.56 0 0.88 0.56 0 0.92 0.56 0 0.96 0.56 0 1 0.56 0 1.04 0.56 0 1.08 0.56 0 1.12 0.56 0 1.16 0.56 0 1.2 0.56 0 0 0.6 0 0.04 0.6 0 0.08 0.6 0 0.12 0.6 0 0.16 0.6 0 0.2 0.6 0 0.24 0.6 0 0.28 0.6 0 0.32 0.6 0 0.36 0.6 0 0.4 0.6 0 0.44 0.6 0 0.48 0.6 0 0.52 0.6 0 0.56 0.6 0 0.6 0.6 0 0.64 0.6 0 0.68 0.6 0 0.72 0.6 0 0.76 0.6 0 0.8 0.6 0 0.84 0.6 0 0.88 0.6 0 0.92 0.6 0 0.96 0.6 0 1 0.6 0 1.04 0.6 0 1.08 0.6 0 1.12 0.6 0 1.16 0.6 0 1.2 0.6 0 0 0.64 0 0.04 0.64 0 0.08 0.64 0 0.12 0.64 0 0.16 0.64 0 0.2 0.64 0 0.24 0.64 0 0.28 0.64 0 0.32 0.64 0 0.36 0.64 0 0.4 0.64 0 0.44 0.64 0 0.48 0.64 0 0.52 0.64 0 0.56 0.64 0 0.6 0.64 0 0.64 0.64 0 0.68 0.64 0 0.72 0.64 0 0.76 0.64 0 0.8 0.64 0 0.84 0.64 0 0.88 0.64 0 0.92 0.64 0 0.96 0.64 0 1 0.64 0 1.04 0.64 0 1.08 0.64 0 1.12 0.64 0 1.16 0.64 0 1.2 0.64 0 0 0.68 0 0.04 0.68 0 0.08 0.68 0 0.12 0.68 0 0.16 0.68 0 0.2 0.68 0 0.24 0.68 0 0.28 0.68 0 0.32 0.68 0 0.36 0.68 0 0.4 0.68 0 0.44 0.68 0 0.48 0.68 0 0.52 0.68 0 0.56 0.68 0 0.6 0.68 0 0.64 0.68 0 0.68 0.68 0 0.72 0.68 0 0.76 0.68 0 0.8 0.68 0 0.84 0.68 0 0.88 0.68 0 0.92 0.68 0 0.96 0.68 0 1 0.68 0 1.04 0.68 0 1.08 0.68 0 1.12 0.68 0 1.16 0.68 0 1.2 0.68 0 0 0.72 0 0.04 0.72 0 0.08 0.72 0 0.12 0.72 0 0.16 0.72 0 0.2 0.72 0 0.24 0.72 0 0.28 0.72 0 0.32 0.72 0 0.36 0.72 0 0.4 0.72 0 0.44 0.72 0 0.48 0.72 0 0.52 0.72 0 0.56 0.72 0 0.6 0.72 0 0.64 0.72 0 0.68 0.72 0 0.72 0.72 0 0.76 0.72 0 0.8 0.72 0 0.84 0.72 0 0.88 0.72 0 0.92 0.72 0 0.96 0.72 0 1 0.72 0 1.04 0.72 0 1.08 0.72 0 1.12 0.72 0 1.16 0.72 0 1.2 0.72 0 0 0.76 0 0.04 0.76 0 0.08 0.76 0 0.12 0.76 0 0.16 0.76 0 0.2 0.76 0 0.24 0.76 0 0.28 0.76 0 0.32 0.76 0 0.36 0.76 0 0.4 0.76 0 0.44 0.76 0 0.48 0.76 0 0.52 0.76 0 0.56 0.76 0 0.6 0.76 0 0.64 0.76 0 0.68 0.76 0 0.72 0.76 0 0.76 0.76 0 0.8 0.76 0 0.84 0.76 0 0.88 0.76 0 0.92 0.76 0 0.96 0.76 0 1 0.76 0 1.04 0.76 0 1.08 0.76 0 1.12 0.76 0 1.16 0.76 0 1.2 0.76 0 0 0.8 0 0.04 0.8 0 0.08 0.8 0 0.12 0.8 0 0.16 0.8 0 0.2 0.8 0 0.24 0.8 0 0.28 0.8 0 0.32 0.8 0 0.36 0.8 0 0.4 0.8 0 0.44 0.8 0 0.48 0.8 0 0.52 0.8 0 0.56 0.8 0 0.6 0.8 0 0.64 0.8 0 0.68 0.8 0 0.72 0.8 0 0.76 0.8 0 0.8 0.8 0 0.84 0.8 0 0.88 0.8 0 0.92 0.8 0 0.96 0.8 0 1 0.8 0 1.04 0.8 0 1.08 0.8 0 1.12 0.8 0 1.16 0.8 0 1.2 0.8 0 0 0.84 0 0.04 0.84 0 0.08 0.84 0 0.12 0.84 0 0.16 0.84 0 0.2 0.84 0 0.24 0.84 0 0.28 0.84 0 0.32 0.84 0 0.36 0.84 0 0.4 0.84 0 0.44 0.84 0 0.48 0.84 0 0.52 0.84 0 0.56 0.84 0 0.6 0.84 0 0.64 0.84 0 0.68 0.84 0 0.72 0.84 0 0.76 0.84 0 0.8 0.84 0 0.84 0.84 0 0.88 0.84 0 0.92 0.84 0 0.96 0.84 0 1 0.84 0 1.04 0.84 0 1.08 0.84 0 1.12 0.84 0 1.16 0.84 0 1.2 0.84 0 0 0.88 0 0.04 0.88 0 0.08 0.88 0 0.12 0.88 0 0.16 0.88 0 0.2 0.88 0 0.24 0.88 0 0.28 0.88 0 0.32 0.88 0 0.36 0.88 0 0.4 0.88 0 0.44 0.88 0 0.48 0.88 0 0.52 0.88 0 0.56 0.88 0 0.6 0.88 0 0.64 0.88 0 0.68 0.88 0 0.72 0.88 0 0.76 0.88 0 0.8 0.88 0 0.84 0.88 0 0.88 0.88 0 0.92 0.88 0 0.96 0.88 0 1 0.88 0 1.04 0.88 0 1.08 0.88 0 1.12 0.88 0 1.16 0.88 0 1.2 0.88 0 0 0.92 0 0.04 0.92 0 0.08 0.92 0 0.12 0.92 0 0.16 0.92 0 0.2 0.92 0 0.24 0.92 0 0.28 0.92 0 0.32 0.92 0 0.36 0.92 0 0.4 0.92 0 0.44 0.92 0 0.48 0.92 0 0.52 0.92 0 0.56 0.92 0 0.6 0.92 0 0.64 0.92 0 0.68 0.92 0 0.72 0.92 0 0.76 0.92 0 0.8 0.92 0 0.84 0.92 0 0.88 0.92 0 0.92 0.92 0 0.96 0.92 0 1 0.92 0 1.04 0.92 0 1.08 0.92 0 1.12 0.92 0 1.16 0.92 0 1.2 0.92 0 0 0.96 0 0.04 0.96 0 0.08 0.96 0 0.12 0.96 0 0.16 0.96 0 0.2 0.96 0 0.24 0.96 0 0.28 0.96 0 0.32 0.96 0 0.36 0.96 0 0.4 0.96 0 0.44 0.96 0 0.48 0.96 0 0.52 0.96 0 0.56 0.96 0 0.6 0.96 0 0.64 0.96 0 0.68 0.96 0 0.72 0.96 0 0.76 0.96 0 0.8 0.96 0 0.84 0.96 0 0.88 0.96 0 0.92 0.96 0 0.96 0.96 0 1 0.96 0 1.04 0.96 0 1.08 0.96 0 1.12 0.96 0 1.16 0.96 0 1.2 0.96 0 0 1 0 0.04 1 0 0.08 1 0 0.12 1 0 0.16 1 0 0.2 1 0 0.24 1 0 0.28 1 0 0.32 1 0 0.36 1 0 0.4 1 0 0.44 1 0 0.48 1 0 0.52 1 0 0.56 1 0 0.6 1 0 0.64 1 0 0.68 1 0 0.72 1 0 0.76 1 0 0.8 1 0 0.84 1 0 0.88 1 0 0.92 1 0 0.96 1 0 1 1 0 1.04 1 0 1.08 1 0 1.12 1 0 1.16 1 0 1.2 1 0 0 1.04 0 0.04 1.04 0 0.08 1.04 0 0.12 1.04 0 0.16 1.04 0 0.2 1.04 0 0.24 1.04 0 0.28 1.04 0 0.32 1.04 0 0.36 1.04 0 0.4 1.04 0 0.44 1.04 0 0.48 1.04 0 0.52 1.04 0 0.56 1.04 0 0.6 1.04 0 0.64 1.04 0 0.68 1.04 0 0.72 1.04 0 0.76 1.04 0 0.8 1.04 0 0.84 1.04 0 0.88 1.04 0 0.92 1.04 0 0.96 1.04 0 1 1.04 0 1.04 1.04 0 1.08 1.04 0 1.12 1.04 0 1.16 1.04 0 1.2 1.04 0 0 1.08 0 0.04 1.08 0 0.08 1.08 0 0.12 1.08 0 0.16 1.08 0 0.2 1.08 0 0.24 1.08 0 0.28 1.08 0 0.32 1.08 0 0.36 1.08 0 0.4 1.08 0 0.44 1.08 0 0.48 1.08 0 0.52 1.08 0 0.56 1.08 0 0.6 1.08 0 0.64 1.08 0 0.68 1.08 0 0.72 1.08 0 0.76 1.08 0 0.8 1.08 0 0.84 1.08 0 0.88 1.08 0 0.92 1.08 0 0.96 1.08 0 1 1.08 0 1.04 1.08 0 1.08 1.08 0 1.12 1.08 0 1.16 1.08 0 1.2 1.08 0 0 1.12 0 
[...]
			<CellData Scalars="Density">
				<DataArray Name="Density" type="Float32" format="ascii">
 0.00618104 0.0063552 0.00683418 0.0077495 0.00918136 0.0113038 0.0144215 0.0189153 0.0251386 0.0334271 0.0442175 0.0580636 0.0760275 0.100421 0.136316 0.193449 0.287523 0.435457 0.650151 0.933138 1.22588 1.39323 1.31793 0.929875 0.795442 0.769062 0.787771 0.812183 0.828304 0.834412 0.00635382 0.00644368 0.00677863 0.00747349 0.00851908 0.0101101 0.0126111 0.0164245 0.021959 0.0298136 0.0406446 0.055159 0.0739322 0.0978874 0.130841 0.181539 0.266022 0.408413 0.635422 0.959301 1.29398 1.46741 1.36583 0.961131 0.824669 0.79521 0.810522 0.834467 0.850751 0.851746 0.00682964 0.00677678 0.00691764 0.00743161 0.00831096 0.00963947 0.0118064 0.015399 0.0212777 0.0305533 0.0451728 0.0669895 0.0938663 0.121859 0.151713 0.190219 0.252846 0.368393 0.567989 0.869176 1.21836 1.42356 1.35185 0.963827 0.835749 0.810669 0.827925 0.854797 0.87332 0.876105 0.0077382 0.00746812 0.00742982 0.00796134 0.00888923 0.0103922 0.0132328 0.0185553 0.0284869 0.0451487 0.0699914 0.102291 0.139427 0.180947 0.226291 0.275176 0.336339 0.437955 0.623778 0.9123 1.23703 1.43733 1.37553 0.992966 0.861042 0.83291 0.844947 0.8727 0.893006 0.898103 0.00915823 0.00850606 0.0083055 0.008883 0.00983798 0.0112523 0.0148333 0.0227797 0.0370482 0.0582882 0.0851032 0.117819 0.156976 0.206942 0.271041 0.3446 0.427753 0.539277 0.715716 0.979988 1.29042 1.47938 1.39836 1.01665 0.878961 0.845125 0.849055 0.877129 0.897967 0.905762 0.0112631 0.0100846 0.00962547 0.0103693 0.0112188 0.0116643 0.0140882 0.0215395 0.0357158 0.0568451 0.0820514 0.109278 0.146514 0.204447 0.280149 0.372524 0.483795 0.61593 0.794997 1.04199 1.31761 1.48354 1.40408 1.05126 0.900033 0.854763 0.848638 0.875086 0.896422 0.906614 0.0143606 0.0125715 0.0117787 0.0131849 0.0147545 0.0140512 0.0134275 0.017014 0.0274708 0.0428139 0.059453 0.0785691 0.1098 0.167213 0.259253 0.374337 0.503988 0.655185 0.836268 1.06089 1.31598 1.48326 1.42703 1.11637 0.927689 0.862031 0.845228 0.866319 0.887873 0.897382 0.0188315 0.0163652 0.0153521 0.018484 0.0226676 0.0214786 0.0170678 0.0158403 0.0185493 0.0265581 0.0387 0.0547838 0.080388 0.128638 0.209195 0.328051 0.480292 0.647913 0.8322 1.04109 1.27936 1.45667 1.443 1.20258 0.977501 0.887667 0.857986 0.868428 0.889885 0.898759 0.0250309 0.0218727 0.0211973 0.0283715 0.0369032 0.0356245 0.0275033 0.0185551 0.0180876 0.020414 0.0271852 0.0390915 0.059532 0.0984071 0.166071 0.27097 0.421944 0.604608 0.791303 0.990259 1.20684 1.40472 1.45726 1.31383 1.07404 0.948584 0.896835 0.889865 0.908581 0.915908 0.0333024 0.0296941 0.0304084 0.0449155 0.0580919 0.0567781 0.0429126 0.0265901 0.0203858 0.02079 0.0238682 0.0317504 0.0475522 0.0771935 0.130408 0.21554 0.340518 0.50712 0.698952 0.897895 1.10747 1.31294 1.44694 1.42581 1.22879 1.04927 0.962922 0.935812 0.943771 0.949145 0.0440843 0.0404883 0.0449275 0.0696718 0.0849329 0.0820938 0.0596461 0.0387065 0.0271205 0.0238401 0.0250952 0.0302595 0.0423694 0.0660802 0.106781 0.173152 0.273662 0.411951 0.587592 0.787085 1.00244 1.21544 1.40429 1.49969 1.41008 1.19455 1.06452 1.0086 0.994067 0.995025 0.0579284 0.0549707 0.0666299 0.101967 0.11768 0.109372 0.0785986 0.0547298 0.0390262 0.0317249 0.0302723 0.0334807 0.0434335 0.0630745 0.0955809 0.146054 0.223865 0.335473 0.482011 0.660053 0.86973 1.10286 1.32791 1.50904 1.55254 1.38522 1.20489 1.09911 1.05237 1.04142 0.0759015 0.0737265 0.0934226 0.139079 0.156822 0.146483 0.109729 0.0803457 0.0595636 0.0476385 0.0424768 0.0435279 0.0499282 0.0657426 0.0929574 0.133345 0.19261 0.279982 0.400422 0.553008 0.741055 0.970663 1.2296 1.46622 1.62868 1.58364 1.37231 1.20971 1.12624 1.08987 0.100326 0.0976954 0.121372 0.180538 0.20676 0.204388 0.167226 0.128846 0.0987127 0.077541 0.0663571 0.0632662 0.065871 0.0748387 0.0967754 0.131413 0.179753 0.24734 0.34369 0.47223 0.636592 0.846312 1.10526 1.38942 1.63146 1.72016 1.56634 1.3666 1.2257 1.14877 0.136291 0.130697 0.151246 0.225774 0.270778 0.280028 0.259342 0.209619 0.166668 0.130993 0.107263 0.0958663 0.0932065 0.0970017 0.108501 0.137042 0.179243 0.235523 0.311358 0.417061 0.55961 0.745204 0.985781 1.28938 1.58369 1.79365 1.76853 1.56511 1.36233 1.24374 0.193561 0.181473 0.189845 0.274589 0.344242 0.372379 0.374309 0.328456 0.271842 0.216356 0.173792 0.146543 0.133684 0.131713 0.137206 0.151258 0.18692 0.236387 0.300726 0.386207 0.506297 0.669478 0.887397 1.17528 1.50921 1.80382 1.91717 1.78054 1.57699 1.40654 0.287867 0.266084 0.252663 0.335703 0.427275 0.483524 0.503825 0.4806 0.422856 0.341586 0.274623 0.224582 0.193254 0.180074 0.179423 0.186999 0.203405 0.245486 0.302194 0.375378 0.474013 0.613389 0.805842 1.07514 1.4209 1.76271 2.03281 2.02372 1.86822 1.65944 0.436074 0.408653 0.3684 0.437387 0.538698 0.615602 0.654974 0.647972 0.605147 0.508214 0.413158 0.336588 0.280828 0.247938 0.235623 0.236452 0.245521 0.262844 0.310726 0.375311 0.45868 0.574479 0.741997 0.984975 1.31171 1.68922 2.06309 2.22869 2.20817 2.03673 0.650982 0.635851 0.56809 0.6234 0.715099 0.794831 0.836121 0.832246 0.791819 0.699788 0.58857 0.483261 0.401596 0.34449 0.311836 0.300772 0.302335 0.31076 0.327588 0.38107 0.45533 0.554941 0.697834 0.910176 1.21568 1.60633 2.07092 2.46233 2.67408 2.55618 0.933992 0.959819 0.869346 0.912 0.979464 1.04212 1.06086 1.0413 0.990849 0.898817 0.788163 0.661297 0.554486 0.473327 0.417834 0.38673 0.375514 0.375532 0.380841 0.399555 0.459446 0.552431 0.681254 0.865763 1.14486 1.54096 2.08263 2.68295 3.22752 3.19522 1.22639 1.29417 1.21857 1.23661 1.29011 1.31776 1.31594 1.27961 1.20749 1.1083 1.00351 0.870812 0.742317 0.637777 0.56043 0.507094 0.474499 0.458787 0.455293 0.459243 0.487241 0.561713 0.685124 0.858823 1.11857 1.5131 2.09616 2.83343 3.66142 3.96749 1.39318 1.46714 1.42339 1.43689 1.479 1.48344 1.48311 1.45668 1.40516 1.31363 1.21626 1.10374 0.971782 0.847459 0.746143 0.670295 0.614154 0.57481 0.554798 0.552077 0.561111 0.605323 0.71136 0.882006 1.13093 1.52119 2.09906 2.88345 3.89713 4.76412 1.31733 1.3651 1.35137 1.37491 1.3978 1.40359 1.42651 1.44265 1.45714 1.44705 1.40462 1.32845 1.23026 1.10618 0.986611 0.887976 0.806321 0.742469 0.698107 0.680801 0.684202 0.71011 0.788547 0.945293 1.18854 1.56171 2.1258 2.91124 4.09586 5.41309 0.929232 0.960523 0.963376 0.992412 1.01617 1.05064 1.11555 1.20168 1.31297 1.42515 1.49939 1.50891 1.4663 1.39001 1.28994 1.17576 1.07547 0.985051 0.910193 0.865898 0.858678 0.881496 0.942792 1.08751 1.31253 1.65508 2.18833 2.98679 4.30733 5.79846 0.795308 0.824536 0.835653 0.860912 0.878846 0.899837 0.927405 0.977044 1.07331 1.22777 1.40902 1.55185 1.62852 1.63155 1.58399 1.50972 1.42134 1.31203 1.21579 1.14481 1.11731 1.12995 1.18988 1.30957 1.53477 1.85717 2.35955 3.16421 4.56073 6.02673 0.76902 0.795163 0.810635 0.832879 0.845106 0.854729 0.861951 0.887494 0.948221 1.0487 1.1937 1.38425 1.58291 1.7199 1.79348 1.80356 1.76269 1.68951 1.60663 1.54123 1.51231 1.51555 1.55631 1.65987 1.8594 2.1658 2.66789 3.46101 4.8615 6.22955 0.787789 0.810546 0.827961 0.845016 0.849155 0.84873 0.845269 0.857943 0.896675 0.962596 1.06402 1.20428 1.37169 1.56592 1.76817 1.91706 2.03261 2.06315 2.07225 2.08527 2.10052 2.10568 2.11725 2.17736 2.36619 2.66917 3.14813 3.95781 5.33402 6.50813 0.812203 0.834491 0.854838 0.872769 0.877236 0.875206 0.866431 0.868516 0.889866 0.935653 1.00833 1.09873 1.20935 1.36636 1.56488 1.78045 2.0235 2.22841 2.46115 2.68091 2.82971 2.88356 2.92313 2.98438 3.16445 3.46893 3.96965 4.89707 6.29665 7.11657 0.828332 0.850781 0.873363 0.893083 0.898069 0.896538 0.887983 0.889978 0.908626 0.943713 0.993918 1.05218 1.12605 1.22561 1.36224 1.57693 1.86814 2.2082 2.6742 3.22817 3.66202 3.89827 4.09586 4.3086 4.56544 4.8425 5.34036 6.32999 8.04371 9.04569 0.834451 0.851779 0.87616 0.898192 0.905873 0.906733 0.897496 0.898867 0.915965 0.949103 0.994926 1.04131 1.08979 1.14878 1.24378 1.40668 1.65959 2.03676 2.55593 3.19483 3.96446 4.76255 5.41624 5.79747 6.0355 6.2408 6.49469 7.12862 9.06966 11.6728
				</DataArray>
				<DataArray Name="Energy" type="Float32" format="ascii">
 981.408 954.442 887.537 782.688 660.61 536.556 420.539 320.625 241.267 181.446 137.162 104.438 79.7179 60.2751 44.2998 31.073 20.7916 13.6177 8.99988 6.10148 4.35848 3.34892 2.49456 1.7805 1.53176 1.44954 1.41501 1.40268 1.39417 1.38856 954.644 941.249 894.71 811.521 711.89 599.833 480.875 369.186 276.182 203.459 149.259 109.968 81.9963 61.8323 46.1362 33.1603 22.4468 14.4455 9.17596 5.94288 4.13759 3.17682 2.38813 1.7282 1.50142 1.4277 1.39571 1.38624 1.38138 1.37034 888.122 894.952 876.728 816.025 729.708 629.086 513.529 393.737 284.988 198.481 134.29 90.5297 64.5568 49.6409 39.7377 31.5631 23.6064 16.0806 10.2931 6.54178 4.39345 3.2995 2.43967 1.7479 1.51256 1.43104 1.3934 1.38082 1.37292 1.36557 783.823 812.104 816.209 761.711 682.094 583.562 458.034 326.741 212.789 134.259 86.5486 59.2747 43.4221 33.395 26.6215 21.7755 17.7027 13.441 9.33807 6.2554 4.33274 3.26556 2.42924 1.75363 1.51945 1.43799 1.39775 1.38588 1.37805 1.36892 662.271 712.973 730.194 682.547 616.289 538.673 408.582 265.97 163.487 103.884 70.985 51.3938 38.4763 29.1613 22.1965 17.3826 13.9121 10.9752 8.17878 5.83262 4.21562 3.25743 2.4493 1.7934 1.55638 1.47068 1.42561 1.41375 1.40524 1.39596 538.491 601.35 629.995 584.853 540.274 519.54 429.961 281.104 169.376 106.312 73.5228 55.1679 41.1438 29.4363 21.4583 16.0597 12.291 9.58564 7.383 5.53328 4.16852 3.26801 2.49424 1.86983 1.61545 1.5168 1.46504 1.44991 1.43994 1.42948 422.319 482.386 514.732 459.704 410.751 431.078 450.911 355.502 219.921 140.883 101.324 76.4973 54.7746 35.907 23.1083 15.9615 11.8154 9.04809 7.02862 5.4316 4.19115 3.32831 2.60551 2.00709 1.70467 1.57781 1.51562 1.49284 1.48243 1.47307 322.05 370.527 394.938 328.006 267.295 281.89 354.344 381.631 325.362 226.796 155.417 109.634 74.5974 46.6373 28.6493 18.2069 12.3879 9.12064 7.03948 5.52775 4.31744 3.4311 2.73187 2.16754 1.80223 1.63414 1.55587 1.5182 1.50643 1.49799 242.308 277.273 286.076 213.644 164.137 169.813 219.675 325.2 333.319 294.806 220.964 153.515 100.657 60.8009 35.9785 21.9981 14.0651 9.75027 7.35454 5.75407 4.54991 3.58703 2.86693 2.31275 1.89582 1.67387 1.56573 1.51277 1.49903 1.49464 182.125 204.277 199.423 134.961 104.231 106.448 140.565 226.539 295.218 289.223 251.471 188.742 125.895 77.3878 45.7185 27.5525 17.3425 11.5601 8.2779 6.29374 4.90932 3.83991 3.02461 2.43052 1.99271 1.7057 1.55784 1.49024 1.46853 1.46673 137.576 149.833 135.023 86.9443 71.1303 73.4842 101.002 155.39 221.501 251.773 239.049 197.853 141.072 90.2898 55.6748 34.2283 21.5094 14.1303 9.76972 7.1333 5.39066 4.15727 3.23405 2.55461 2.07717 1.73922 1.54902 1.45958 1.42451 1.42114 104.681 110.344 91.0168 59.4643 51.4537 55.1222 76.4697 109.748 153.771 188.905 197.781 178.626 137.415 94.3838 62.0853 40.3892 26.1832 17.2825 11.8124 8.42665 6.16764 4.59607 3.51613 2.72593 2.17118 1.80209 1.57018 1.44521 1.39148 1.3801 79.8503 82.2241 64.8636 43.5306 38.5149 41.1528 54.8115 74.6361 100.611 125.67 140.717 137.124 119.323 90.3274 63.6066 44.0992 30.2451 20.5742 14.1449 9.99408 7.20561 5.2435 3.87314 2.95093 2.30291 1.8858 1.61737 1.45037 1.37578 1.35055 60.3331 61.9538 49.8403 33.4708 29.1876 29.4456 35.9044 46.5644 60.6102 77.0557 89.9172 94.0986 90.1603 79.0999 60.8562 44.5044 32.2488 23.1144 16.3503 11.6366 8.35913 6.02869 4.36014 3.22869 2.46934 1.97416 1.68302 1.48768 1.37988 1.33455 44.3091 46.1874 39.8614 26.6829 22.2185 21.468 23.1009 28.5905 35.8529 45.504 55.4449 61.8966 63.4413 60.729 54.0042 42.4188 32.0888 24.0997 17.8826 13.0425 9.45628 6.84317 4.92976 3.55962 2.67806 2.09384 1.76681 1.54959 1.40392 1.33909 31.0564 33.172 31.6257 21.823 17.4011 16.0659 15.9633 18.1846 21.927 27.4518 34.0917 40.275 43.9752 44.4099 42.3857 38.1351 30.5017 23.7572 18.3407 13.9403 10.3424 7.58494 5.50448 3.95468 2.91984 2.2508 1.8455 1.61773 1.46287 1.37653 20.7686 22.4414 23.6258 17.7366 13.9283 12.2976 11.819 12.3801 14.0346 17.288 21.4374 26.0869 30.1647 32.1694 32.0634 30.5031 27.7225 22.6088 18.0146 14.1894 10.9477 8.22346 6.05771 4.38076 3.18976 2.43743 1.94463 1.70931 1.54802 1.44287 13.5992 14.4378 16.0814 13.4589 10.9872 9.59033 9.0508 9.11979 9.7414 11.5346 14.0911 17.229 20.5018 23.0756 24.0642 23.7566 22.6133 20.8218 17.2846 14.0135 11.2196 8.75185 6.62088 4.87437 3.55476 2.66248 2.09235 1.79852 1.64659 1.54351 8.9886 9.17045 10.29 9.34501 8.18454 7.3845 7.02952 7.03935 7.34981 8.26808 9.75261 11.7843 14.1042 16.3066 17.8668 18.3166 18.0111 17.284 16.1528 13.646 11.2349 9.09216 7.14849 5.41757 4.00548 2.9774 2.29322 1.90826 1.77691 1.67675 6.09542 5.93961 6.53907 6.2573 5.83396 5.53252 5.43111 5.5267 5.75066 6.28765 7.12381 8.40978 9.97216 11.6047 13.0173 13.9271 14.1739 14.0077 13.6491 12.9027 11.1454 9.25555 7.56962 5.98046 4.55788 3.41917 2.59602 2.11104 1.92607 1.81839 4.35582 4.13634 4.39174 4.33272 4.21518 4.16736 4.19031 4.31606 4.54725 4.90553 5.38533 6.15958 7.19439 8.3447 9.43677 10.3272 10.9357 11.2134 11.235 11.1503 10.6479 9.36287 7.87416 6.49655 5.17942 3.98989 3.05513 2.45796 2.14473 1.96478 3.34748 3.17585 3.29853 3.26487 3.25673 3.26705 3.32736 3.43013 3.58541 3.83739 4.15428 4.59206 5.23711 6.02082 6.83268 7.57423 8.21406 8.745 9.09206 9.26263 9.37036 9.02926 8.07192 6.88433 5.73079 4.61542 3.62403 2.89135 2.3878 2.09412 2.49342 2.38719 2.4388 2.42842 2.44845 2.49324 2.60426 2.7307 2.86562 3.02311 3.23239 3.5141 3.87032 4.35612 4.92475 5.50007 6.05441 6.61597 7.1438 7.56782 7.8919 8.07249 7.76663 7.05466 6.07037 5.07262 4.1049 3.28096 2.57895 2.17386 1.77989 1.72768 1.74747 1.7531 1.79281 1.86899 2.00594 2.16635 2.31159 2.42959 2.55372 2.72507 2.94986 3.22689 3.55765 3.95284 4.3796 4.87318 5.41582 5.97558 6.48707 6.90498 7.04801 6.71435 6.11165 5.28208 4.39875 3.51595 2.67131 2.20402 1.5318 1.50145 1.51258 1.51938 1.55621 1.61513 1.70421 1.80163 1.89511 1.99214 2.07677 2.17077 2.30232 2.46848 2.67714 2.91867 3.18875 3.55348 4.00334 4.55714 5.17536 5.727 6.08741 6.09391 5.71245 5.13035 4.40793 3.55392 2.68048 2.21852 1.44964 1.4278 1.43111 1.438 1.47061 1.51667 1.57761 1.63389 1.67364 1.70554 1.73912 1.80203 1.88551 1.97369 2.09355 2.25059 2.43735 2.66196 2.97639 3.41511 3.99128 4.60914 5.08096 5.28505 5.11892 4.73348 4.16237 3.44846 2.65479 2.23532 1.41518 1.39586 1.39354 1.39782 1.42561 1.46497 1.51551 1.55575 1.56571 1.55794 1.54919 1.57032 1.61739 1.68282 1.76657 1.84518 1.94444 2.09215 2.29339 2.59622 3.05535 3.62543 4.11016 4.41241 4.39264 4.15144 3.77738 3.23763 2.59158 2.25459 1.40284 1.38639 1.38095 1.38595 1.41376 1.44988 1.49281 1.51819 1.51284 1.49044 1.45986 1.44549 1.45055 1.48765 1.54952 1.61753 1.70896 1.79813 1.90788 2.11086 2.4567 2.89322 3.27763 3.52004 3.56031 3.44795 3.22834 2.82253 2.37941 2.21771 1.39433 1.38152 1.37304 1.37811 1.40526 1.43992 1.4824 1.50642 1.49911 1.46877 1.42483 1.39181 1.37604 1.37999 1.40395 1.46275 1.54783 1.64643 1.77674 1.92602 2.14483 2.38834 2.57927 2.66903 2.6746 2.66264 2.59169 2.37455 2.0532 1.92172 1.38873 1.37049 1.36571 1.36901 1.39599 1.42948 1.47305 1.49797 1.49469 1.46694 1.42146 1.38044 1.35087 1.33474 1.33922 1.37652 1.44278 1.5434 1.67664 1.81821 1.96416 2.09407 2.17428 2.20353 2.21808 2.23466 2.25344 2.21914 1.92141 1.76951
				</DataArray>
				<DataArray Name="F1" type="Float32" format="ascii">
 1 1 1 1 1 1 1 1 1 1 1 1 1 1 1 1 1 1 1 1 1 1 1 1 1 1 1 1 1 1 1 1 1 1 1 1 1 1 1 1 1 1 1 1 1 1 1 1 1 1 1 1 1 1 1 1 1 1 1 1 1 1 1 1 1 1 1 1 1 1 1 1 1 1 1 1 1 1 1 1 1 1 1 1 1 1 1 1 1 1 1 1 1 1 1 1 1 1 1 1 1 1 1 1 1 1 1 1 1 1 1 1 1 1 1 1 1 1 1 1 1 1 1 1 1 1 1 1 1 1 1 1 1 1 1 1 1 1 1 1 1 1 1 1 1 1 1 1 1 1 1 1 1 1 1 1 1 1 1 1 1 1 1 1 1 1 1 1 1 1 1 1 1 1 1 1 1 1 1 1 1 1 1 1 1 1 1 1 1 1 1 1 1 1 1 1 1 1 1 1 1 1 1 1 1 1 1 1 1 1 1 1 1 1 1 1 1 1 1 1 1 1 1 1 1 1 1 1 1 1 1 1 1 1 1 1 1 1 1 1 1 1 1 1 1 1 1 1 1 1 1 1 1 1 1 1 1 1 1 1 1 1 1 1 1 1 1 1 1 1 1 1 1 1 1 1 1 1 1 1 1 1 1 1 1 1 1 1 1 1 1 1 1 1 1 1 1 1 1 1 1 1 1 1 1 1 1 1 1 1 1 1 1 1 1 1 1 1 1 1 1 1 1 1 1 1 1 1 1 1 1 1 1 1 1 1 1 1 1 1 1 1 1 1 1 1 1 1 1 1 1 1 1 1 1 1 1 1 1 1 1 1 1 1 1 1 1 1 1 1 1 1 1 1 1 1 1 1 1 1 1 1 1 1 1 1 1 1 1 1 1 1 1 1 1 1 1 1 1 1 1 1 1 1 1 1 1 1 1 1 1 1 1 1 1 1 1 1 1 1 1 1 1 1 1 1 1 1 1 1 1 1 1 1 1 1 1 1 1 1 1 1 1 1 1 1 1 1 1 1 1 1 1 1 1 1 1 1 1 1 1 1 1 1 1 1 1 1 1 1 1 1 1 1 1 1 1 1 1 1 1 1 1 1 1 1 1 1 1 1 1 1 1 1 1 1 1 1 1 1 1 1 1 1 1 1 1 1 1 1 1 1 1 1 1 1 1 1 1 1 1 1 1 1 1 1 1 1 1 1 1 1 1 1 1 1 1 1 1 1 1 1 1 1 1 1 1 1 1 1 1 1 1 1 1 1 1 1 1 1 1 1 1 1 1 1 1 1 1 1 1 1 1 1 1 1 1 1 1 1 1 1 1 1 1 1 1 1 1 1 1 1 1 1 1 1 1 1 1 1 1 1 1 1 1 1 1 1 1 1 1 1 1 1 1 1 1 1 1 1 1 1 1 1 1 1 1 1 1 1 1 1 1 1 1 1 1 1 1 1 1 1 1 1 1 1 1 1 1 1 1 1 1 1 1 1 1 1 1 1 1 1 1 1 1 1 1 1 1 1 1 1 1 1 1 1 1 1 1 1 1 1 1 1 1 1 1 1 1 1 1 1 1 1 1 1 1 1 1 1 1 1 1 1 1 1 1 1 1 1 1 1 1 1 1 1 1 1 1 1 1 1 1 1 1 1 1 1 1 1 1 1 1 1 1 1 1 1 1 1 1 1 1 1 1 1 1 1 1 1 1 1 1 1 1 1 1 1 1 1 1 1 1 1 1 1 1 1 1 1 1 1 1 1 1 1 1 1 1 1 1 1 1 1 1 1 1 1 1 1 1 1 1 1 1 1 1 1 1 1 1 1 1 1 1 1 1 1 1 1 1 1 1 1 1 1 1 1 1 1 1 1 1 1 1 1 1 1 1 1 1 1 1 1 1 1 1 1 1 1 1 1 1 1 1 1 1 1 1 1 1 1 1 1 1 1 1 1 1 1 1 1 1 1 1 1 1 1 1 1 1 1 1 1 1 1 1 1 1 1 1 1 1 1 1 1 1 1 1 1 1 1 1 1 1 1 1 1 1 1
				</DataArray>
				<DataArray Name="F2" type="Float32" format="ascii">
 0 0 0 0 0 0 0 0 0 0 0 0 0 0 0 0 0 0 0 0 0 0 0 0 0 0 0 0 0 0 0 0 0 0 0 0 0 0 0 0 0 0 0 0 0 0 0 0 0 0 0 0 0 0 0 0 0 0 0 0 0 0 0 0 0 0 0 0 0 0 0 0 0 0 0 0 0 0 0 0 0 0 0 0 0 0 0 0 0 0 0 0 0 0 0 0 0 0 0 0 0 0 0 0 0 0 0 0 0 0 0 0 0 0 0 0 0 0 0 0 0 0 0 0 0 0 0 0 0 0 0 0 0 0 0 0 0 0 0 0 0 0 0 0 0 0 0 0 0 0 0 0 0 0 0 0 0 0 0 0 0 0 0 0 0 0 0 0 0 0 0 0 0 0 0 0 0 0 0 0 0 0 0 0 0 0 0 0 0 0 0 0 0 0 0 0 0 0 0 0 0 0 0 0 0 0 0 0 0 0 0 0 0 0 0 0 0 0 0 0 0 0 0 0 0 0 0 0 0 0 0 0 0 0 0 0 0 0 0 0 0 0 0 0 0 0 0 0 0 0 0 0 0 0 0 0 0 0 0 0 0 0 0 0 0 0 0 0 0 0 0 0 0 0 0 0 0 0 0 0 0 0 0 0 0 0 0 0 0 0 0 0 0 0 0 0 0 0 0 0 0 0 0 0 0 0 0 0 0 0 0 0 0 0 0 0 0 0 0 0 0 0 0 0 0 0 0 0 0 0 0 0 0 0 0 0 0 0 0 0 0 0 0 0 0 0 0 0 0 0 0 0 0 0 0 0 0 0 0 0 0 0 0 0 0 0 0 0 0 0 0 0 0 0 0 0 0 0 0 0 0 0 0 0 0 0 0 0 0 0 0 0 0 0 0 0 0 0 0 0 0 0 0 0 0 0 0 0 0 0 0 0 0 0 0 0 0 0 0 0 0 0 0 0 0 0 0 0 0 0 0 0 0 0 0 0 0 0 0 0 0 0 0 0 0 0 0 0 0 0 0 0 0 0 0 0 0 0 0 0 0 0 0 0 0 0 0 0 0 0 0 0 0 0 0 0 0 0 0 0 0 0 0 0 0 0 0 0 0 0 0 0 0 0 0 0 0 0 0 0 0 0 0 0 0 0 0 0 0 0 0 0 0 0 0 0 0 0 0 0 0 0 0 0 0 0 0 0 0 0 0 0 0 0 0 0 0 0 0 0 0 0 0 0 0 0 0 0 0 0 0 0 0 0 0 0 0 0 0 0 0 0 0 0 0 0 0 0 0 0 0 0 0 0 0 0 0 0 0 0 0 0 0 0 0 0 0 0 0 0 0 0 0 0 0 0 0 0 0 0 0 0 0 0 0 0 0 0 0 0 0 0 0 0 0 0 0 0 0 0 0 0 0 0 0 0 0 0 0 0 0 0 0 0 0 0 0 0 0 0 0 0 0 0 0 0 0 0 0 0 0 0 0 0 0 0 0 0 0 0 0 0 0 0 0 0 0 0 0 0 0 0 0 0 0 0 0 0 0 0 0 0 0 0 0 0 0 0 0 0 0 0 0 0 0 0 0 0 0 0 0 0 0 0 0 0 0 0 0 0 0 0 0 0 0 0 0 0 0 0 0 0 0 0 0 0 0 0 0 0 0 0 0 0 0 0 0 0 0 0 0 0 0 0 0 0 0 0 0 0 0 0 0 0 0 0 0 0 0 0 0 0 0 0 0 0 0 0 0 0 0 0 0 0 0 0 0 0 0 0 0 0 0 0 0 0 0 0 0 0 0 0 0 0 0 0 0 0 0 0 0 0 0 0 0 0 0 0 0 0 0 0 0 0 0 0 0 0 0 0 0 0 0 0 0 0 0 0 0 0 0 0 0 0 0 0 0 0 0 0 0 0 0 0 0 0 0 0 0 0 0 0 0 0 0 0 0 0 0 0 0 0 0 0 0 0 0 0 0 0 0 0 0 0 0 0 0 0 0 0 0 0 0 0 0 0 0 0 0 0 0 0 0 0 0 0 0 0 0 0
				</DataArray>
				<DataArray Name="F3" type="Float32" format="ascii">