<?xml version="1.0"?>
<VTKFile type="PolyData">
	<PolyData>
		<Piece NumberOfPoints="961" NumberOfPolys="900">
			<Points>
				<DataArray type="Float32" NumberOfComponents="3" format="ascii">
 0 0 0 0.04 0 0 0.08 0 0 0.12 0 0 0.16 0 0 0.2 0 0 0.24 0 0 0.28 0 0 0.32 0 0 0.36 0 0 0.4 0 0 0.44 0 0 0.48 0 0 0.52 0 0 0.56 0 0 0.6 0 0 0.64 0 0 0.68 0 0 0.72 0 0 0.76 0 0 0.8 0 0 0.84 0 0 0.88 0 0 0.92 0 0 0.96 0 0 1 0 0 1.04 0 0 1.08 0 0 1.12 0 0 1.16 0 0 1.2 0 0 0 0.04 0 0.04 0.04 0 0.08 0.04 0 0.12 0.04 0 0.16 0.04 0 0.2 0.04 0 0.24 0.04 0 0.28 0.04 0 0.32 0.04 0 0.36 0.04 0 0.4 0.04 0 0.44 0.04 0 0.48 0.04 0 0.52 0.04 0 0.56 0.04 0 0.6 0.04 0 0.64 0.04 0 0.68 0.04 0 0.72 0.04 0 0.76 0.04 0 0.8 0.04 0 0.84 0.04 0 0.88 0.04 0 0.92 0.04 0 0.96 0.04 0 1 0.04 0 1.04 0.04 0 1.08 0.04 0 1.12 0.04 0 1.16 0.04 0 1.2 0.04 0 0 0.08 0 0.04 0.08 0 0.08 0.08 0 0.12 0.08 0 0.16 0.08 0 0.2 0.08 0 0.24 0.08 0 0.28 0.08 0 0.32 0.08 0 0.36 0.08 0 0.4 0.08 0 0.44 0.08 0 0.48 0.08 0 0.52 0.08 0 0.56 0.08 0 0.6 0.08 0 0.64 0.08 0 0.68 0.08 0 0.72 0.08 0 0.76 0.08 0 0.8 0.08 0 0.84 0.08 0 0.88 0.08 0 0.92 0.08 0 0.96 0.08 0 1 0.08 0 1.04 0.08 0 1.08 0.08 0 1.12 0.08 0 1.16 0.08 0 1.2 0.08 0 0 0.12 0 0.04 0.12 0 0.08 0.12 0 0.12 0.12 0 0.16 0.12 0 0.2 0.12 0 0.24 0.12 0 0.28 0.12 0 0.32 0.12 0 0.36 0.12 0 0.4 0.12 0 0.44 0.12 0 0.48 0.12 0 0.52 0.12 0 0.56 0.12 0 0.6 0.12 0 0.64 0.12 0 0.68 0.12 0 0.72 0.12 0 0.76 0.12 0 0.8 0.12 0 0.84 0.12 0 0.88 0.12 0 0.92 0.12 0 0.96 0.12 0 1 0.12 0 1.04 0.12 0 1.08 0.12 0 1.12 0.12 0 1.16 0.12 0 1.2 0.12 0 0 0.16 0 0.04 0.16 0 0.08 0.16 0 0.12 0.16 0 0.16 0.16 0 0.2 0.16 0 0.24 0.16 0 0.28 0.16 0 0.32 0.16 0 0.36 0.16 0 0.4 0.16 0 0.44 0.16 0 0.48 0.16 0 0.52 0.16 0 0.56 0.16 0 0.6 0.16 0 0.64 0.16 0 0.68 0.16 0 0.72 0.16 0 0.76 0.16 0 0.8 0.16 0 0.84 0.16 0 0.88 0.16 0 0.92 0.16 0 0.96 0.16 0 1 0.16 0 1.04 0.16 0 1.08 0.16 0 1.12 0.16 0 1.16 0.16 0 1.2 0.16 0 0 0.2 0 0.04 0.2 0 0.08 0.2 0 0.12 0.2 0 0.16 0.2 0 0.2 0.2 0 0.24 0.2 0 0.28 0.2 0 0.32 0.2 0 0.36 0.2 0 0.4 0.2 0 0.44 0.2 0 0.48 0.2 0 0.52 0.2 0 0.56 0.2 0 0.6 0.2 0 0.64 0.2 0 0.68 0.2 0 0.72 0.2 0 0.76 0.2 0 0.8 0.2 0 0.84 0.2 0 0.88 0.2 0 0.92 0.2 0 0.96 0.2 0 1 0.2 0 1.04 0.2 0 1.08 0.2 0 1.12 0.2 0 1.16 0.2 0 1.2 0.2 0 0 0.24 0 0.04 0.24 0 0.08 0.24 0 0.12 0.24 0 0.16 0.24 0 0.2 0.24 0 0.24 0.24 0 0.28 0.24 0 0.32 0.24 0 0.36 0.24 0 0.4 0.24 0 0.44 0.24 0 0.48 0.24 0 0.52 0.24 0 0.56 0.24 0 0.6 0.24 0 0.64 0.24 0 0.68 0.24 0 0.72 0.24 0 0.76 0.24 0 0.8 0.24 0 0.84 0.24 0 0.88 0.24 0 0.92 0.24 0 0.96 0.24 0 1 0.24 0 1.04 0.24 0 1.08 0.24 0 1.12 0.24 0 1.16 0.24 0 1.2 0.24 0 0 0.28 0 0.04 0.28 0 0.08 0.28 0 0.12 0.28 0 0.16 0.28 0 0.2 0.28 0 0.24 0.28 0 0.28 0.28 0 0.32 0.28 0 0.36 0.28 0 0.4 0.28 0 0.44 0.28 0 0.48 0.28 0 0.52 0.28 0 0.56 0.28 0 0.6 0.28 0 0.64 0.28 0 0.68 0.28 0 0.72 0.28 0 0.76 0.28 0 0.8 0.28 0 0.84 0.28 0 0.88 0.28 0 0.92 0.28 0 0.96 0.28 0 1 0.28 0 1.04 0.28 0 1.08 0.28 0 1.12 0.28 0 1.16 0.28 0 1.2 0.28 0 0 0.32 0 0.04 0.32 0 0.08 0.32 0 0.12 0.32 0 0.16 0.32 0 0.2 0.32 0 0.24 0.32 0 0.28 0.32 0 0.32 0.32 0 0.36 0.32 0 0.4 0.32 0 0.44 0.32 0 0.48 0.32 0 0.52 0.32 0 0.56 0.32 0 0.6 0.32 0 0.64 0.32 0 0.68 0.32 0 0.72 0.32 0 0.76 0.32 0 0.8 0.32 0 0.84 0.32 0 0.88 0.32 0 0.92 0.32 0 0.96 0.32 0 1 0.32 0 1.04 0.32 0 1.08 0.32 0 1.12 0.32 0 1.16 0.32 0 1.2 0.32 0 0 0.36 0 0.04 0.36 0 0.08 0.36 0 0.12 0.36 0 0.16 0.36 0 0.2 0.36 0 0.24 0.36 0 0.28 0.36 0 0.32 0.36 0 0.36 0.36 0 0.4 0.36 0 0.44 0.36 0 0.48 0.36 0 0.52 0.36 0 0.56 0.36 0 0.6 0.36 0 0.64 0.36 0 0.68 0.36 0 0.72 0.36 0 0.76 0.36 0 0.8 0.36 0 0.84 0.36 0 0.88 0.36 0 0.92 0.36 0 0.96 0.36 0 1 0.36 0 1.04 0.36 0 1.08 0.36 0 1.12 0.36 0 1.16 0.36 0 1.2 0.36 0 0 0.4 0 0.04 0.4 0 0.08 0.4 0 0.12 0.4 0 0.16 0.4 0 0.2 0.4 0 0.24 0.4 0 0.28 0.4 0 0.32 0.4 0 0.36 0.4 0 0.4 0.4 0 0.44 0.4 0 0.48 0.4 0 0.52 0.4 0 0.56 0.4 0 0.6 0.4 0 0.64 0.4 0 0.68 0.4 0 0.72 0.4 0 0.76 0.4 0 0.8 0.4 0 0.84 0.4 0 0.88 0.4 0 0.92 0.4 0 0.96 0.4 0 1 0.4 0 1.04 0.4 0 1.08 0.4 0 1.12 0.4 0 1.16 0.4 0 1.2 0.4 0 0 0.44 0 0.04 0.44 0 0.08 0.44 0 0.12 0.44 0 0.16 0.44 0 0.2 0.44 0 0.24 0.44 0 0.28 0.44 0 0.32 0.44 0 0.36 0.44 0 0.4 0.44 0 0.44 0.44 0 0.48 0.44 0 0.52 0.44 0 0.56 0.44 0 0.6 0.44 0 0.64 0.44 0 0.68 0.44 0 0.72 0.44 0 0.76 0.44 0 0.8 0.44 0 0.84 0.44 0 0.88 0.44 0 0.92 0.44 0 0.96 0.44 0 1 0.44 0 1.04 0.44 0 1.08 0.44 0 1.12 0.44 0 1.16 0.44 0 1.2 0.44 0 0 0.48 0 0.04 0.48 0 0.08 0.48 0 0.12 0.48 0 0.16 0.48 0 0.2 0.48 0 0.24 0.48 0 0.28 0.48 0 0.32 0.48 0 0.36 0.48 0 0.4 0.48 0 0.44 0.48 0 0.48 0.48 0 0.52 0.48 0 0.56 0.48 0 0.6 0.48 0 0.64 0.48 0 0.68 0.48 0 0.72 0.48 0 0.76 0.48 0 0.8 0.48 0 0.84 0.48 0 0.88 0.48 0 0.92 0.48 0 0.96 0.48 0 1 0.48 0 1.04 0.48 0 1.08 0.48 0 1.12 0.48 0 1.16 0.48 0 1.2 0.48 0 0 0.52 0 0.04 0.52 0 0.08 0.52 0 0.12 0.52 0 0.16 0.52 0 0.2 0.52 0 0.24 0.52 0 0.28 0.52 0 0.32 0.52 0 0.36 0.52 0 0.4 0.52 0 0.44 0.52 0 0.48 0.52 0 0.52 0.52 0 0.56 0.52 0 0.6 0.52 0 0.64 0.52 0 0.68 0.52 0 0.72 0.52 0 0.76 0.52 0 0.8 0.52 0 0.84 0.52 0 0.88 0.52 0 0.92 0.52 0 0.96 0.52 0 1 0.52 0 1.04 0.52 0 1.08 0.52 0 1.12 0.52 0 1.16 0.52 0 1.2 0.52 0 0 0.56 0 0.04 0.56 0 0.08 0.56 0 0.12 0.56 0 0.16 0.56 0 0.2 0.56 0 0.24 0.56 0 0.28 0.56 0 0.32 0.56 0 0.36 0.56 0 0.4 0.56 0 0.44 0.56 0 0.48 0.56 0 0.52 0.56 0 0.56 0.56 0 0.6 0.56 0 0.64 0.56 0 0.68 0.56 0 0.72 0.56 0 0.76 0.56 0 0.8 0.56 0 0.84 0.56 0 0.88 0.56 0 0.92 0.56 0 0.96 0.56 0 1 0.56 0 1.04 0.56 0 1.08 0.56 0 1.12 0.56 0 1.16 0.56 0 1.2 0.56 0 0 0.6 0 0.04 0.6 0 0.08 0.6 0 0.12 0.6 0 0.16 0.6 0 0.2 0.6 0 0.24 0.6 0 0.28 0.6 0 0.32 0.6 0 0.36 0.6 0 0.4 0.6 0 0.44 0.6 0 0.48 0.6 0 0.52 0.6 0 0.56 0.6 0 0.6 0.6 0 0.64 0.6 0 0.68 0.6 0 0.72 0.6 0 0.76 0.6 0 0.8 0.6 0 0.84 0.6 0 0.88 0.6 0 0.92 0.6 0 0.96 0.6 0 1 0.6 0 1.04 0.6 0 1.08 0.6 0 1.12 0.6 0 1.16 0.6 0 1.2 0.6 0 0 0.64 0 0.04 0.64 0 0.08 0.64 0 0.12 0.64 0 0.16 0.64 0 0.2 0.64 0 0.24 0.64 0 0.28 0.64 0 0.32 0.64 0 0.36 0.64 0 0.4 0.64 0 0.44 0.64 0 0.48 0.64 0 0.52 0.64 0 0.56 0.64 0 0.6 0.64 0 0.64 0.64 0 0.68 0.64 0 0.72 0.64 0 0.76 0.64 0 0.8 0.64 0 0.84 0.64 0 0.88 0.64 0 0.92 0.64 0 0.96 0.64 0 1 0.64 0 1.04 0.64 0 1.08 0.64 0 1.12 0.64 0 1.16 0.64 0 1.2 0.64 0 0 0.68 0 0.04 0.68 0 0.08 0.68 0 0.12 0.68 0 0.16 0.68 0 0.2 0.68 0 0.24 0.68 0 0.28 0.68 0 0.32 0.68 0 0.36 0.68 0 0.4 0.68 0 0.44 0.68 0 0.48 0.68 0 0.52 0.68 0 0.56 0.68 0 0.6 0.68 0 0.64 0.68 0 0.68 0.68 0 0.72 0.68 0 0.76 0.68 0 0.8 0.68 0 0.84 0.68 0 0.88 0.68 0 0.92 0.68 0 0.96 0.68 0 1 0.68 0 1.04 0.68 0 1.08 0.68 0 1.12 0.68 0 1.16 0.68 0 1.2 0.68 0 0 0.72 0 0.04 0.72 0 0.08 0.72 0 0.12 0.72 0 0.16 0.72 0 0.2 0.72 0 0.24 0.72 0 0.28 0.72 0 0.32 0.72 0 0.36 0.72 0 0.4 0.72 0 0.44 0.72 0 0.48 0.72 0 0.52 0.72 0 0.56 0.72 0 0.6 0.72 0 0.64 0.72 0 0.68 0.72 0 0.72 0.72 0 0.76 0.72 0 0.8 0.72 0 0.84 0.72 0 0.88 0.72 0 0.92 0.72 0 0.96 0.72 0 1 0.72 0 1.04 0.72 0 1.08 0.72 0 1.12 0.72 0 1.16 0.72 0 1.2 0.72 0 0 0.76 0 0.04 0.76 0 0.08 0.76 0 0.12 0.76 0 0.16 0.76 0 0.2 0.76 0 0.24 0.76 0 0.28 0.76 0 0.32 0.76 0 0.36 0.76 0 0.4 0.76 0 0.44 0.76 0 0.48 0.76 0 0.52 0.76 0 0.56 0.76 0 0.6 0.76 0 0.64 0.76 0 0.68 0.76 0 0.72 0.76 0 0.76 0.76 0 0.8 0.76 0 0.84 0.76 0 0.88 0.76 0 0.92 0.76 0 0.96 0.76 0 1 0.76 0 1.04 0.76 0 1.08 0.76 0 1.12 0.76 0 1.16 0.76 0 1.2 0.76 0 0 0.8 0 0.04 0.8 0 0.08 0.8 0 0.12 0.8 0 0.16 0.8 0 0.2 0.8 0 0.24 0.8 0 0.28 0.8 0 0.32 0.8 0 0.36 0.8 0 0.4 0.8 0 0.44 0.8 0 0.48 0.8 0 0.52 0.8 0 0.56 0.8 0 0.6 0.8 0 0.64 0.8 0 0.68 0.8 0 0.72 0.8 0 0.76 0.8 0 0.8 0.8 0 0.84 0.8 0 0.88 0.8 0 0.92 0.8 0 0.96 0.8 0 1 0.8 0 1.04 0.8 0 1.08 0.8 0 1.12 0.8 0 1.16 0.8 0 1.2 0.8 0 0 0.84 0 0.04 0.84 0 0.08 0.84 0 0.12 0.84 0 0.16 0.84 0 0.2 0.84 0 0.24 0.84 0 0.28 0.84 0 0.32 0.84 0 0.36 0.84 0 0.4 0.84 0 0.44 0.84 0 0.48 0.84 0 0.52 0.84 0 0.56 0.84 0 0.6 0.84 0 0.64 0.84 0 0.68 0.84 0 0.72 0.84 0 0.76 0.84 0 0.8 0.84 0 0.84 0.84 0 0.88 0.84 0 0.92 0.84 0 0.96 0.84 0 1 0.84 0 1.04 0.84 0 1.08 0.84 0 1.12 0.84 0 1.16 0.84 0 1.2 0.84 0 0 0.88 0 0.04 0.88 0 0.08 0.88 0 0.12 0.88 0 0.16 0.88 0 0.2 0.88 0 0.24 0.88 0 0.28 0.88 0 0.32 0.88 0 0.36 0.88 0 0.4 0.88 0 0.44 0.88 0 0.48 0.88 0 0.52 0.88 0 0.56 0.88 0 0.6 0.88 0 0.64 0.88 0 0.68 0.88 0 0.72 0.88 0 0.76 0.88 0 0.8 0.88 0 0.84 0.88 0 0.88 0.88 0 0.92 0.88 0 0.96 0.88 0 1 0.88 0 1.04 0.88 0 1.08 0.88 0 1.12 0.88 0 1.16 0.88 0 1.2 0.88 0 0 0.92 0 0.04 0.92 0 0.08 0.92 0 0.12 0.92 0 0.16 0.92 0 0.2 0.92 0 0.24 0.92 0 0.28 0.92 0 0.32 0.92 0 0.36 0.92 0 0.4 0.92 0 0.44 0.92 0 0.48 0.92 0 0.52 0.92 0 0.56 0.92 0 0.6 0.92 0 0.64 0.92 0 0.68 0.92 0 0.72 0.92 0 0.76 0.92 0 0.8 0.92 0 0.84 0.92 0 0.88 0.92 0 0.92 0.92 0 0.96 0.92 0 1 0.92 0 1.04 0.92 0 1.08 0.92 0 1.12 0.92 0 1.16 0.92 0 1.2 0.92 0 0 0.96 0 0.04 0.96 0 0.08 0.96 0 0.12 0.96 0 0.16 0.96 0 0.2 0.96 0 0.24 0.96 0 0.28 0.96 0 0.32 0.96 0 0.36 0.96 0 0.4 0.96 0 0.44 0.96 0 0.48 0.96 0 0.52 0.96 0 0.56 0.96 0 0.6 0.96 0 0.64 0.96 0 0.68 0.96 0 0.72 0.96 0 0.76 0.96 0 0.8 0.96 0 0.84 0.96 0 0.88 0.96 0 0.92 0.96 0 0.96 0.96 0 1 0.96 0 1.04 0.96 0 1.08 0.96 0 1.12 0.96 0 1.16 0.96 0 1.2 0.96 0 0 1 0 0.04 1 0 0.08 1 0 0.12 1 0 0.16 1 0 0.2 1 0 0.24 1 0 0.28 1 0 0.32 1 0 0.36 1 0 0.4 1 0 0.44 1 0 0.48 1 0 0.52 1 0 0.56 1 0 0.6 1 0 0.64 1 0 0.68 1 0 0.72 1 0 0.76 1 0 0.8 1 0 0.84 1 0 0.88 1 0 0.92 1 0 0.96 1 0 1 1 0 1.04 1 0 1.08 1 0 1.12 1 0 1.16 1 0 1.2 1 0 0 1.04 0 0.04 1.04 0 0.08 1.04 0 0.12 1.04 0 0.16 1.04 0 0.2 1.04 0 0.24 1.04 0 0.28 1.04 0 0.32 1.04 0 0.36 1.04 0 0.4 1.04 0 0.44 1.04 0 0.48 1.04 0 0.52 1.04 0 0.56 1.04 0 0.6 1.04 0 0.64 1.04 0 0.68 1.04 0 0.72 1.04 0 0.76 1.04 0 0.8 1.04 0 0.84 1.04 0 0.88 1.04 0 0.92 1.04 0 0.96 1.04 0 1 1.04 0 1.04 1.04 0 1.08 1.04 0 1.12 1.04 0 1.16 1.04 0 1.2 1.04 0 0 1.08 0 0.04 1.08 0 0.08 1.08 0 0.12 1.08 0 0.16 1.08 0 0.2 1.08 0 0.24 1.08 0 0.28 1.08 0 0.32 1.08 0 0.36 1.08 0 0.4 1.08 0 0.44 1.08 0 0.48 1.08 0 0.52 1.08 0 0.56 1.08 0 0.6 1.08 0 0.64 1.08 0 0.68 1.08 0 0.72 1.08 0 0.76 1.08 0 0.8 1.08 0 0.84 1.08 0 0.88 1.08 0 0.92 1.08 0 0.96 1.08 0 1 1.08 0 1.04 1.08 0 1.08 1.08 0 1.12 1.08 0 1.16 1.08 0 1.2 1.08 0 0 1.12 0 
[...]
			<CellData Scalars="Density">
				<DataArray Name="Density" type="Float32" format="ascii">
 0.00326007 0.0033049 0.00340858 0.0036074 0.00394006 0.00444939 0.00518404 0.0062016 0.00757701 0.00940887 0.0118201 0.0149607 0.019021 0.0242677 0.0310974 0.0401424 0.0524651 0.0695191 0.0938841 0.129846 0.184144 0.266832 0.391556 0.574042 0.82962 1.17832 1.65973 2.27964 2.80411 3.08569 0.00330494 0.00334356 0.00343377 0.00361604 0.00393031 0.00442082 0.00513693 0.0061345 0.00749512 0.00932509 0.0117584 0.0149618 0.0191534 0.0246181 0.0317615 0.0412061 0.0540069 0.0715769 0.096244 0.132209 0.185922 0.267404 0.391023 0.574685 0.835677 1.18978 1.67611 2.30094 2.82467 3.08745 0.00340858 0.00343393 0.00349565 0.00363616 0.00389117 0.00429996 0.0049214 0.00582341 0.0070788 0.0087852 0.0110781 0.0141238 0.0181274 0.0233762 0.0302772 0.0393647 0.0515433 0.0683331 0.0919456 0.126586 0.178964 0.25912 0.380656 0.560712 0.817093 1.1683 1.65449 2.2986 2.86391 3.16653 0.00360749 0.00361586 0.00363618 0.00372568 0.0039225 0.00426238 0.00477295 0.00550869 0.00656067 0.00803819 0.0100783 0.0128527 0.0165947 0.0216091 0.0282912 0.0372108 0.0494051 0.0664677 0.0903856 0.125118 0.176635 0.254521 0.37281 0.549872 0.803808 1.15277 1.63974 2.29181 2.86351 3.15867 0.00393984 0.0039301 0.00389029 0.00392227 0.00405535 0.0043272 0.00478554 0.00547212 0.00645314 0.00783573 0.00977168 0.0124635 0.0161567 0.0211628 0.0279538 0.037229 0.0499302 0.0675161 0.0919381 0.12708 0.178594 0.255532 0.370943 0.543061 0.79104 1.13521 1.61883 2.26896 2.8428 3.14899 0.00444865 0.00441971 0.00429862 0.00426064 0.00432661 0.00452316 0.00490272 0.00552114 0.00643896 0.00775512 0.00962025 0.0122307 0.015843 0.0208254 0.0276599 0.0370372 0.0499924 0.0680895 0.0932005 0.128723 0.179858 0.255355 0.368022 0.535504 0.778007 1.11699 1.59764 2.24669 2.81219 3.10066 0.00518247 0.00513491 0.00491835 0.00477069 0.00478293 0.00490172 0.0052018 0.0057402 0.00657831 0.00781745 0.00959323 0.0121059 0.0156454 0.0205893 0.0274865 0.0370802 0.0503081 0.068572 0.0939871 0.129903 0.181129 0.255748 0.366392 0.529675 0.764718 1.09198 1.55516 2.18425 2.74112 3.03532 0.00619893 0.00613114 0.00581864 0.00550423 0.00546866 0.00551748 0.0057388 0.0062054 0.0069767 0.00814425 0.00984446 0.0122898 0.0157484 0.0206679 0.0276132 0.037271 0.0507122 0.0695295 0.0957241 0.131939 0.182708 0.255701 0.362382 0.519309 0.745566 1.06155 1.51206 2.14077 2.70768 3.00056 0.00757297 0.00749014 0.00707221 0.00655416 0.0064472 0.00643435 0.0065744 0.00697401 0.00766443 0.00877481 0.0104156 0.0127763 0.0161659 0.0210411 0.0279217 0.0376247 0.0513146 0.0704747 0.0970721 0.133852 0.184874 0.256505 0.359921 0.511641 0.731044 1.03911 1.48179 2.12601 2.72995 3.04576 0.00940319 0.0093179 0.00877674 0.00802915 0.00782747 0.00774859 0.00781096 0.00814007 0.00877178 0.00981203 0.0114001 0.0137316 0.0170861 0.021857 0.0286424 0.038415 0.0521688 0.0712523 0.0978325 0.134808 0.185715 0.256366 0.356922 0.502773 0.714488 1.01757 1.46263 2.13626 2.8144 3.18452 0.0118127 0.0117482 0.0110685 0.0100665 0.00976151 0.00960961 0.00958583 0.00983873 0.0104095 0.0113966 0.0129486 0.015246 0.0185669 0.0233207 0.0300715 0.0396366 0.053164 0.0724392 0.0995972 0.136855 0.187781 0.258187 0.356721 0.498307 0.704933 1.00429 1.45307 2.15969 2.96109 3.4258 0.0149517 0.0149488 0.0141129 0.0128387 0.0124535 0.0122151 0.0120991 0.0122797 0.012767 0.0137255 0.0152347 0.0175458 0.0209011 0.0256867 0.0324394 0.0419823 0.0553044 0.0743416 0.101401 0.139172 0.19149 0.262288 0.35928 0.497307 0.699525 0.996027 1.44556 2.18718 3.148 3.75258 0.0190104 0.0191391 0.0181127 0.0165816 0.0161435 0.0158261 0.015636 0.0157348 0.0161577 0.0170712 0.0185574 0.0208926 0.0243504 0.0292862 0.0362593 0.0459133 0.0591456 0.0780328 0.10425 0.142141 0.195634 0.269374 0.369282 0.505241 0.702931 0.998876 1.45389 2.22852 3.34911 4.12135 0.0242573 0.0246027 0.0233635 0.0215982 0.0211474 0.020808 0.0205795 0.0206561 0.0210188 0.0218348 0.0233066 0.0256589 0.029275 0.0345012 0.0417523 0.0516723 0.0654095 0.0842369 0.109673 0.146897 0.198949 0.274705 0.38025 0.523717 0.723631 1.01949 1.48369 2.2878 3.56034 4.53806 0.0310886 0.0317472 0.0302684 0.0282796 0.0279497 0.0276355 0.0274937 0.0275789 0.0278849 0.0286295 0.0300521 0.0324271 0.0362104 0.0416927 0.0494621 0.060092 0.0743125 0.0928394 0.118378 0.154264 0.203894 0.278221 0.385361 0.54171 0.760244 1.07032 1.54827 2.37002 3.78174 4.99784 0.040136 0.0411949 0.0393592 0.0372077 0.0372287 0.0370227 0.0370931 0.0372181 0.0376253 0.0384048 0.0395657 0.0418871 0.0457519 0.051597 0.0600469 0.0715856 0.0867197 0.106154 0.13143 0.164297 0.211687 0.281425 0.385 0.543596 0.782337 1.13289 1.65123 2.48694 3.9968 5.48566 0.052463 0.0540008 0.0515434 0.0494124 0.0499318 0.0500034 0.0503183 0.0506846 0.0513269 0.0521145 0.0530738 0.0552647 0.0590736 0.0653475 0.0741193 0.0866063 0.10329 0.124364 0.150448 0.183332 0.226443 0.285665 0.380779 0.532395 0.779417 1.15791 1.73637 2.63457 4.21492 6.00207 0.0695253 0.07158 0.0683428 0.0664825 0.0675285 0.0681223 0.0685848 0.0695715 0.0704471 0.0712426 0.0724524 0.0742291 0.0777668 0.0838744 0.0925088 0.106007 0.124251 0.147239 0.175586 0.210372 0.252783 0.307443 0.386282 0.512317 0.740364 1.13716 1.76264 2.74114 4.41492 6.56578 0.0939032 0.0962605 0.0919697 0.090405 0.0919674 0.0932316 0.0940283 0.0958134 0.0970437 0.0979209 0.0995563 0.101108 0.104023 0.109349 0.118155 0.131148 0.150181 0.175477 0.206365 0.243845 0.288847 0.344423 0.415523 0.519964 0.703785 1.05737 1.72252 2.78835 4.55889 7.18628 0.129883 0.132244 0.126626 0.125142 0.127119 0.128738 0.129987 0.132008 0.133991 0.134841 0.136868 0.139089 0.142029 0.146602 0.153885 0.163855 0.183063 0.210199 0.243754 0.285132 0.334291 0.392588 0.464816 0.561984 0.709456 0.98863 1.58792 2.72336 4.57391 7.82905 0.184207 0.185983 0.179024 0.176668 0.178636 0.179865 0.181198 0.182827 0.185141 0.185699 0.188037 0.191473 0.195478 0.198801 0.203416 0.21133 0.226181 0.252585 0.288745 0.334258 0.389589 0.454316 0.532225 0.630668 0.767101 0.996365 1.47091 2.55727 4.55175 8.46599 0.266934 0.267503 0.259213 0.254579 0.255589 0.255393 0.255806 0.255799 0.256699 0.256403 0.25854 0.262345 0.2695 0.274772 0.277907 0.281086 0.285405 0.307289 0.344282 0.392559 0.454354 0.528395 0.617131 0.726193 0.869214 1.07807 1.46935 2.38751 4.51328 8.88915 0.391713 0.391177 0.380795 0.372908 0.371031 0.368097 0.366455 0.362431 0.360026 0.356981 0.356877 0.359453 0.369431 0.380299 0.385674 0.384661 0.380632 0.3862 0.415583 0.464892 0.532329 0.617213 0.720541 0.847617 1.01074 1.23384 1.5919 2.38475 4.50713 8.94973 0.57427 0.574912 0.560917 0.55003 0.543197 0.535644 0.529778 0.519403 0.511741 0.502819 0.498496 0.497537 0.505276 0.524405 0.54146 0.543325 0.532767 0.512786 0.520052 0.561929 0.630859 0.726375 0.847761 1.00065 1.1981 1.4653 1.86184 2.64133 4.50315 8.56818 0.829921 0.835986 0.817376 0.804041 0.791251 0.77824 0.764898 0.745754 0.731118 0.714466 0.705106 0.699629 0.702707 0.723919 0.759845 0.7831 0.778729 0.740086 0.703234 0.709894 0.76746 0.869508 1.01094 1.19826 1.44547 1.7801 2.30247 3.21731 4.47674 7.58899 1.17868 1.19016 1.16866 1.15308 1.13551 1.11731 1.09226 1.06188 1.03939 1.01756 1.00421 0.996422 0.998853 1.01942 1.0705 1.13338 1.15754 1.13859 1.05856 0.989552 0.996185 1.07834 1.23416 1.46551 1.7803 2.24793 3.00291 3.95638 4.3591 5.91665 1.66013 1.67655 1.65492 1.64012 1.61924 1.59805 1.55554 1.51241 1.48212 1.46301 1.45282 1.44542 1.45367 1.48342 1.54778 1.65072 1.73628 1.76251 1.72313 1.58748 1.47131 1.46993 1.59225 1.86219 2.30269 3.00319 3.72519 4.20787 4.10196 3.7369 2.28009 2.30143 2.29911 2.2923 2.26951 2.24726 2.18474 2.14121 2.12621 2.1367 2.16001 2.18674 2.2274 2.28714 2.36943 2.48636 2.6345 2.74097 2.78904 2.72313 2.55775 2.38732 2.38487 2.64174 3.21769 3.95639 4.20803 4.25329 3.36399 1.95728 2.80459 2.8252 2.8645 2.86416 2.84354 2.81298 2.74182 2.70838 2.73033 2.81458 2.96129 3.14816 3.34832 3.55969 3.78091 3.99613 4.21475 4.41507 4.55975 4.57445 4.55252 4.51354 4.50763 4.50348 4.47695 4.3595 4.10168 3.36416 1.7998 1.20394 3.08618 3.08798 3.16714 3.15944 3.14983 3.10156 3.03613 3.00136 3.0463 3.18458 3.42546 3.75156 4.12003 4.53676 4.9969 5.4853 6.00223 6.56651 7.18735 7.82992 8.46666 8.88929 8.95002 8.56832 7.5889 5.91689 3.73672 1.95736 1.20392 1.04689
				</DataArray>
				<DataArray Name="Energy" type="Float32" format="ascii">
 766.542 757.331 736.257 698.931 644.479 576.837 502.785 429.165 360.767 300.097 247.846 203.679 166.743 135.99 110.346 88.8713 70.8516 55.6004 42.7675 32.1384 23.5745 16.9604 12.0937 8.65354 6.2952 4.71565 3.63354 2.88168 2.50338 2.33561 757.314 749.791 731.85 698.122 646.686 580.685 506.807 432.206 362.283 299.847 245.848 200.273 162.452 131.338 105.785 84.7526 67.4016 52.9303 40.8768 30.9274 22.8554 16.5197 11.7712 8.38626 6.06829 4.52102 3.49293 2.80298 2.45507 2.29453 736.206 731.83 720.685 695.607 654.483 598.202 529.973 456.657 384.742 318.924 261.424 212.764 172.285 139.005 111.787 89.481 71.168 55.9781 43.1945 32.6034 24.0289 17.3448 12.3632 8.79954 6.33747 4.69804 3.59507 2.83067 2.44817 2.28076 698.875 698.07 695.612 681.707 651.156 604.963 547.304 481.826 412.963 345.883 284.414 230.715 185.403 148.082 117.74 93.1479 73.143 56.7944 43.3973 32.5994 24.0275 17.3887 12.4133 8.82735 6.33637 4.67175 3.56775 2.81019 2.43081 2.26053 644.432 646.687 654.508 651.21 633.347 597.979 547.248 486.269 420.657 354.6 292.287 236.769 189.436 150.371 118.653 93.0789 72.6058 56.1836 42.9425 32.4226 24.105 17.635 12.7236 9.11075 6.55281 4.818 3.6557 2.85797 2.46118 2.28797 576.826 580.731 598.336 605.064 598.074 575.699 535.92 482.156 420.092 356.012 294.573 238.874 190.76 150.742 118.258 92.2139 71.5397 55.2035 42.1896 31.9373 23.8655 17.5912 12.8062 9.24721 6.68509 4.91751 3.72406 2.90651 2.4999 2.31795 502.814 506.915 530.177 547.538 547.411 536.04 508.633 465.562 412.013 353.2 294.446 239.928 191.969 151.448 118.365 92.0123 71.1666 54.7449 41.9368 31.9284 24.0614 17.9009 13.1196 9.52527 6.92367 5.10888 3.86606 3.00656 2.5737 2.38169 429.227 432.348 456.916 482.12 486.549 482.337 465.669 433.115 389.258 338.039 285.078 234.226 188.336 149.049 116.638 90.455 69.7228 53.6626 41.2641 31.6281 24.0861 18.157 13.5041 9.91924 7.25598 5.36 4.03718 3.1072 2.63111 2.41833 360.852 362.443 384.997 413.289 420.967 420.358 412.187 389.38 355.854 314.008 268.309 222.828 181.032 144.472 113.668 88.6059 68.756 53.1631 41.0274 31.5989 24.222 18.4313 13.857 10.2834 7.57321 5.60765 4.20282 3.18711 2.65577 2.4251 300.195 300.011 319.146 346.179 354.904 356.272 353.376 338.234 314.043 281.335 243.924 205.307 168.685 136.024 108.268 85.4671 66.9939 52.301 40.7524 31.6781 24.5128 18.834 14.3132 10.7336 7.95468 5.88365 4.36834 3.25775 2.66216 2.40877 247.949 245.999 261.611 284.646 292.539 294.799 294.609 285.269 268.401 243.949 214.651 182.9 152.118 124.222 100.164 80.1114 63.7519 50.5897 40.0075 31.4809 24.6686 19.1428 14.7013 11.1459 8.32474 6.15813 4.53656 3.33609 2.6494 2.37017 203.774 200.403 212.909 230.876 236.955 239.054 240.087 234.355 222.928 205.359 182.947 157.945 132.698 109.259 89.0324 72.262 58.4246 47.1963 38.073 30.5935 24.3947 19.2557 15.0267 11.542 8.71052 6.46877 4.7444 3.4393 2.64622 2.33922 166.822 162.561 172.377 185.516 189.566 190.88 192.102 188.434 181.169 168.691 152.248 132.755 112.346 93.2536 76.5089 62.4252 50.9386 41.9213 34.5472 28.4783 23.3648 18.9464 15.1045 11.8184 9.04767 6.77898 4.97225 3.56851 2.66534 2.32694 136.052 131.419 139.074 148.153 150.455 150.811 151.548 149.156 144.579 136.055 124.294 109.344 93.3337 77.6682 63.8991 52.2795 42.9916 35.5296 29.6019 25.0368 21.1991 17.8296 14.6916 11.8489 9.28209 7.04774 5.19706 3.72182 2.71149 2.33306 110.388 105.841 111.829 117.771 118.704 118.285 118.442 116.663 113.773 108.362 100.207 89.2293 76.5684 63.9436 52.661 43.287 35.5364 29.3075 24.577 20.9097 18.0173 15.7245 13.5932 11.3842 9.22032 7.2026 5.38197 3.87674 2.77755 2.34786 88.8983 84.7874 89.5027 93.165 93.1008 92.2135 92.0625 90.4301 88.7206 85.5203 80.158 72.3748 62.4677 52.4127 43.3254 35.5926 29.333 24.2859 20.2899 17.1239 14.8048 13.0658 11.693 10.3799 8.82844 7.11267 5.48103 4.02104 2.86576 2.3683 70.8678 67.4202 71.1787 73.1508 72.609 71.5477 71.1679 69.7096 68.8014 67.0042 63.7993 58.5142 51.0802 43.1176 35.577 29.3667 24.2861 20.1942 16.8994 14.312 12.2582 10.6419 9.5274 8.74945 7.95849 6.82094 5.43561 4.12617 2.97331 2.38841 55.6097 52.9404 55.9832 56.7966 56.1847 55.1949 54.7291 53.6553 53.1575 52.3092 50.6271 47.2527 42.0341 35.5862 29.3845 24.339 20.2094 16.8915 14.2236 12.078 10.3412 8.96684 7.88281 7.07866 6.60923 6.13946 5.24739 4.13899 3.0779 2.40702 42.7724 40.8816 43.1964 43.3984 42.9431 42.1766 41.9297 41.2453 41.008 40.7427 39.9953 38.0916 34.6047 29.663 24.6731 20.3305 16.9244 14.2343 12.0612 10.2966 8.85593 7.67271 6.7012 5.93396 5.39805 5.11366 4.78868 4.05565 3.14786 2.42193 32.1408 30.9297 32.6047 32.6023 32.4251 31.9317 31.9253 31.6179 31.5722 31.6442 31.4743 30.6096 28.5125 25.1039 20.9604 17.1577 14.341 12.09 10.3005 8.85426 7.65855 6.65416 5.81239 5.11901 4.54948 4.18421 4.04757 3.76285 3.135 2.41931 23.5754 22.8564 24.0295 24.0306 24.1077 23.8647 24.0622 24.0821 24.2033 24.4976 24.6539 24.3832 23.3738 21.2195 18.0271 14.842 12.2761 10.3517 8.86057 7.6597 6.66415 5.81916 5.09559 4.4787 3.96385 3.55238 3.31893 3.25168 3.02076 2.38563 16.9608 16.5201 17.3452 17.3913 17.6378 17.5941 17.9035 18.1588 18.4279 18.829 19.1241 19.2516 18.9389 17.8238 15.7388 13.0795 10.65 8.97447 7.67457 6.65468 5.81899 5.10994 4.49221 3.95127 3.48772 3.10126 2.79944 2.67605 2.74322 2.29303 12.094 11.7715 12.3634 12.415 12.7253 12.8088 13.122 13.5072 13.8561 14.3114 14.6959 15.0264 15.0957 14.6907 13.5955 11.6879 9.53746 7.88354 6.70167 5.81157 5.09468 4.49157 3.96666 3.49893 3.08197 2.72538 2.43821 2.23613 2.34037 2.11028 8.65383 8.38658 8.79979 8.82844 9.11166 9.24896 9.52664 9.92187 10.2842 10.7357 11.1476 11.5391 11.8195 11.8409 11.3821 10.3725 8.74931 7.07634 5.9328 5.11595 4.47721 3.9501 3.49837 3.09646 2.7322 2.40663 2.13139 1.92381 1.90557 1.80896 6.29565 6.06872 6.33781 6.33715 6.55334 6.686 6.92431 7.25751 7.57376 7.95558 8.32674 8.71086 9.04907 9.2794 9.22214 8.8238 7.95286 6.6091 5.39284 4.54795 3.96222 3.48631 3.0811 2.73182 2.41582 2.12419 1.87557 1.63825 1.53214 1.41496 4.71625 4.52159 4.69851 4.67241 4.81842 4.91799 5.10919 5.36086 5.60815 5.8844 6.15921 6.4698 6.78048 7.04768 7.2046 7.11281 6.82006 6.14112 5.11268 4.18433 3.54959 3.10012 2.72448 2.40613 2.124 1.87289 1.6435 1.36532 1.24176 0.94351 3.63415 3.49355 3.59557 3.56834 3.65613 3.72447 3.86631 4.03755 4.20316 4.36912 4.53714 4.74416 4.97318 5.1979 5.38256 5.48216 5.4348 5.24699 4.78791 4.04499 3.31758 2.79883 2.4375 2.13093 1.87531 1.64342 1.38957 1.19668 0.968416 0.490688 2.8822 2.80349 2.83111 2.81064 2.85831 2.90681 3.00677 3.10746 3.18729 3.25816 3.33683 3.43946 3.56867 3.72229 3.87751 4.02212 4.12665 4.13926 4.0555 3.76204 3.25123 2.6753 2.23563 1.92353 1.63805 1.36527 1.19668 0.955178 0.543762 0.132829 2.50381 2.45548 2.44854 2.43116 2.46143 2.50012 2.57385 2.63129 2.6559 2.66239 2.64995 2.64693 2.66587 2.71184 2.77785 2.86596 2.97318 3.07783 3.14784 3.13492 3.02069 2.74307 2.34021 1.90542 1.53209 1.24172 0.968402 0.543773 0.135081 0.00705351 2.336 2.2949 2.28109 2.26083 2.28817 2.31811 2.38181 2.41844 2.42522 2.40898 2.37056 2.33966 2.3273 2.33327 2.34794 2.36825 2.38826 2.4069 2.4219 2.41927 2.38564 2.29306 2.11032 1.80896 1.41498 0.943532 0.490681 0.132852 0.00705132 5.54794e-05
				</DataArray>
				<DataArray Name="F1" type="Float32" format="ascii">
 1 1 1 1 1 1 1 1 1 1 1 1 1 1 1 1 1 1 1 1 1 1 1 1 1 1 1 1 1 1 1 1 1 1 1 1 1 1 1 1 1 1 1 1 1 1 1 1 1 1 1 1 1 1 1 1 1 1 1 1 1 1 1 1 1 1 1 1 1 1 1 1 1 1 1 1 1 1 1 1 1 1 1 1 1 1 1 1 1 1 1 1 1 1 1 1 1 1 1 1 1 1 1 1 1 1 1 1 1 1 1 1 1 1 1 1 1 1 1 1 1 1 1 1 1 1 1 1 1 1 1 1 1 1 1 1 1 1 1 1 1 1 1 1 1 1 1 1 1 1 1 1 1 1 1 1 1 1 1 1 1 1 1 1 1 1 1 1 1 1 1 1 1 1 1 1 1 1 1 1 1 1 1 1 1 1 1 1 1 1 1 1 1 1 1 1 1 1 1 1 1 1 1 1 1 1 1 1 1 1 1 1 1 1 1 1 1 1 1 1 1 1 1 1 1 1 1 1 1 1 1 1 1 1 1 1 1 1 1 1 1 1 1 1 1 1 1 1 1 1 1 1 1 1 1 1 1 1 1 1 1 1 1 1 1 1 1 1 1 1 1 1 1 1 1 1 1 1 1 1 1 1 1 1 1 1 1 1 1 1 1 1 1 1 1 1 1 1 1 1 1 1 1 1 1 1 1 1 1 1 1 1 1 1 1 1 1 1 1 1 1 1 1 1 1 1 1 1 1 1 1 1 1 1 1 1 1 1 1 1 1 1 1 1 1 1 1 1 1 1 1 1 1 1 1 1 1 1 1 1 1 1 1 1 1 1 1 1 1 1 1 1 1 1 1 1 1 1 1 1 1 1 1 1 1 1 1 1 1 1 1 1 1 1 1 1 1 1 1 1 1 1 1 1 1 1 1 1 1 1 1 1 1 1 1 1 1 1 1 1 1 1 1 1 1 1 1 1 1 1 1 1 1 1 1 1 1 1 1 1 1 1 1 1 1 1 1 1 1 1 1 1 1 1 1 1 1 1 1 1 1 1 1 1 1 1 1 1 1 1 1 1 1 1 1 1 1 1 1 1 1 1 1 1 1 1 1 1 1 1 1 1 1 1 1 1 1 1 1 1 1 1 1 1 1 1 1 1 1 1 1 1 1 1 1 1 1 1 1 1 1 1 1 1 1 1 1 1 1 1 1 1 1 1 1 1 1 1 1 1 1 1 1 1 1 1 1 1 1 1 1 1 1 1 1 1 1 1 1 1 1 1 1 1 1 1 1 1 1 1 1 1 1 1 1 1 1 1 1 1 1 1 1 1 1 1 1 1 1 1 1 1 1 1 1 1 1 1 1 1 1 1 1 1 1 1 1 1 1 1 1 1 1 1 1 1 1 1 1 1 1 1 1 1 1 1 1 1 1 1 1 1 1 1 1 1 1 1 1 1 1 1 1 1 1 1 1 1 1 1 1 1 1 1 1 1 1 1 1 1 1 1 1 1 1 1 1 1 1 1 1 1 1 1 1 1 1 1 1 1 1 1 1 1 1 1 1 1 1 1 1 1 1 1 1 1 1 1 1 1 1 1 1 1 1 1 1 1 1 1 1 1 1 1 1 1 1 1 1 1 1 1 1 1 1 1 1 1 1 1 1 1 1 1 1 1 1 1 1 1 1 1 1 1 1 1 1 1 1 1 1 1 1 1 1 1 1 1 1 1 1 1 1 1 1 1 1 1 1 1 1 1 1 1 1 1 1 1 1 1 1 1 1 1 1 1 1 1 1 1 1 1 1 1 1 1 1 1 1 1 1 1 1 1 1 1 1 1 1 1 1 1 1 1 1 1 1 1 1 1 1 1 1 1 1 1 1 1 1 1 1 1 1 1 1 1 1 1 1 1 1 1 1 1 1 1 1 1 1 1 1 1 1 1 1 1 1 1 1 1 1 1 1 1 1 1 1 1 1 1 1 1 1 1 1 1 1 1 1 1 1 1 1 1 1 1 1 1 1 1 1 1 1 1 1 1 1 1 1 1
				</DataArray>
				<DataArray Name="F2" type="Float32" format="ascii">
 0 0 0 0 0 0 0 0 0 0 0 0 0 0 0 0 0 0 0 0 0 0 0 0 0 0 0 0 0 0 0 0 0 0 0 0 0 0 0 0 0 0 0 0 0 0 0 0 0 0 0 0 0 0 0 0 0 0 0 0 0 0 0 0 0 0 0 0 0 0 0 0 0 0 0 0 0 0 0 0 0 0 0 0 0 0 0 0 0 0 0 0 0 0 0 0 0 0 0 0 0 0 0 0 0 0 0 0 0 0 0 0 0 0 0 0 0 0 0 0 0 0 0 0 0 0 0 0 0 0 0 0 0 0 0 0 0 0 0 0 0 0 0 0 0 0 0 0 0 0 0 0 0 0 0 0 0 0 0 0 0 0 0 0 0 0 0 0 0 0 0 0 0 0 0 0 0 0 0 0 0 0 0 0 0 0 0 0 0 0 0 0 0 0 0 0 0 0 0 0 0 0 0 0 0 0 0 0 0 0 0 0 0 0 0 0 0 0 0 0 0 0 0 0 0 0 0 0 0 0 0 0 0 0 0 0 0 0 0 0 0 0 0 0 0 0 0 0 0 0 0 0 0 0 0 0 0 0 0 0 0 0 0 0 0 0 0 0 0 0 0 0 0 0 0 0 0 0 0 0 0 0 0 0 0 0 0 0 0 0 0 0 0 0 0 0 0 0 0 0 0 0 0 0 0 0 0 0 0 0 0 0 0 0 0 0 0 0 0 0 0 0 0 0 0 0 0 0 0 0 0 0 0 0 0 0 0 0 0 0 0 0 0 0 0 0 0 0 0 0 0 0 0 0 0 0 0 0 0 0 0 0 0 0 0 0 0 0 0 0 0 0 0 0 0 0 0 0 0 0 0 0 0 0 0 0 0 0 0 0 0 0 0 0 0 0 0 0 0 0 0 0 0 0 0 0 0 0 0 0 0 0 0 0 0 0 0 0 0 0 0 0 0 0 0 0 0 0 0 0 0 0 0 0 0 0 0 0 0 0 0 0 0 0 0 0 0 0 0 0 0 0 0 0 0 0 0 0 0 0 0 0 0 0 0 0 0 0 0 0 0 0 0 0 0 0 0 0 0 0 0 0 0 0 0 0 0 0 0 0 0 0 0 0 0 0 0 0 0 0 0 0 0 0 0 0 0 0 0 0 0 0 0 0 0 0 0 0 0 0 0 0 0 0 0 0 0 0 0 0 0 0 0 0 0 0 0 0 0 0 0 0 0 0 0 0 0 0 0 0 0 0 0 0 0 0 0 0 0 0 0 0 0 0 0 0 0 0 0 0 0 0 0 0 0 0 0 0 0 0 0 0 0 0 0 0 0 0 0 0 0 0 0 0 0 0 0 0 0 0 0 0 0 0 0 0 0 0 0 0 0 0 0 0 0 0 0 0 0 0 0 0 0 0 0 0 0 0 0 0 0 0 0 0 0 0 0 0 0 0 0 0 0 0 0 0 0 0 0 0 0 0 0 0 0 0 0 0 0 0 0 0 0 0 0 0 0 0 0 0 0 0 0 0 0 0 0 0 0 0 0 0 0 0 0 0 0 0 0 0 0 0 0 0 0 0 0 0 0 0 0 0 0 0 0 0 0 0 0 0 0 0 0 0 0 0 0 0 0 0 0 0 0 0 0 0 0 0 0 0 0 0 0 0 0 0 0 0 0 0 0 0 0 0 0 0 0 0 0 0 0 0 0 0 0 0 0 0 0 0 0 0 0 0 0 0 0 0 0 0 0 0 0 0 0 0 0 0 0 0 0 0 0 0 0 0 0 0 0 0 0 0 0 0 0 0 0 0 0 0 0 0 0 0 0 0 0 0 0 0 0 0 0 0 0 0 0 0 0 0 0 0 0 0 0 0 0 0 0 0 0 0 0 0 0 0 0 0 0 0 0 0 0 0 0 0 0 0 0 0 0 0 0 0 0 0 0 0 0 0 0 0 0 0 0 0 0 0 0 0 0 0 0 0 0 0 0 0 0 0 0 0 0 0 0 0 0 0 0 0 0 0 0 0 0 0 0 0 0 0
				</DataArray>
				<DataArray Name="F3" type="Float32" format="ascii">