<?xml version="1.0"?>
<VTKFile type="PolyData">
	<PolyData>
		<Piece NumberOfPoints="961" NumberOfPolys="900">
			<Points>
				<DataArray type="Float32" NumberOfComponents="3" format="ascii">
 0 0 0 0.04 0 0 0.08 0 0 0.12 0 0 0.16 0 0 0.2 0 0 0.24 0 0 0.28 0 0 0.32 0 0 0.36 0 0 0.4 0 0 0.44 0 0 0.48 0 0 0.52 0 0 0.56 0 0 0.6 0 0 0.64 0 0 0.68 0 0 0.72 0 0 0.76 0 0 0.8 0 0 0.84 0 0 0.88 0 0 0.92 0 0 0.96 0 0 1 0 0 1.04 0 0 1.08 0 0 1.12 0 0 1.16 0 0 1.2 0 0 0 0.04 0 0.04 0.04 0 0.08 0.04 0 0.12 0.04 0 0.16 0.04 0 0.2 0.04 0 0.24 0.04 0 0.28 0.04 0 0.32 0.04 0 0.36 0.04 0 0.4 0.04 0 0.44 0.04 0 0.48 0.04 0 0.52 0.04 0 0.56 0.04 0 0.6 0.04 0 0.64 0.04 0 0.68 0.04 0 0.72 0.04 0 0.76 0.04 0 0.8 0.04 0 0.84 0.04 0 0.88 0.04 0 0.92 0.04 0 0.96 0.04 0 1 0.04 0 1.04 0.04 0 1.08 0.04 0 1.12 0.04 0 1.16 0.04 0 1.2 0.04 0 0 0.08 0 0.04 0.08 0 0.08 0.08 0 0.12 0.08 0 0.16 0.08 0 0.2 0.08 0 0.24 0.08 0 0.28 0.08 0 0.32 0.08 0 0.36 0.08 0 0.4 0.08 0 0.44 0.08 0 0.48 0.08 0 0.52 0.08 0 0.56 0.08 0 0.6 0.08 0 0.64 0.08 0 0.68 0.08 0 0.72 0.08 0 0.76 0.08 0 0.8 0.08 0 0.84 0.08 0 0.88 0.08 0 0.92 0.08 0 0.96 0.08 0 1 0.08 0 1.04 0.08 0 1.08 0.08 0 1.12 0.08 0 1.16 0.08 0 1.2 0.08 0 0 0.12 0 0.04 0.12 0 0.08 0.12 0 0.12 0.12 0 0.16 0.12 0 0.2 0.12 0 0.24 0.12 0 0.28 0.12 0 0.32 0.12 0 0.36 0.12 0 0.4 0.12 0 0.44 0.12 0 0.48 0.12 0 0.52 0.12 0 0.56 0.12 0 0.6 0.12 0 0.64 0.12 0 0.68 0.12 0 0.72 0.12 0 0.76 0.12 0 0.8 0.12 0 0.84 0.12 0 0.88 0.12 0 0.92 0.12 0 0.96 0.12 0 1 0.12 0 1.04 0.12 0 1.08 0.12 0 1.12 0.12 0 1.16 0.12 0 1.2 0.12 0 0 0.16 0 0.04 0.16 0 0.08 0.16 0 0.12 0.16 0 0.16 0.16 0 0.2 0.16 0 0.24 0.16 0 0.28 0.16 0 0.32 0.16 0 0.36 0.16 0 0.4 0.16 0 0.44 0.16 0 0.48 0.16 0 0.52 0.16 0 0.56 0.16 0 0.6 0.16 0 0.64 0.16 0 0.68 0.16 0 0.72 0.16 0 0.76 0.16 0 0.8 0.16 0 0.84 0.16 0 0.88 0.16 0 0.92 0.16 0 0.96 0.16 0 1 0.16 0 1.04 0.16 0 1.08 0.16 0 1.12 0.16 0 1.16 0.16 0 1.2 0.16 0 0 0.2 0 0.04 0.2 0 0.08 0.2 0 0.12 0.2 0 0.16 0.2 0 0.2 0.2 0 0.24 0.2 0 0.28 0.2 0 0.32 0.2 0 0.36 0.2 0 0.4 0.2 0 0.44 0.2 0 0.48 0.2 0 0.52 0.2 0 0.56 0.2 0 0.6 0.2 0 0.64 0.2 0 0.68 0.2 0 0.72 0.2 0 0.76 0.2 0 0.8 0.2 0 0.84 0.2 0 0.88 0.2 0 0.92 0.2 0 0.96 0.2 0 1 0.2 0 1.04 0.2 0 1.08 0.2 0 1.12 0.2 0 1.16 0.2 0 1.2 0.2 0 0 0.24 0 0.04 0.24 0 0.08 0.24 0 0.12 0.24 0 0.16 0.24 0 0.2 0.24 0 0.24 0.24 0 0.28 0.24 0 0.32 0.24 0 0.36 0.24 0 0.4 0.24 0 0.44 0.24 0 0.48 0.24 0 0.52 0.24 0 0.56 0.24 0 0.6 0.24 0 0.64 0.24 0 0.68 0.24 0 0.72 0.24 0 0.76 0.24 0 0.8 0.24 0 0.84 0.24 0 0.88 0.24 0 0.92 0.24 0 0.96 0.24 0 1 0.24 0 1.04 0.24 0 1.08 0.24 0 1.12 0.24 0 1.16 0.24 0 1.2 0.24 0 0 0.28 0 0.04 0.28 0 0.08 0.28 0 0.12 0.28 0 0.16 0.28 0 0.2 0.28 0 0.24 0.28 0 0.28 0.28 0 0.32 0.28 0 0.36 0.28 0 0.4 0.28 0 0.44 0.28 0 0.48 0.28 0 0.52 0.28 0 0.56 0.28 0 0.6 0.28 0 0.64 0.28 0 0.68 0.28 0 0.72 0.28 0 0.76 0.28 0 0.8 0.28 0 0.84 0.28 0 0.88 0.28 0 0.92 0.28 0 0.96 0.28 0 1 0.28 0 1.04 0.28 0 1.08 0.28 0 1.12 0.28 0 1.16 0.28 0 1.2 0.28 0 0 0.32 0 0.04 0.32 0 0.08 0.32 0 0.12 0.32 0 0.16 0.32 0 0.2 0.32 0 0.24 0.32 0 0.28 0.32 0 0.32 0.32 0 0.36 0.32 0 0.4 0.32 0 0.44 0.32 0 0.48 0.32 0 0.52 0.32 0 0.56 0.32 0 0.6 0.32 0 0.64 0.32 0 0.68 0.32 0 0.72 0.32 0 0.76 0.32 0 0.8 0.32 0 0.84 0.32 0 0.88 0.32 0 0.92 0.32 0 0.96 0.32 0 1 0.32 0 1.04 0.32 0 1.08 0.32 0 1.12 0.32 0 1.16 0.32 0 1.2 0.32 0 0 0.36 0 0.04 0.36 0 0.08 0.36 0 0.12 0.36 0 0.16 0.36 0 0.2 0.36 0 0.24 0.36 0 0.28 0.36 0 0.32 0.36 0 0.36 0.36 0 0.4 0.36 0 0.44 0.36 0 0.48 0.36 0 0.52 0.36 0 0.56 0.36 0 0.6 0.36 0 0.64 0.36 0 0.68 0.36 0 0.72 0.36 0 0.76 0.36 0 0.8 0.36 0 0.84 0.36 0 0.88 0.36 0 0.92 0.36 0 0.96 0.36 0 1 0.36 0 1.04 0.36 0 1.08 0.36 0 1.12 0.36 0 1.16 0.36 0 1.2 0.36 0 0 0.4 0 0.04 0.4 0 0.08 0.4 0 0.12 0.4 0 0.16 0.4 0 0.2 0.4 0 0.24 0.4 0 0.28 0.4 0 0.32 0.4 0 0.36 0.4 0 0.4 0.4 0 0.44 0.4 0 0.48 0.4 0 0.52 0.4 0 0.56 0.4 0 0.6 0.4 0 0.64 0.4 0 0.68 0.4 0 0.72 0.4 0 0.76 0.4 0 0.8 0.4 0 0.84 0.4 0 0.88 0.4 0 0.92 0.4 0 0.96 0.4 0 1 0.4 0 1.04 0.4 0 1.08 0.4 0 1.12 0.4 0 1.16 0.4 0 1.2 0.4 0 0 0.44 0 0.04 0.44 0 0.08 0.44 0 0.12 0.44 0 0.16 0.44 0 0.2 0.44 0 0.24 0.44 0 0.28 0.44 0 0.32 0.44 0 0.36 0.44 0 0.4 0.44 0 0.44 0.44 0 0.48 0.44 0 0.52 0.44 0 0.56 0.44 0 0.6 0.44 0 0.64 0.44 0 0.68 0.44 0 0.72 0.44 0 0.76 0.44 0 0.8 0.44 0 0.84 0.44 0 0.88 0.44 0 0.92 0.44 0 0.96 0.44 0 1 0.44 0 1.04 0.44 0 1.08 0.44 0 1.12 0.44 0 1.16 0.44 0 1.2 0.44 0 0 0.48 0 0.04 0.48 0 0.08 0.48 0 0.12 0.48 0 0.16 0.48 0 0.2 0.48 0 0.24 0.48 0 0.28 0.48 0 0.32 0.48 0 0.36 0.48 0 0.4 0.48 0 0.44 0.48 0 0.48 0.48 0 0.52 0.48 0 0.56 0.48 0 0.6 0.48 0 0.64 0.48 0 0.68 0.48 0 0.72 0.48 0 0.76 0.48 0 0.8 0.48 0 0.84 0.48 0 0.88 0.48 0 0.92 0.48 0 0.96 0.48 0 1 0.48 0 1.04 0.48 0 1.08 0.48 0 1.12 0.48 0 1.16 0.48 0 1.2 0.48 0 0 0.52 0 0.04 0.52 0 0.08 0.52 0 0.12 0.52 0 0.16 0.52 0 0.2 0.52 0 0.24 0.52 0 0.28 0.52 0 0.32 0.52 0 0.36 0.52 0 0.4 0.52 0 0.44 0.52 0 0.48 0.52 0 0.52 0.52 0 0.56 0.52 0 0.6 0.52 0 0.64 0.52 0 0.68 0.52 0 0.72 0.52 0 0.76 0.52 0 0.8 0.52 0 0.84 0.52 0 0.88 0.52 0 0.92 0.52 0 0.96 0.52 0 1 0.52 0 1.04 0.52 0 1.08 0.52 0 1.12 0.52 0 1.16 0.52 0 1.2 0.52 0 0 0.56 0 0.04 0.56 0 0.08 0.56 0 0.12 0.56 0 0.16 0.56 0 0.2 0.56 0 0.24 0.56 0 0.28 0.56 0 0.32 0.56 0 0.36 0.56 0 0.4 0.56 0 0.44 0.56 0 0.48 0.56 0 0.52 0.56 0 0.56 0.56 0 0.6 0.56 0 0.64 0.56 0 0.68 0.56 0 0.72 0.56 0 0.76 0.56 0 0.8 0.56 0 0.84 0.56 0 0.88 0.56 0 0.92 0.56 0 0.96 0.56 0 1 0.56 0 1.04 0.56 0 1.08 0.56 0 1.12 0.56 0 1.16 0.56 0 1.2 0.56 0 0 0.6 0 0.04 0.6 0 0.08 0.6 0 0.12 0.6 0 0.16 0.6 0 0.2 0.6 0 0.24 0.6 0 0.28 0.6 0 0.32 0.6 0 0.36 0.6 0 0.4 0.6 0 0.44 0.6 0 0.48 0.6 0 0.52 0.6 0 0.56 0.6 0 0.6 0.6 0 0.64 0.6 0 0.68 0.6 0 0.72 0.6 0 0.76 0.6 0 0.8 0.6 0 0.84 0.6 0 0.88 0.6 0 0.92 0.6 0 0.96 0.6 0 1 0.6 0 1.04 0.6 0 1.08 0.6 0 1.12 0.6 0 1.16 0.6 0 1.2 0.6 0 0 0.64 0 0.04 0.64 0 0.08 0.64 0 0.12 0.64 0 0.16 0.64 0 0.2 0.64 0 0.24 0.64 0 0.28 0.64 0 0.32 0.64 0 0.36 0.64 0 0.4 0.64 0 0.44 0.64 0 0.48 0.64 0 0.52 0.64 0 0.56 0.64 0 0.6 0.64 0 0.64 0.64 0 0.68 0.64 0 0.72 0.64 0 0.76 0.64 0 0.8 0.64 0 0.84 0.64 0 0.88 0.64 0 0.92 0.64 0 0.96 0.64 0 1 0.64 0 1.04 0.64 0 1.08 0.64 0 1.12 0.64 0 1.16 0.64 0 1.2 0.64 0 0 0.68 0 0.04 0.68 0 0.08 0.68 0 0.12 0.68 0 0.16 0.68 0 0.2 0.68 0 0.24 0.68 0 0.28 0.68 0 0.32 0.68 0 0.36 0.68 0 0.4 0.68 0 0.44 0.68 0 0.48 0.68 0 0.52 0.68 0 0.56 0.68 0 0.6 0.68 0 0.64 0.68 0 0.68 0.68 0 0.72 0.68 0 0.76 0.68 0 0.8 0.68 0 0.84 0.68 0 0.88 0.68 0 0.92 0.68 0 0.96 0.68 0 1 0.68 0 1.04 0.68 0 1.08 0.68 0 1.12 0.68 0 1.16 0.68 0 1.2 0.68 0 0 0.72 0 0.04 0.72 0 0.08 0.72 0 0.12 0.72 0 0.16 0.72 0 0.2 0.72 0 0.24 0.72 0 0.28 0.72 0 0.32 0.72 0 0.36 0.72 0 0.4 0.72 0 0.44 0.72 0 0.48 0.72 0 0.52 0.72 0 0.56 0.72 0 0.6 0.72 0 0.64 0.72 0 0.68 0.72 0 0.72 0.72 0 0.76 0.72 0 0.8 0.72 0 0.84 0.72 0 0.88 0.72 0 0.92 0.72 0 0.96 0.72 0 1 0.72 0 1.04 0.72 0 1.08 0.72 0 1.12 0.72 0 1.16 0.72 0 1.2 0.72 0 0 0.76 0 0.04 0.76 0 0.08 0.76 0 0.12 0.76 0 0.16 0.76 0 0.2 0.76 0 0.24 0.76 0 0.28 0.76 0 0.32 0.76 0 0.36 0.76 0 0.4 0.76 0 0.44 0.76 0 0.48 0.76 0 0.52 0.76 0 0.56 0.76 0 0.6 0.76 0 0.64 0.76 0 0.68 0.76 0 0.72 0.76 0 0.76 0.76 0 0.8 0.76 0 0.84 0.76 0 0.88 0.76 0 0.92 0.76 0 0.96 0.76 0 1 0.76 0 1.04 0.76 0 1.08 0.76 0 1.12 0.76 0 1.16 0.76 0 1.2 0.76 0 0 0.8 0 0.04 0.8 0 0.08 0.8 0 0.12 0.8 0 0.16 0.8 0 0.2 0.8 0 0.24 0.8 0 0.28 0.8 0 0.32 0.8 0 0.36 0.8 0 0.4 0.8 0 0.44 0.8 0 0.48 0.8 0 0.52 0.8 0 0.56 0.8 0 0.6 0.8 0 0.64 0.8 0 0.68 0.8 0 0.72 0.8 0 0.76 0.8 0 0.8 0.8 0 0.84 0.8 0 0.88 0.8 0 0.92 0.8 0 0.96 0.8 0 1 0.8 0 1.04 0.8 0 1.08 0.8 0 1.12 0.8 0 1.16 0.8 0 1.2 0.8 0 0 0.84 0 0.04 0.84 0 0.08 0.84 0 0.12 0.84 0 0.16 0.84 0 0.2 0.84 0 0.24 0.84 0 0.28 0.84 0 0.32 0.84 0 0.36 0.84 0 0.4 0.84 0 0.44 0.84 0 0.48 0.84 0 0.52 0.84 0 0.56 0.84 0 0.6 0.84 0 0.64 0.84 0 0.68 0.84 0 0.72 0.84 0 0.76 0.84 0 0.8 0.84 0 0.84 0.84 0 0.88 0.84 0 0.92 0.84 0 0.96 0.84 0 1 0.84 0 1.04 0.84 0 1.08 0.84 0 1.12 0.84 0 1.16 0.84 0 1.2 0.84 0 0 0.88 0 0.04 0.88 0 0.08 0.88 0 0.12 0.88 0 0.16 0.88 0 0.2 0.88 0 0.24 0.88 0 0.28 0.88 0 0.32 0.88 0 0.36 0.88 0 0.4 0.88 0 0.44 0.88 0 0.48 0.88 0 0.52 0.88 0 0.56 0.88 0 0.6 0.88 0 0.64 0.88 0 0.68 0.88 0 0.72 0.88 0 0.76 0.88 0 0.8 0.88 0 0.84 0.88 0 0.88 0.88 0 0.92 0.88 0 0.96 0.88 0 1 0.88 0 1.04 0.88 0 1.08 0.88 0 1.12 0.88 0 1.16 0.88 0 1.2 0.88 0 0 0.92 0 0.04 0.92 0 0.08 0.92 0 0.12 0.92 0 0.16 0.92 0 0.2 0.92 0 0.24 0.92 0 0.28 0.92 0 0.32 0.92 0 0.36 0.92 0 0.4 0.92 0 0.44 0.92 0 0.48 0.92 0 0.52 0.92 0 0.56 0.92 0 0.6 0.92 0 0.64 0.92 0 0.68 0.92 0 0.72 0.92 0 0.76 0.92 0 0.8 0.92 0 0.84 0.92 0 0.88 0.92 0 0.92 0.92 0 0.96 0.92 0 1 0.92 0 1.04 0.92 0 1.08 0.92 0 1.12 0.92 0 1.16 0.92 0 1.2 0.92 0 0 0.96 0 0.04 0.96 0 0.08 0.96 0 0.12 0.96 0 0.16 0.96 0 0.2 0.96 0 0.24 0.96 0 0.28 0.96 0 0.32 0.96 0 0.36 0.96 0 0.4 0.96 0 0.44 0.96 0 0.48 0.96 0 0.52 0.96 0 0.56 0.96 0 0.6 0.96 0 0.64 0.96 0 0.68 0.96 0 0.72 0.96 0 0.76 0.96 0 0.8 0.96 0 0.84 0.96 0 0.88 0.96 0 0.92 0.96 0 0.96 0.96 0 1 0.96 0 1.04 0.96 0 1.08 0.96 0 1.12 0.96 0 1.16 0.96 0 1.2 0.96 0 0 1 0 0.04 1 0 0.08 1 0 0.12 1 0 0.16 1 0 0.2 1 0 0.24 1 0 0.28 1 0 0.32 1 0 0.36 1 0 0.4 1 0 0.44 1 0 0.48 1 0 0.52 1 0 0.56 1 0 0.6 1 0 0.64 1 0 0.68 1 0 0.72 1 0 0.76 1 0 0.8 1 0 0.84 1 0 0.88 1 0 0.92 1 0 0.96 1 0 1 1 0 1.04 1 0 1.08 1 0 1.12 1 0 1.16 1 0 1.2 1 0 0 1.04 0 0.04 1.04 0 0.08 1.04 0 0.12 1.04 0 0.16 1.04 0 0.2 1.04 0 0.24 1.04 0 0.28 1.04 0 0.32 1.04 0 0.36 1.04 0 0.4 1.04 0 0.44 1.04 0 0.48 1.04 0 0.52 1.04 0 0.56 1.04 0 0.6 1.04 0 0.64 1.04 0 0.68 1.04 0 0.72 1.04 0 0.76 1.04 0 0.8 1.04 0 0.84 1.04 0 0.88 1.04 0 0.92 1.04 0 0.96 1.04 0 1 1.04 0 1.04 1.04 0 1.08 1.04 0 1.12 1.04 0 1.16 1.04 0 1.2 1.04 0 0 1.08 0 0.04 1.08 0 0.08 1.08 0 0.12 1.08 0 0.16 1.08 0 0.2 1.08 0 0.24 1.08 0 0.28 1.08 0 0.32 1.08 0 0.36 1.08 0 0.4 1.08 0 0.44 1.08 0 0.48 1.08 0 0.52 1.08 0 0.56 1.08 0 0.6 1.08 0 0.64 1.08 0 0.68 1.08 0 0.72 1.08 0 0.76 1.08 0 0.8 1.08 0 0.84 1.08 0 0.88 1.08 0 0.92 1.08 0 0.96 1.08 0 1 1.08 0 1.04 1.08 0 1.08 1.08 0 1.12 1.08 0 1.16 1.08 0 1.2 1.08 0 0 1.12 0 
[...]
			<CellData Scalars="Density">
				<DataArray Name="Density" type="Float32" format="ascii">
 0.0051022 0.00521052 0.00548344 0.00602307 0.00694114 0.00837525 0.0105043 0.013559 0.0178448 0.0237109 0.0315358 0.0416268 0.0536091 0.0657158 0.0761385 0.0900294 0.111862 0.142217 0.186034 0.247238 0.330737 0.44119 0.583344 0.760617 0.982032 1.2666 1.58289 1.84498 2.04958 2.1573 0.00521052 0.00529256 0.00551422 0.00597818 0.0067731 0.00806649 0.0100523 0.0129644 0.0171394 0.0230305 0.0311467 0.0417876 0.0546287 0.0676112 0.0791601 0.0933209 0.115415 0.145938 0.189495 0.250259 0.334085 0.447529 0.595809 0.780299 1.00721 1.29418 1.60935 1.87302 2.07364 2.15847 0.0054832 0.00551393 0.005636 0.00597417 0.0066201 0.00765481 0.0093331 0.0119603 0.015907 0.0215801 0.029439 0.0397931 0.0522323 0.0650223 0.0768505 0.0899763 0.110466 0.138772 0.180051 0.238014 0.318403 0.427481 0.57009 0.75138 0.978721 1.26764 1.59483 1.87145 2.08748 2.20181 0.00602204 0.00597684 0.00597343 0.00617403 0.00666334 0.00757322 0.00904176 0.0114157 0.0150918 0.0205115 0.0281256 0.038231 0.0506783 0.0646702 0.0784238 0.0931941 0.115109 0.144266 0.186107 0.244844 0.32559 0.434911 0.57812 0.759747 0.98708 1.27769 1.61041 1.89045 2.10206 2.19436 0.00693845 0.00676972 0.00661761 0.00666137 0.0069738 0.00766688 0.00900219 0.0112047 0.0147956 0.020174 0.0278007 0.0379998 0.0507075 0.0651918 0.0807372 0.0967157 0.118228 0.14725 0.187962 0.245798 0.325163 0.432701 0.57447 0.75503 0.980428 1.26875 1.59704 1.8728 2.08427 2.18871 0.00836968 0.00805989 0.00764945 0.00756784 0.00766399 0.00802703 0.00898687 0.010884 0.01407 0.0193022 0.026892 0.0371068 0.0500353 0.0655201 0.0831165 0.100365 0.121457 0.150552 0.190405 0.247581 0.325887 0.431942 0.571947 0.751339 0.976981 1.26562 1.59264 1.86553 2.07086 2.16901 0.0104946 0.0100414 0.00932347 0.00903217 0.00899441 0.00898049 0.00936564 0.0106799 0.0132162 0.0175667 0.0244735 0.0342652 0.0471539 0.0632574 0.0820006 0.102306 0.12439 0.153156 0.192614 0.249658 0.32731 0.432078 0.570297 0.746867 0.970528 1.25758 1.57858 1.84314 2.04011 2.13664 0.0135444 0.0129487 0.0119457 0.0114001 0.011192 0.0108728 0.0106753 0.0111428 0.0127972 0.0161505 0.0218586 0.030647 0.0428437 0.0587897 0.0787691 0.101982 0.125506 0.153274 0.191906 0.246874 0.323095 0.42559 0.560257 0.732799 0.951271 1.23308 1.56014 1.83406 2.0371 2.13463 0.0178257 0.0171175 0.0158862 0.0150692 0.0147781 0.0140476 0.0132075 0.0127916 0.0132065 0.0153897 0.0197005 0.0269869 0.0379584 0.0533407 0.0735958 0.098309 0.125345 0.154214 0.191325 0.243267 0.316975 0.416366 0.547341 0.716025 0.932129 1.21324 1.55812 1.85407 2.07174 2.175 0.0236911 0.0230003 0.0215512 0.0204847 0.0201545 0.0192646 0.0175586 0.0161394 0.0153735 0.0157773 0.018556 0.0241027 0.0334241 0.0474018 0.0667929 0.0923176 0.122379 0.153347 0.188204 0.237521 0.307967 0.403854 0.531684 0.696851 0.910741 1.19254 1.56262 1.89853 2.14683 2.26316 0.0315127 0.0311104 0.0293996 0.0280958 0.0277785 0.0268354 0.0244693 0.0218476 0.0196754 0.0185453 0.0190768 0.0227127 0.030071 0.042176 0.0602346 0.0851522 0.116228 0.150319 0.185831 0.231853 0.298213 0.390798 0.514785 0.678894 0.892807 1.1786 1.57294 1.969 2.26373 2.39574 0.0416024 0.041747 0.0397462 0.0382058 0.0379718 0.0370456 0.0342657 0.0306476 0.0269519 0.0240739 0.0226924 0.0234955 0.028358 0.0381999 0.0541804 0.0779166 0.10916 0.145896 0.183256 0.22598 0.288692 0.377472 0.496488 0.658005 0.873356 1.16323 1.57684 2.0502 2.41031 2.57115 0.053593 0.0545995 0.0522056 0.0506577 0.0506881 0.049986 0.0471454 0.0428571 0.0379196 0.033382 0.030038 0.0283555 0.0297102 0.0363704 0.0495701 0.0712782 0.101762 0.139654 0.18038 0.222595 0.279699 0.364524 0.48075 0.637768 0.854408 1.15304 1.58339 2.13084 2.57019 2.77012 0.0657152 0.0676025 0.0649998 0.0646547 0.0652122 0.0654737 0.0632746 0.0588152 0.0533201 0.0473598 0.0421158 0.0381944 0.0363643 0.0387868 0.0481864 0.0662041 0.0954403 0.133766 0.178102 0.223003 0.274095 0.354324 0.467953 0.622465 0.838006 1.14398 1.59151 2.20878 2.73892 2.9962 0.0761757 0.079186 0.0768946 0.0784445 0.0807125 0.0830856 0.0820708 0.0787075 0.073599 0.0667543 0.0601667 0.0541889 0.0495246 0.0481596 0.0525957 0.0660471 0.09125 0.129623 0.175946 0.224485 0.27654 0.350896 0.461985 0.615956 0.832095 1.14268 1.60709 2.29538 2.92983 3.25699 0.0900619 0.0933495 0.0899905 0.0931681 0.0967466 0.100458 0.102342 0.101916 0.0983312 0.0923029 0.0851433 0.077896 0.0711129 0.0661064 0.0659696 0.0738204 0.0937874 0.129219 0.176687 0.229443 0.283903 0.352081 0.462447 0.616327 0.83534 1.15336 1.63239 2.37567 3.13241 3.55122 0.111904 0.115447 0.110504 0.115171 0.118278 0.121457 0.124352 0.125608 0.125512 0.122512 0.116277 0.109115 0.101732 0.0953751 0.0909923 0.0936677 0.107574 0.13781 0.184988 0.241189 0.299973 0.364473 0.472506 0.627587 0.850477 1.18033 1.67456 2.45857 3.34718 3.8814 0.142269 0.145979 0.138817 0.144285 0.147255 0.15059 0.153276 0.153298 0.154095 0.153382 0.150625 0.146108 0.139707 0.133514 0.129507 0.12898 0.137551 0.162206 0.207514 0.264367 0.327799 0.394932 0.497424 0.655384 0.882397 1.22133 1.72836 2.54486 3.57019 4.24768 0.186095 0.189545 0.180101 0.186122 0.187978 0.190423 0.19261 0.191856 0.191548 0.188533 0.185753 0.183249 0.180763 0.178321 0.175927 0.176282 0.184443 0.207119 0.249917 0.307579 0.37201 0.444941 0.541546 0.700164 0.932764 1.27916 1.79372 2.63144 3.79434 4.64433 0.24732 0.250327 0.238084 0.244871 0.245815 0.247593 0.249649 0.246883 0.243343 0.237492 0.232126 0.226541 0.222562 0.222886 0.224604 0.229364 0.240676 0.263588 0.306875 0.370424 0.432571 0.500151 0.597493 0.768579 1.01168 1.36406 1.87907 2.71849 4.01067 5.07884 0.330852 0.334178 0.318494 0.325635 0.325199 0.325904 0.327312 0.323082 0.316976 0.307992 0.298376 0.288649 0.27997 0.274682 0.276659 0.283773 0.299788 0.327495 0.371457 0.432257 0.495845 0.555481 0.632668 0.804302 1.07558 1.46575 2.00457 2.83321 4.21974 5.55615 0.441344 0.447663 0.427617 0.434995 0.432777 0.431987 0.432111 0.425588 0.416352 0.40385 0.390876 0.377443 0.364515 0.35429 0.35103 0.352482 0.36444 0.394602 0.443888 0.499623 0.555183 0.61779 0.674335 0.819919 1.08955 1.50383 2.1077 2.98496 4.43664 6.08956 0.583533 0.595973 0.570262 0.578227 0.574569 0.572043 0.570349 0.560278 0.547439 0.531729 0.514764 0.496571 0.480971 0.467911 0.461947 0.462662 0.472702 0.497316 0.541541 0.597489 0.632651 0.674283 0.719317 0.826872 1.07293 1.49621 2.14036 3.10853 4.65975 6.71174 0.760842 0.780504 0.751601 0.759897 0.75514 0.751469 0.74704 0.732859 0.716117 0.6971 0.678995 0.657856 0.637746 0.62274 0.616034 0.616249 0.627776 0.655635 0.700533 0.768429 0.804258 0.819692 0.826857 0.854194 1.02588 1.42009 2.10369 3.16382 4.83772 7.4386 0.98229 1.00745 0.978976 0.987287 0.980583 0.977126 0.970733 0.951431 0.932246 0.910839 0.892939 0.873587 0.854024 0.837826 0.832122 0.835617 0.850442 0.88236 0.932877 1.0114 1.07608 1.09008 1.07355 1.02604 1.07302 1.34418 1.96533 3.11209 4.91875 8.17328 1.26689 1.29445 1.26793 1.27795 1.26898 1.26582 1.25781 1.23332 1.21353 1.19281 1.17835 1.16341 1.15314 1.14374 1.14262 1.15336 1.18035 1.2208 1.27884 1.36454 1.46626 1.50485 1.49638 1.41988 1.34394 1.43191 1.88193 2.95072 4.94735 8.76369 1.58322 1.60968 1.59518 1.61071 1.59735 1.59294 1.57887 1.56042 1.55843 1.56292 1.57303 1.57654 1.5832 1.59154 1.60683 1.63196 1.67487 1.72805 1.7933 1.87952 2.00472 2.10849 2.14062 2.10469 1.96579 1.88212 2.05973 2.87726 4.95317 8.91454 1.84535 1.8734 1.87185 1.89083 1.87322 1.86595 1.84356 1.8344 1.85438 1.89869 1.96925 2.05016 2.13007 2.2087 2.29546 2.37475 2.4584 2.54436 2.6311 2.71858 2.83344 2.98562 3.10894 3.16429 3.11253 2.95073 2.87718 3.34322 5.06662 8.7478 2.04997 2.07405 2.08792 2.10248 2.08473 2.07136 2.04058 2.03758 2.07207 2.14689 2.26344 2.40987 2.5695 2.73827 2.92957 3.1315 3.34697 3.57041 3.79463 4.01102 4.22031 4.43705 4.66072 4.83807 4.91951 4.9478 4.95368 5.06692 5.62432 8.16702 2.15771 2.1589 2.20226 2.19481 2.18928 2.16955 2.13708 2.13518 2.17534 2.26356 2.39578 2.57066 2.76968 2.99537 3.25664 3.5509 3.88187 4.24811 4.64496 5.07951 5.55688 6.09031 6.71223 7.43881 8.17387 8.76413 8.91495 8.74807 8.16719 6.1694
				</DataArray>
				<DataArray Name="Energy" type="Float32" format="ascii">
 911.965 892.958 848.304 772.033 669.536 554.466 441.491 341.289 258.476 193.293 143.488 105.827 77.4263 56.2241 41.1118 30.6329 23.4772 18.1028 14.096 10.9829 8.56278 6.70395 5.30071 4.25388 3.48139 2.89663 2.47601 2.22671 2.09135 2.02675 892.958 879.038 843.517 777.702 686.093 575.541 461.278 357.044 269.018 198.969 145.371 105.421 76.0472 54.826 40.0454 29.8514 22.9007 17.7036 13.7516 10.6789 8.28483 6.44961 5.06847 4.04269 3.29572 2.75114 2.38831 2.17372 2.05519 1.98896 848.334 843.562 824.998 778.005 701.518 606.282 496.495 386.575 289.807 212.12 153.484 110.67 79.6654 57.6337 42.3406 31.7119 24.3441 18.8529 14.6894 11.4302 8.86262 6.87728 5.37602 4.27045 3.46559 2.86389 2.42985 2.17431 2.03788 1.97369 772.16 777.861 778.109 752.306 696.638 612.146 512.166 404.646 304.878 223.081 160.798 115.218 82.3669 58.76 42.5588 31.508 23.8904 18.4601 14.3713 11.2554 8.78882 6.8567 5.36669 4.24997 3.43273 2.82995 2.40741 2.1591 2.02478 1.95407 669.796 686.432 701.776 696.86 664.879 604.161 513.532 411.809 310.674 226.336 162.334 115.922 82.8258 59.2328 42.8152 31.691 23.957 18.5544 14.4524 11.3909 8.94284 7.00595 5.49769 4.35566 3.51241 2.88681 2.44338 2.18414 2.04632 1.97911 554.828 576.023 606.71 612.567 604.407 576.088 513.718 422.956 326.088 236.227 167.62 118.755 84.2661 60.2333 43.4855 32.1265 24.1812 18.6841 14.5477 11.507 9.07488 7.14222 5.62389 4.46104 3.5908 2.93972 2.48619 2.22283 2.08121 2.01006 441.882 461.781 497.017 512.698 513.955 514.104 491.775 430.13 346.119 258.814 183.858 128.635 90.4191 64.1755 45.9555 33.4768 24.9213 19.0219 14.7243 11.6255 9.19362 7.26849 5.75281 4.58255 3.70002 3.03374 2.56824 2.29627 2.14665 2.07076 341.65 357.476 387.036 405.186 412.272 423.372 430.342 410.878 356.322 280.556 205.258 144.225 100.558 70.5139 50.013 35.8341 26.3208 19.8312 15.2595 11.9754 9.48885 7.52242 5.97536 4.77986 3.86834 3.16991 2.66611 2.36759 2.19931 2.11136 258.77 269.367 290.163 305.302 311.047 326.613 346.329 356.504 343.733 293.313 227.293 163.797 114.226 79.4556 55.5781 39.2907 28.3008 20.995 16.0433 12.4568 9.88468 7.85514 6.2501 5.00212 4.04284 3.29817 2.74005 2.40836 2.2185 2.1197 193.504 199.215 212.377 223.34 226.552 236.693 258.956 280.738 293.64 284.584 240.486 183.354 130.849 90.9419 63.0743 44.1669 31.2467 22.7221 17.1223 13.1605 10.409 8.2736 6.59004 5.26541 4.23628 3.43152 2.80218 2.42253 2.20882 2.09996 143.61 145.539 153.655 160.944 162.486 167.952 183.924 205.369 227.574 240.634 233.077 194.85 146.479 103.682 72.0385 50.1205 35.1768 25.129 18.5803 14.1341 11.0485 8.76999 6.9774 5.55763 4.434 3.55219 2.85487 2.41089 2.17114 2.05199 105.899 105.53 110.777 115.314 116.007 118.97 128.65 144.219 164.041 183.578 195.047 188.589 156.588 116.339 81.9576 57.0931 39.8807 28.203 20.4511 15.3944 11.8546 9.39269 7.44993 5.90726 4.67935 3.69846 2.924 2.40351 2.13661 2.00914 77.4726 76.0978 79.727 82.4111 82.8699 84.3902 90.4179 100.551 114.356 131.032 146.656 156.607 150.618 124.249 92.0053 64.7425 45.1938 31.7296 22.6843 16.8371 12.8056 10.086 7.98583 6.30743 4.96151 3.8731 3.00926 2.41341 2.11993 1.98439 56.257 54.8632 57.6747 58.7913 59.2368 60.2862 64.1771 70.5039 79.469 91.0631 103.826 116.357 124.286 118.21 96.955 71.9836 50.782 35.645 25.2532 18.3792 13.892 10.8244 8.5778 6.75428 5.27622 4.07933 3.12705 2.44774 2.12164 1.97713 41.1323 40.0665 42.3453 42.562 42.839 43.52 45.9375 50.0186 55.6037 63.0952 72.1024 81.953 92.0751 97.0401 91.1183 74.4767 55.526 39.4068 27.9285 20.1086 15.0147 11.5525 9.14983 7.20962 5.61141 4.30759 3.27113 2.50681 2.13827 1.98123 30.6434 29.8613 31.7244 31.5334 31.701 32.1183 33.4613 35.878 39.2767 44.1562 50.1509 57.0706 64.8026 72.0581 74.5675 69.0094 56.339 42.2094 30.276 21.7797 16.121 12.2578 9.68169 7.6429 5.96209 4.55888 3.43013 2.59202 2.16878 1.99574 23.4811 22.9058 24.3476 23.893 23.9591 24.1892 24.9328 26.3177 28.2523 31.2464 35.152 39.8563 45.2528 50.8618 55.6313 56.4072 51.2871 41.8309 31.5539 23.0147 16.9552 12.8569 10.124 8.02016 6.27847 4.81071 3.60925 2.70395 2.21072 2.01511 18.1045 17.7063 18.8552 18.4668 18.5608 18.685 19.0173 19.832 21.0048 22.7321 25.07 28.189 31.7223 35.6708 39.4756 42.3069 41.899 37.4252 30.4413 23.2434 17.3844 13.1729 10.3617 8.27885 6.52997 5.03786 3.79664 2.83693 2.26202 2.03644 14.0964 13.7527 14.6904 14.3738 14.4542 14.55 14.7276 15.2621 16.0341 17.1058 18.5761 20.4592 22.6473 25.251 27.9537 30.3121 31.6328 30.4941 26.6879 21.6324 16.9022 13.0956 10.3456 8.36724 6.67832 5.21802 3.97453 2.98138 2.32209 2.05794 10.9831 10.6797 11.4307 11.2578 11.3931 11.5088 11.6272 11.978 12.4577 13.159 14.1262 15.3756 16.8294 18.3749 20.105 21.7848 23.0594 23.2931 21.6657 18.5371 15.1544 12.2049 9.87881 8.19502 6.71876 5.35207 4.13288 3.12546 2.38906 2.07769 8.56295 8.28528 8.86297 8.79033 8.94428 9.07667 9.19514 9.49086 9.88534 10.4082 11.0457 11.8471 12.795 13.8821 15.0024 16.1124 16.9658 17.404 16.9261 15.1686 12.7509 10.674 9.00528 7.71339 6.51859 5.35761 4.25429 3.26328 2.46486 2.09558 6.7042 6.45006 6.87772 6.85772 7.00723 7.1434 7.26946 7.52425 7.8561 8.2726 8.77019 9.38994 10.0816 10.8143 11.5448 12.2522 12.8511 13.1678 13.1102 12.216 10.6784 8.88499 7.62227 6.78401 6.06619 5.20251 4.25152 3.35689 2.55611 2.11242 5.30104 5.0689 5.37642 5.36737 5.49843 5.62481 5.75355 5.97634 6.25084 6.59023 6.97734 7.4493 7.98669 8.57622 9.14345 9.67503 10.1212 10.361 10.3428 9.88141 9.00408 7.62058 6.2541 5.54842 5.15004 4.76933 4.12691 3.36435 2.64448 2.12737 4.25435 4.04321 4.27087 4.25058 4.35621 4.46154 4.58307 4.78043 5.0026 5.26612 5.55855 5.90581 6.30849 6.75501 7.21027 7.64012 8.01557 8.27501 8.3585 8.19485 7.71288 6.78326 5.54899 4.62884 4.1332 3.95715 3.75974 3.27481 2.67676 2.13555 3.48195 3.29629 3.46603 3.43325 3.5129 3.59112 3.70029 3.86894 4.04297 4.23619 4.43489 4.67966 4.96162 5.27581 5.61226 5.96165 6.27686 6.52896 6.6767 6.71954 6.51522 6.0632 5.14819 4.13147 3.54738 3.17183 3.08794 2.96455 2.61457 2.11357 2.89717 2.75169 2.86433 2.83041 2.88721 2.94003 3.03391 3.17033 3.29843 3.43157 3.55239 3.69872 3.87408 4.07978 4.30795 4.55922 4.81159 5.03748 5.21813 5.35049 5.35651 5.20109 4.76737 3.95552 3.17097 2.77568 2.47397 2.42546 2.41447 2.03626 2.47648 2.38877 2.43024 2.40775 2.44366 2.48643 2.56834 2.66628 2.74025 2.80252 2.85529 2.92409 3.00983 3.12795 3.27172 3.43055 3.60994 3.7966 3.97454 4.13253 4.25514 4.25073 4.12577 3.75877 3.08687 2.47384 2.19452 1.95503 2.05409 1.87781 2.22713 2.17412 2.17466 2.15939 2.18436 2.22299 2.29634 2.36768 2.40848 2.42285 2.41142 2.4041 2.41385 2.44797 2.50734 2.59217 2.70451 2.83711 2.98126 3.12547 3.26321 3.35666 3.36396 3.27431 2.9638 2.42487 1.9548 1.74158 1.64498 1.59824 2.09173 2.05555 2.0382 2.02503 2.04649 2.08133 2.14673 2.19939 2.2186 2.20905 2.17144 2.13709 2.12046 2.12168 2.13837 2.1687 2.21072 2.26195 2.32194 2.38906 2.46487 2.55648 2.64452 2.67686 2.6144 2.41425 2.05395 1.64491 1.41219 1.22768 2.02712 1.9893 1.97399 1.9543 1.97928 2.01017 2.07081 2.11145 2.1198 2.1003 2.05246 2.00953 1.98486 1.97725 1.98137 1.99567 2.01505 2.03634 2.0579 2.07767 2.09564 2.11254 2.12746 2.13563 2.11365 2.03631 1.87782 1.59823 1.22768 0.708884
				</DataArray>
				<DataArray Name="F1" type="Float32" format="ascii">
 1 1 1 1 1 1 1 1 1 1 1 1 1 1 1 1 1 1 1 1 1 1 1 1 1 1 1 1 1 1 1 1 1 1 1 1 1 1 1 1 1 1 1 1 1 1 1 1 1 1 1 1 1 1 1 1 1 1 1 1 1 1 1 1 1 1 1 1 1 1 1 1 1 1 1 1 1 1 1 1 1 1 1 1 1 1 1 1 1 1 1 1 1 1 1 1 1 1 1 1 1 1 1 1 1 1 1 1 1 1 1 1 1 1 1 1 1 1 1 1 1 1 1 1 1 1 1 1 1 1 1 1 1 1 1 1 1 1 1 1 1 1 1 1 1 1 1 1 1 1 1 1 1 1 1 1 1 1 1 1 1 1 1 1 1 1 1 1 1 1 1 1 1 1 1 1 1 1 1 1 1 1 1 1 1 1 1 1 1 1 1 1 1 1 1 1 1 1 1 1 1 1 1 1 1 1 1 1 1 1 1 1 1 1 1 1 1 1 1 1 1 1 1 1 1 1 1 1 1 1 1 1 1 1 1 1 1 1 1 1 1 1 1 1 1 1 1 1 1 1 1 1 1 1 1 1 1 1 1 1 1 1 1 1 1 1 1 1 1 1 1 1 1 1 1 1 1 1 1 1 1 1 1 1 1 1 1 1 1 1 1 1 1 1 1 1 1 1 1 1 1 1 1 1 1 1 1 1 1 1 1 1 1 1 1 1 1 1 1 1 1 1 1 1 1 1 1 1 1 1 1 1 1 1 1 1 1 1 1 1 1 1 1 1 1 1 1 1 1 1 1 1 1 1 1 1 1 1 1 1 1 1 1 1 1 1 1 1 1 1 1 1 1 1 1 1 1 1 1 1 1 1 1 1 1 1 1 1 1 1 1 1 1 1 1 1 1 1 1 1 1 1 1 1 1 1 1 1 1 1 1 1 1 1 1 1 1 1 1 1 1 1 1 1 1 1 1 1 1 1 1 1 1 1 1 1 1 1 1 1 1 1 1 1 1 1 1 1 1 1 1 1 1 1 1 1 1 1 1 1 1 1 1 1 1 1 1 1 1 1 1 1 1 1 1 1 1 1 1 1 1 1 1 1 1 1 1 1 1 1 1 1 1 1 1 1 1 1 1 1 1 1 1 1 1 1 1 1 1 1 1 1 1 1 1 1 1 1 1 1 1 1 1 1 1 1 1 1 1 1 1 1 1 1 1 1 1 1 1 1 1 1 1 1 1 1 1 1 1 1 1 1 1 1 1 1 1 1 1 1 1 1 1 1 1 1 1 1 1 1 1 1 1 1 1 1 1 1 1 1 1 1 1 1 1 1 1 1 1 1 1 1 1 1 1 1 1 1 1 1 1 1 1 1 1 1 1 1 1 1 1 1 1 1 1 1 1 1 1 1 1 1 1 1 1 1 1 1 1 1 1 1 1 1 1 1 1 1 1 1 1 1 1 1 1 1 1 1 1 1 1 1 1 1 1 1 1 1 1 1 1 1 1 1 1 1 1 1 1 1 1 1 1 1 1 1 1 1 1 1 1 1 1 1 1 1 1 1 1 1 1 1 1 1 1 1 1 1 1 1 1 1 1 1 1 1 1 1 1 1 1 1 1 1 1 1 1 1 1 1 1 1 1 1 1 1 1 1 1 1 1 1 1 1 1 1 1 1 1 1 1 1 1 1 1 1 1 1 1 1 1 1 1 1 1 1 1 1 1 1 1 1 1 1 1 1 1 1 1 1 1 1 1 1 1 1 1 1 1 1 1 1 1 1 1 1 1 1 1 1 1 1 1 1 1 1 1 1 1 1 1 1 1 1 1 1 1 1 1 1 1 1 1 1 1 1 1 1 1 1 1 1 1 1 1 1 1 1 1 1 1 1 1 1 1 1 1 1 1 1 1 1 1 1 1 1 1 1 1 1 1 1 1 1 1 1 1 1 1 1 1 1 1 1 1 1 1 1 1 1 1 1 1 1 1 1 1 1 1 1 1 1 1 1 1 1 1 1 1 1 1 1 1 1 1 1 1 1 1 1
				</DataArray>
				<DataArray Name="F2" type="Float32" format="ascii">
 0 0 0 0 0 0 0 0 0 0 0 0 0 0 0 0 0 0 0 0 0 0 0 0 0 0 0 0 0 0 0 0 0 0 0 0 0 0 0 0 0 0 0 0 0 0 0 0 0 0 0 0 0 0 0 0 0 0 0 0 0 0 0 0 0 0 0 0 0 0 0 0 0 0 0 0 0 0 0 0 0 0 0 0 0 0 0 0 0 0 0 0 0 0 0 0 0 0 0 0 0 0 0 0 0 0 0 0 0 0 0 0 0 0 0 0 0 0 0 0 0 0 0 0 0 0 0 0 0 0 0 0 0 0 0 0 0 0 0 0 0 0 0 0 0 0 0 0 0 0 0 0 0 0 0 0 0 0 0 0 0 0 0 0 0 0 0 0 0 0 0 0 0 0 0 0 0 0 0 0 0 0 0 0 0 0 0 0 0 0 0 0 0 0 0 0 0 0 0 0 0 0 0 0 0 0 0 0 0 0 0 0 0 0 0 0 0 0 0 0 0 0 0 0 0 0 0 0 0 0 0 0 0 0 0 0 0 0 0 0 0 0 0 0 0 0 0 0 0 0 0 0 0 0 0 0 0 0 0 0 0 0 0 0 0 0 0 0 0 0 0 0 0 0 0 0 0 0 0 0 0 0 0 0 0 0 0 0 0 0 0 0 0 0 0 0 0 0 0 0 0 0 0 0 0 0 0 0 0 0 0 0 0 0 0 0 0 0 0 0 0 0 0 0 0 0 0 0 0 0 0 0 0 0 0 0 0 0 0 0 0 0 0 0 0 0 0 0 0 0 0 0 0 0 0 0 0 0 0 0 0 0 0 0 0 0 0 0 0 0 0 0 0 0 0 0 0 0 0 0 0 0 0 0 0 0 0 0 0 0 0 0 0 0 0 0 0 0 0 0 0 0 0 0 0 0 0 0 0 0 0 0 0 0 0 0 0 0 0 0 0 0 0 0 0 0 0 0 0 0 0 0 0 0 0 0 0 0 0 0 0 0 0 0 0 0 0 0 0 0 0 0 0 0 0 0 0 0 0 0 0 0 0 0 0 0 0 0 0 0 0 0 0 0 0 0 0 0 0 0 0 0 0 0 0 0 0 0 0 0 0 0 0 0 0 0 0 0 0 0 0 0 0 0 0 0 0 0 0 0 0 0 0 0 0 0 0 0 0 0 0 0 0 0 0 0 0 0 0 0 0 0 0 0 0 0 0 0 0 0 0 0 0 0 0 0 0 0 0 0 0 0 0 0 0 0 0 0 0 0 0 0 0 0 0 0 0 0 0 0 0 0 0 0 0 0 0 0 0 0 0 0 0 0 0 0 0 0 0 0 0 0 0 0 0 0 0 0 0 0 0 0 0 0 0 0 0 0 0 0 0 0 0 0 0 0 0 0 0 0 0 0 0 0 0 0 0 0 0 0 0 0 0 0 0 0 0 0 0 0 0 0 0 0 0 0 0 0 0 0 0 0 0 0 0 0 0 0 0 0 0 0 0 0 0 0 0 0 0 0 0 0 0 0 0 0 0 0 0 0 0 0 0 0 0 0 0 0 0 0 0 0 0 0 0 0 0 0 0 0 0 0 0 0 0 0 0 0 0 0 0 0 0 0 0 0 0 0 0 0 0 0 0 0 0 0 0 0 0 0 0 0 0 0 0 0 0 0 0 0 0 0 0 0 0 0 0 0 0 0 0 0 0 0 0 0 0 0 0 0 0 0 0 0 0 0 0 0 0 0 0 0 0 0 0 0 0 0 0 0 0 0 0 0 0 0 0 0 0 0 0 0 0 0 0 0 0 0 0 0 0 0 0 0 0 0 0 0 0 0 0 0 0 0 0 0 0 0 0 0 0 0 0 0 0 0 0 0 0 0 0 0 0 0 0 0 0 0 0 0 0 0 0 0 0 0 0 0 0 0 0 0 0 0 0 0 0 0 0 0 0 0 0 0 0 0 0 0 0 0 0 0 0 0 0 0 0 0 0 0 0 0 0 0 0 0 0 0 0 0 0 0 0 0 0 0 0 0 0 0
				</DataArray>
				<DataArray Name="F3" type="Float32" format="ascii">