<?xml version="1.0"?>
<VTKFile type="PolyData">
	<PolyData>
		<Piece NumberOfPoints="961" NumberOfPolys="900">
			<Points>
				<DataArray type="Float32" NumberOfComponents="3" format="ascii">
 0 0 0 0.04 0 0 0.08 0 0 0.12 0 0 0.16 0 0 0.2 0 0 0.24 0 0 0.28 0 0 0.32 0 0 0.36 0 0 0.4 0 0 0.44 0 0 0.48 0 0 0.52 0 0 0.56 0 0 0.6 0 0 0.64 0 0 0.68 0 0 0.72 0 0 0.76 0 0 0.8 0 0 0.84 0 0 0.88 0 0 0.92 0 0 0.96 0 0 1 0 0 1.04 0 0 1.08 0 0 1.12 0 0 1.16 0 0 1.2 0 0 0 0.04 0 0.04 0.04 0 0.08 0.04 0 0.12 0.04 0 0.16 0.04 0 0.2 0.04 0 0.24 0.04 0 0.28 0.04 0 0.32 0.04 0 0.36 0.04 0 0.4 0.04 0 0.44 0.04 0 0.48 0.04 0 0.52 0.04 0 0.56 0.04 0 0.6 0.04 0 0.64 0.04 0 0.68 0.04 0 0.72 0.04 0 0.76 0.04 0 0.8 0.04 0 0.84 0.04 0 0.88 0.04 0 0.92 0.04 0 0.96 0.04 0 1 0.04 0 1.04 0.04 0 1.08 0.04 0 1.12 0.04 0 1.16 0.04 0 1.2 0.04 0 0 0.08 0 0.04 0.08 0 0.08 0.08 0 0.12 0.08 0 0.16 0.08 0 0.2 0.08 0 0.24 0.08 0 0.28 0.08 0 0.32 0.08 0 0.36 0.08 0 0.4 0.08 0 0.44 0.08 0 0.48 0.08 0 0.52 0.08 0 0.56 0.08 0 0.6 0.08 0 0.64 0.08 0 0.68 0.08 0 0.72 0.08 0 0.76 0.08 0 0.8 0.08 0 0.84 0.08 0 0.88 0.08 0 0.92 0.08 0 0.96 0.08 0 1 0.08 0 1.04 0.08 0 1.08 0.08 0 1.12 0.08 0 1.16 0.08 0 1.2 0.08 0 0 0.12 0 0.04 0.12 0 0.08 0.12 0 0.12 0.12 0 0.16 0.12 0 0.2 0.12 0 0.24 0.12 0 0.28 0.12 0 0.32 0.12 0 0.36 0.12 0 0.4 0.12 0 0.44 0.12 0 0.48 0.12 0 0.52 0.12 0 0.56 0.12 0 0.6 0.12 0 0.64 0.12 0 0.68 0.12 0 0.72 0.12 0 0.76 0.12 0 0.8 0.12 0 0.84 0.12 0 0.88 0.12 0 0.92 0.12 0 0.96 0.12 0 1 0.12 0 1.04 0.12 0 1.08 0.12 0 1.12 0.12 0 1.16 0.12 0 1.2 0.12 0 0 0.16 0 0.04 0.16 0 0.08 0.16 0 0.12 0.16 0 0.16 0.16 0 0.2 0.16 0 0.24 0.16 0 0.28 0.16 0 0.32 0.16 0 0.36 0.16 0 0.4 0.16 0 0.44 0.16 0 0.48 0.16 0 0.52 0.16 0 0.56 0.16 0 0.6 0.16 0 0.64 0.16 0 0.68 0.16 0 0.72 0.16 0 0.76 0.16 0 0.8 0.16 0 0.84 0.16 0 0.88 0.16 0 0.92 0.16 0 0.96 0.16 0 1 0.16 0 1.04 0.16 0 1.08 0.16 0 1.12 0.16 0 1.16 0.16 0 1.2 0.16 0 0 0.2 0 0.04 0.2 0 0.08 0.2 0 0.12 0.2 0 0.16 0.2 0 0.2 0.2 0 0.24 0.2 0 0.28 0.2 0 0.32 0.2 0 0.36 0.2 0 0.4 0.2 0 0.44 0.2 0 0.48 0.2 0 0.52 0.2 0 0.56 0.2 0 0.6 0.2 0 0.64 0.2 0 0.68 0.2 0 0.72 0.2 0 0.76 0.2 0 0.8 0.2 0 0.84 0.2 0 0.88 0.2 0 0.92 0.2 0 0.96 0.2 0 1 0.2 0 1.04 0.2 0 1.08 0.2 0 1.12 0.2 0 1.16 0.2 0 1.2 0.2 0 0 0.24 0 0.04 0.24 0 0.08 0.24 0 0.12 0.24 0 0.16 0.24 0 0.2 0.24 0 0.24 0.24 0 0.28 0.24 0 0.32 0.24 0 0.36 0.24 0 0.4 0.24 0 0.44 0.24 0 0.48 0.24 0 0.52 0.24 0 0.56 0.24 0 0.6 0.24 0 0.64 0.24 0 0.68 0.24 0 0.72 0.24 0 0.76 0.24 0 0.8 0.24 0 0.84 0.24 0 0.88 0.24 0 0.92 0.24 0 0.96 0.24 0 1 0.24 0 1.04 0.24 0 1.08 0.24 0 1.12 0.24 0 1.16 0.24 0 1.2 0.24 0 0 0.28 0 0.04 0.28 0 0.08 0.28 0 0.12 0.28 0 0.16 0.28 0 0.2 0.28 0 0.24 0.28 0 0.28 0.28 0 0.32 0.28 0 0.36 0.28 0 0.4 0.28 0 0.44 0.28 0 0.48 0.28 0 0.52 0.28 0 0.56 0.28 0 0.6 0.28 0 0.64 0.28 0 0.68 0.28 0 0.72 0.28 0 0.76 0.28 0 0.8 0.28 0 0.84 0.28 0 0.88 0.28 0 0.92 0.28 0 0.96 0.28 0 1 0.28 0 1.04 0.28 0 1.08 0.28 0 1.12 0.28 0 1.16 0.28 0 1.2 0.28 0 0 0.32 0 0.04 0.32 0 0.08 0.32 0 0.12 0.32 0 0.16 0.32 0 0.2 0.32 0 0.24 0.32 0 0.28 0.32 0 0.32 0.32 0 0.36 0.32 0 0.4 0.32 0 0.44 0.32 0 0.48 0.32 0 0.52 0.32 0 0.56 0.32 0 0.6 0.32 0 0.64 0.32 0 0.68 0.32 0 0.72 0.32 0 0.76 0.32 0 0.8 0.32 0 0.84 0.32 0 0.88 0.32 0 0.92 0.32 0 0.96 0.32 0 1 0.32 0 1.04 0.32 0 1.08 0.32 0 1.12 0.32 0 1.16 0.32 0 1.2 0.32 0 0 0.36 0 0.04 0.36 0 0.08 0.36 0 0.12 0.36 0 0.16 0.36 0 0.2 0.36 0 0.24 0.36 0 0.28 0.36 0 0.32 0.36 0 0.36 0.36 0 0.4 0.36 0 0.44 0.36 0 0.48 0.36 0 0.52 0.36 0 0.56 0.36 0 0.6 0.36 0 0.64 0.36 0 0.68 0.36 0 0.72 0.36 0 0.76 0.36 0 0.8 0.36 0 0.84 0.36 0 0.88 0.36 0 0.92 0.36 0 0.96 0.36 0 1 0.36 0 1.04 0.36 0 1.08 0.36 0 1.12 0.36 0 1.16 0.36 0 1.2 0.36 0 0 0.4 0 0.04 0.4 0 0.08 0.4 0 0.12 0.4 0 0.16 0.4 0 0.2 0.4 0 0.24 0.4 0 0.28 0.4 0 0.32 0.4 0 0.36 0.4 0 0.4 0.4 0 0.44 0.4 0 0.48 0.4 0 0.52 0.4 0 0.56 0.4 0 0.6 0.4 0 0.64 0.4 0 0.68 0.4 0 0.72 0.4 0 0.76 0.4 0 0.8 0.4 0 0.84 0.4 0 0.88 0.4 0 0.92 0.4 0 0.96 0.4 0 1 0.4 0 1.04 0.4 0 1.08 0.4 0 1.12 0.4 0 1.16 0.4 0 1.2 0.4 0 0 0.44 0 0.04 0.44 0 0.08 0.44 0 0.12 0.44 0 0.16 0.44 0 0.2 0.44 0 0.24 0.44 0 0.28 0.44 0 0.32 0.44 0 0.36 0.44 0 0.4 0.44 0 0.44 0.44 0 0.48 0.44 0 0.52 0.44 0 0.56 0.44 0 0.6 0.44 0 0.64 0.44 0 0.68 0.44 0 0.72 0.44 0 0.76 0.44 0 0.8 0.44 0 0.84 0.44 0 0.88 0.44 0 0.92 0.44 0 0.96 0.44 0 1 0.44 0 1.04 0.44 0 1.08 0.44 0 1.12 0.44 0 1.16 0.44 0 1.2 0.44 0 0 0.48 0 0.04 0.48 0 0.08 0.48 0 0.12 0.48 0 0.16 0.48 0 0.2 0.48 0 0.24 0.48 0 0.28 0.48 0 0.32 0.48 0 0.36 0.48 0 0.4 0.48 0 0.44 0.48 0 0.48 0.48 0 0.52 0.48 0 0.56 0.48 0 0.6 0.48 0 0.64 0.48 0 0.68 0.48 0 0.72 0.48 0 0.76 0.48 0 0.8 0.48 0 0.84 0.48 0 0.88 0.48 0 0.92 0.48 0 0.96 0.48 0 1 0.48 0 1.04 0.48 0 1.08 0.48 0 1.12 0.48 0 1.16 0.48 0 1.2 0.48 0 0 0.52 0 0.04 0.52 0 0.08 0.52 0 0.12 0.52 0 0.16 0.52 0 0.2 0.52 0 0.24 0.52 0 0.28 0.52 0 0.32 0.52 0 0.36 0.52 0 0.4 0.52 0 0.44 0.52 0 0.48 0.52 0 0.52 0.52 0 0.56 0.52 0 0.6 0.52 0 0.64 0.52 0 0.68 0.52 0 0.72 0.52 0 0.76 0.52 0 0.8 0.52 0 0.84 0.52 0 0.88 0.52 0 0.92 0.52 0 0.96 0.52 0 1 0.52 0 1.04 0.52 0 1.08 0.52 0 1.12 0.52 0 1.16 0.52 0 1.2 0.52 0 0 0.56 0 0.04 0.56 0 0.08 0.56 0 0.12 0.56 0 0.16 0.56 0 0.2 0.56 0 0.24 0.56 0 0.28 0.56 0 0.32 0.56 0 0.36 0.56 0 0.4 0.56 0 0.44 0.56 0 0.48 0.56 0 0.52 0.56 0 0.56 0.56 0 0.6 0.56 0 0.64 0.56 0 0.68 0.56 0 0.72 0.56 0 0.76 0.56 0 0.8 0.56 0 0.84 0.56 0 0.88 0.56 0 0.92 0.56 0 0.96 0.56 0 1 0.56 0 1.04 0.56 0 1.08 0.56 0 1.12 0.56 0 1.16 0.56 0 1.2 0.56 0 0 0.6 0 0.04 0.6 0 0.08 0.6 0 0.12 0.6 0 0.16 0.6 0 0.2 0.6 0 0.24 0.6 0 0.28 0.6 0 0.32 0.6 0 0.36 0.6 0 0.4 0.6 0 0.44 0.6 0 0.48 0.6 0 0.52 0.6 0 0.56 0.6 0 0.6 0.6 0 0.64 0.6 0 0.68 0.6 0 0.72 0.6 0 0.76 0.6 0 0.8 0.6 0 0.84 0.6 0 0.88 0.6 0 0.92 0.6 0 0.96 0.6 0 1 0.6 0 1.04 0.6 0 1.08 0.6 0 1.12 0.6 0 1.16 0.6 0 1.2 0.6 0 0 0.64 0 0.04 0.64 0 0.08 0.64 0 0.12 0.64 0 0.16 0.64 0 0.2 0.64 0 0.24 0.64 0 0.28 0.64 0 0.32 0.64 0 0.36 0.64 0 0.4 0.64 0 0.44 0.64 0 0.48 0.64 0 0.52 0.64 0 0.56 0.64 0 0.6 0.64 0 0.64 0.64 0 0.68 0.64 0 0.72 0.64 0 0.76 0.64 0 0.8 0.64 0 0.84 0.64 0 0.88 0.64 0 0.92 0.64 0 0.96 0.64 0 1 0.64 0 1.04 0.64 0 1.08 0.64 0 1.12 0.64 0 1.16 0.64 0 1.2 0.64 0 0 0.68 0 0.04 0.68 0 0.08 0.68 0 0.12 0.68 0 0.16 0.68 0 0.2 0.68 0 0.24 0.68 0 0.28 0.68 0 0.32 0.68 0 0.36 0.68 0 0.4 0.68 0 0.44 0.68 0 0.48 0.68 0 0.52 0.68 0 0.56 0.68 0 0.6 0.68 0 0.64 0.68 0 0.68 0.68 0 0.72 0.68 0 0.76 0.68 0 0.8 0.68 0 0.84 0.68 0 0.88 0.68 0 0.92 0.68 0 0.96 0.68 0 1 0.68 0 1.04 0.68 0 1.08 0.68 0 1.12 0.68 0 1.16 0.68 0 1.2 0.68 0 0 0.72 0 0.04 0.72 0 0.08 0.72 0 0.12 0.72 0 0.16 0.72 0 0.2 0.72 0 0.24 0.72 0 0.28 0.72 0 0.32 0.72 0 0.36 0.72 0 0.4 0.72 0 0.44 0.72 0 0.48 0.72 0 0.52 0.72 0 0.56 0.72 0 0.6 0.72 0 0.64 0.72 0 0.68 0.72 0 0.72 0.72 0 0.76 0.72 0 0.8 0.72 0 0.84 0.72 0 0.88 0.72 0 0.92 0.72 0 0.96 0.72 0 1 0.72 0 1.04 0.72 0 1.08 0.72 0 1.12 0.72 0 1.16 0.72 0 1.2 0.72 0 0 0.76 0 0.04 0.76 0 0.08 0.76 0 0.12 0.76 0 0.16 0.76 0 0.2 0.76 0 0.24 0.76 0 0.28 0.76 0 0.32 0.76 0 0.36 0.76 0 0.4 0.76 0 0.44 0.76 0 0.48 0.76 0 0.52 0.76 0 0.56 0.76 0 0.6 0.76 0 0.64 0.76 0 0.68 0.76 0 0.72 0.76 0 0.76 0.76 0 0.8 0.76 0 0.84 0.76 0 0.88 0.76 0 0.92 0.76 0 0.96 0.76 0 1 0.76 0 1.04 0.76 0 1.08 0.76 0 1.12 0.76 0 1.16 0.76 0 1.2 0.76 0 0 0.8 0 0.04 0.8 0 0.08 0.8 0 0.12 0.8 0 0.16 0.8 0 0.2 0.8 0 0.24 0.8 0 0.28 0.8 0 0.32 0.8 0 0.36 0.8 0 0.4 0.8 0 0.44 0.8 0 0.48 0.8 0 0.52 0.8 0 0.56 0.8 0 0.6 0.8 0 0.64 0.8 0 0.68 0.8 0 0.72 0.8 0 0.76 0.8 0 0.8 0.8 0 0.84 0.8 0 0.88 0.8 0 0.92 0.8 0 0.96 0.8 0 1 0.8 0 1.04 0.8 0 1.08 0.8 0 1.12 0.8 0 1.16 0.8 0 1.2 0.8 0 0 0.84 0 0.04 0.84 0 0.08 0.84 0 0.12 0.84 0 0.16 0.84 0 0.2 0.84 0 0.24 0.84 0 0.28 0.84 0 0.32 0.84 0 0.36 0.84 0 0.4 0.84 0 0.44 0.84 0 0.48 0.84 0 0.52 0.84 0 0.56 0.84 0 0.6 0.84 0 0.64 0.84 0 0.68 0.84 0 0.72 0.84 0 0.76 0.84 0 0.8 0.84 0 0.84 0.84 0 0.88 0.84 0 0.92 0.84 0 0.96 0.84 0 1 0.84 0 1.04 0.84 0 1.08 0.84 0 1.12 0.84 0 1.16 0.84 0 1.2 0.84 0 0 0.88 0 0.04 0.88 0 0.08 0.88 0 0.12 0.88 0 0.16 0.88 0 0.2 0.88 0 0.24 0.88 0 0.28 0.88 0 0.32 0.88 0 0.36 0.88 0 0.4 0.88 0 0.44 0.88 0 0.48 0.88 0 0.52 0.88 0 0.56 0.88 0 0.6 0.88 0 0.64 0.88 0 0.68 0.88 0 0.72 0.88 0 0.76 0.88 0 0.8 0.88 0 0.84 0.88 0 0.88 0.88 0 0.92 0.88 0 0.96 0.88 0 1 0.88 0 1.04 0.88 0 1.08 0.88 0 1.12 0.88 0 1.16 0.88 0 1.2 0.88 0 0 0.92 0 0.04 0.92 0 0.08 0.92 0 0.12 0.92 0 0.16 0.92 0 0.2 0.92 0 0.24 0.92 0 0.28 0.92 0 0.32 0.92 0 0.36 0.92 0 0.4 0.92 0 0.44 0.92 0 0.48 0.92 0 0.52 0.92 0 0.56 0.92 0 0.6 0.92 0 0.64 0.92 0 0.68 0.92 0 0.72 0.92 0 0.76 0.92 0 0.8 0.92 0 0.84 0.92 0 0.88 0.92 0 0.92 0.92 0 0.96 0.92 0 1 0.92 0 1.04 0.92 0 1.08 0.92 0 1.12 0.92 0 1.16 0.92 0 1.2 0.92 0 0 0.96 0 0.04 0.96 0 0.08 0.96 0 0.12 0.96 0 0.16 0.96 0 0.2 0.96 0 0.24 0.96 0 0.28 0.96 0 0.32 0.96 0 0.36 0.96 0 0.4 0.96 0 0.44 0.96 0 0.48 0.96 0 0.52 0.96 0 0.56 0.96 0 0.6 0.96 0 0.64 0.96 0 0.68 0.96 0 0.72 0.96 0 0.76 0.96 0 0.8 0.96 0 0.84 0.96 0 0.88 0.96 0 0.92 0.96 0 0.96 0.96 0 1 0.96 0 1.04 0.96 0 1.08 0.96 0 1.12 0.96 0 1.16 0.96 0 1.2 0.96 0 0 1 0 0.04 1 0 0.08 1 0 0.12 1 0 0.16 1 0 0.2 1 0 0.24 1 0 0.28 1 0 0.32 1 0 0.36 1 0 0.4 1 0 0.44 1 0 0.48 1 0 0.52 1 0 0.56 1 0 0.6 1 0 0.64 1 0 0.68 1 0 0.72 1 0 0.76 1 0 0.8 1 0 0.84 1 0 0.88 1 0 0.92 1 0 0.96 1 0 1 1 0 1.04 1 0 1.08 1 0 1.12 1 0 1.16 1 0 1.2 1 0 0 1.04 0 0.04 1.04 0 0.08 1.04 0 0.12 1.04 0 0.16 1.04 0 0.2 1.04 0 0.24 1.04 0 0.28 1.04 0 0.32 1.04 0 0.36 1.04 0 0.4 1.04 0 0.44 1.04 0 0.48 1.04 0 0.52 1.04 0 0.56 1.04 0 0.6 1.04 0 0.64 1.04 0 0.68 1.04 0 0.72 1.04 0 0.76 1.04 0 0.8 1.04 0 0.84 1.04 0 0.88 1.04 0 0.92 1.04 0 0.96 1.04 0 1 1.04 0 1.04 1.04 0 1.08 1.04 0 1.12 1.04 0 1.16 1.04 0 1.2 1.04 0 0 1.08 0 0.04 1.08 0 0.08 1.08 0 0.12 1.08 0 0.16 1.08 0 0.2 1.08 0 0.24 1.08 0 0.28 1.08 0 0.32 1.08 0 0.36 1.08 0 0.4 1.08 0 0.44 1.08 0 0.48 1.08 0 0.52 1.08 0 0.56 1.08 0 0.6 1.08 0 0.64 1.08 0 0.68 1.08 0 0.72 1.08 0 0.76 1.08 0 0.8 1.08 0 0.84 1.08 0 0.88 1.08 0 0.92 1.08 0 0.96 1.08 0 1 1.08 0 1.04 1.08 0 1.08 1.08 0 1.12 1.08 0 1.16 1.08 0 1.2 1.08 0 0 1.12 0 
[...]
			<CellData Scalars="Density">
				<DataArray Name="Density" type="Float32" format="ascii">
 0.00671661 0.00687727 0.00727957 0.00805868 0.00935703 0.0113173 0.014091 0.0178445 0.0227812 0.0291731 0.0374244 0.0481609 0.0623706 0.0816196 0.10841 0.146734 0.202952 0.287181 0.416002 0.618345 0.951482 1.54727 2.5026 3.03665 3.14797 1.84675 1.06953 1.00498 1.00004 1 0.00687788 0.00702136 0.00738681 0.00812351 0.00938286 0.0113176 0.0140947 0.0179058 0.022986 0.029638 0.038286 0.0495661 0.064452 0.0844949 0.112189 0.151565 0.209024 0.294591 0.424804 0.626708 0.948839 1.52362 2.4781 2.98572 3.10582 1.80531 1.07051 1.00509 1.00004 1 0.00728156 0.00738815 0.00766699 0.00828747 0.00940003 0.0111399 0.0136777 0.0172146 0.0219864 0.0282881 0.0365186 0.0472548 0.0613866 0.0803068 0.106266 0.142952 0.196364 0.276771 0.402494 0.603636 0.934513 1.53313 2.50951 2.98056 3.07989 1.70341 1.06585 1.0048 1.00003 1 0.00806292 0.00812668 0.00828932 0.00878933 0.00979365 0.0114538 0.0139547 0.017517 0.0224153 0.0289859 0.0376596 0.049015 0.063869 0.0834501 0.109739 0.146063 0.198001 0.274655 0.392768 0.583088 0.904749 1.50595 2.48783 2.93016 3.00852 1.57961 1.05679 1.00399 1.00002 1 0.00936443 0.00938793 0.00940316 0.00979503 0.0107793 0.0124965 0.015169 0.019084 0.0246048 0.032168 0.0422941 0.0555773 0.0728058 0.0950752 0.124165 0.163139 0.217388 0.296281 0.416717 0.609572 0.928633 1.52956 2.45371 2.82125 2.85457 1.4546 1.04876 1.00318 1.00001 1 0.0113293 0.0113255 0.0111443 0.0114557 0.0124961 0.0144224 0.0174937 0.0220679 0.028626 0.037714 0.0499714 0.0660745 0.0867986 0.113242 0.147058 0.191197 0.250748 0.334857 0.460743 0.662789 0.996317 1.63998 2.48528 2.74657 2.61907 1.29552 1.03272 1.00219 1.00001 1 0.0141093 0.0141071 0.0136856 0.0139585 0.0151687 0.0174928 0.0212357 0.0268241 0.0348638 0.0460495 0.0611458 0.080946 0.106358 0.138546 0.179417 0.232128 0.302509 0.399963 0.544003 0.771301 1.15993 1.90295 2.63025 2.81004 2.30633 1.16921 1.02185 1.00117 1 1 0.0178698 0.0179248 0.0172272 0.0175261 0.0190868 0.0220679 0.026821 0.0338615 0.0439316 0.0578748 0.0766634 0.101239 0.132709 0.172522 0.222958 0.287893 0.37416 0.494092 0.671845 0.953264 1.48463 2.35658 2.88783 2.89371 1.82271 1.10444 1.01213 1.00042 1 1 0.022814 0.0230124 0.0220061 0.0224305 0.0246124 0.0286274 0.034858 0.0439114 0.0567291 0.0743299 0.0978611 0.128556 0.167746 0.217392 0.280542 0.362792 0.473447 0.631378 0.868536 1.27393 2.05675 2.91221 3.1675 2.6623 1.34326 1.05207 1.00485 1.00006 1 1 0.0292146 0.0296735 0.0283168 0.02901 0.0321832 0.0377199 0.0460392 0.0578446 0.0742759 0.0966019 0.126191 0.164484 0.213303 0.27521 0.354578 0.459025 0.603335 0.813219 1.14254 1.76749 2.71767 3.20127 3.12621 1.88149 1.12902 1.0193 1.00102 1 1 1 0.0374762 0.0383322 0.0365585 0.0376957 0.0423162 0.0499881 0.0611348 0.0765939 0.0977602 0.126079 0.163229 0.210941 0.271519 0.348609 0.448274 0.582466 0.77245 1.05778 1.56358 2.46445 3.21138 3.35307 2.59083 1.30661 1.05076 1.00513 1.00008 1 1 1 0.0482261 0.0496259 0.0473094 0.0490639 0.0556165 0.0660974 0.0809568 0.101159 0.128355 0.164272 0.210767 0.270045 0.345214 0.441109 0.566967 0.74137 0.993879 1.41064 2.20249 3.10072 3.40169 3.07401 1.64615 1.10293 1.01581 1.00076 1 1 1 1 0.0624541 0.0645298 0.0614594 0.0639339 0.0728595 0.0868626 0.106394 0.132661 0.167555 0.212993 0.271261 0.345052 0.438737 0.559663 0.722519 0.952253 1.31395 1.98316 2.92165 3.42693 3.34237 2.14376 1.19418 1.03617 1.00308 1.00003 1 1 1 1 0.0817275 0.0845984 0.0804032 0.0835341 0.0951444 0.11331 0.138645 0.172539 0.217231 0.27493 0.34834 0.440968 0.559627 0.716541 0.93208 1.25867 1.83329 2.77727 3.39948 3.45414 2.59428 1.35275 1.0645 1.00822 1.00025 1 1 1 1 1 0.108553 0.112329 0.106396 0.109849 0.124251 0.147157 0.179518 0.223001 0.280505 0.354333 0.448046 0.566987 0.722903 0.932559 1.23761 1.77151 2.65734 3.33043 3.51995 2.9372 1.54935 1.09896 1.01732 1.00097 1 1 1 1 1 1 0.146924 0.151758 0.14313 0.146221 0.163243 0.191264 0.232318 0.288026 0.362709 0.458936 0.582318 0.741495 0.952873 1.25801 1.77147 2.59776 3.35181 3.55337 3.13569 1.74891 1.13855 1.02907 1.00241 1.00003 1 1 1 1 1 1 0.203207 0.209292 0.196607 0.198223 0.217542 0.250831 0.302464 0.374204 0.473488 0.602772 0.772088 0.994115 1.31489 1.83345 2.65794 3.35284 3.53534 3.20405 1.89714 1.1855 1.04062 1.0044 1.0001 1 1 1 1 1 1 1 0.287522 0.294959 0.277107 0.274968 0.2965 0.335058 0.400212 0.493988 0.631495 0.813038 1.05693 1.41112 1.98266 2.77744 3.33039 3.55142 3.20394 1.96702 1.21217 1.04893 1.00653 1.00022 1 1 1 1 1 1 1 1 0.416453 0.425306 0.402961 0.393209 0.417025 0.460972 0.544099 0.672033 0.868544 1.14209 1.56231 2.20401 2.92081 3.39923 3.52089 3.13471 1.89704 1.21202 1.05248 1.00793 1.00035 1 1 1 1 1 1 1 1 1 0.618959 0.627397 0.604322 0.58378 0.610065 0.663269 0.771632 0.953206 1.27432 1.76751 2.46384 3.10209 3.42694 3.45439 2.93648 1.74815 1.18542 1.04893 1.00792 1.00041 1 1 1 1 1 1 1 1 1 1 0.952351 0.949783 0.935517 0.905777 0.929476 0.996996 1.16043 1.48468 2.05701 2.71744 3.21119 3.40243 3.34149 2.59456 1.54886 1.13844 1.04058 1.00652 1.00035 1 1 1 1 1 1 1 1 1 1 1 1.54864 1.52509 1.53475 1.50764 1.53105 1.64122 1.9034 2.35638 2.9123 3.20105 3.35194 3.07493 2.14265 1.3527 1.09887 1.02904 1.0044 1.00022 1 1 1 1 1 1 1 1 1 1 1 1 2.50423 2.47985 2.51137 2.48991 2.45523 2.48636 2.6305 2.88735 3.16705 3.12624 2.58946 1.64628 1.19406 1.06449 1.01732 1.00241 1.0001 1 1 1 1 1 1 1 1 1 1 1 1 1 3.03697 2.98612 2.98097 2.93087 2.82192 2.7469 2.80996 2.89357 2.66153 1.8812 1.30655 1.1029 1.03617 1.00821 1.00097 1.00003 1 1 1 1 1 1 1 1 1 1 1 1 1 1 3.1481 3.10595 3.07987 3.00836 2.85432 2.61839 2.30494 1.82196 1.34312 1.12887 1.05076 1.0158 1.00308 1.00025 1 1 1 1 1 1 1 1 1 1 1 1 1 1 1 1 1.84458 1.8032 1.70148 1.57782 1.45316 1.29472 1.16881 1.10421 1.05209 1.01927 1.00512 1.00076 1.00003 1 1 1 1 1 1 1 1 1 1 1 1 1 1 1 1 1 1.06934 1.07032 1.06567 1.05663 1.04862 1.03264 1.0218 1.0121 1.00484 1.00102 1.00008 1 1 1 1 1 1 1 1 1 1 1 1 1 1 1 1 1 1 1 1.00496 1.00506 1.00478 1.00397 1.00316 1.00218 1.00117 1.00042 1.00006 1 1 1 1 1 1 1 1 1 1 1 1 1 1 1 1 1 1 1 1 1 1.00004 1.00004 1.00003 1.00002 1.00001 1.00001 1 1 1 1 1 1 1 1 1 1 1 1 1 1 1 1 1 1 1 1 1 1 1 1 1 1 1 1 1 1 1 1 1 1 1 1 1 1 1 1 1 1 1 1 1 1 1 1 1 1 1 1 1 1
				</DataArray>
				<DataArray Name="Energy" type="Float32" format="ascii">
 1023.53 998.257 943.266 852.275 734.218 607.275 488.003 385.664 302.433 236.521 184.772 144.037 111.731 85.9317 65.2898 48.8729 36.0116 26.1664 18.8429 13.5582 9.85733 7.28811 5.07377 3.77098 2.1012 0.477329 0.00916505 1.12686e-05 2.50014e-06 2.5e-06 998.167 976.227 927.867 843.758 730.628 605.864 486.664 383.287 298.849 232.07 179.971 139.392 107.614 82.5366 62.6381 46.8672 34.5082 25.0394 18.0098 12.9392 9.36565 6.91939 4.94486 3.68009 2.03651 0.446358 0.00851028 1.08434e-05 2.50013e-06 2.5e-06 943.005 927.702 894.026 827.168 729.392 615.669 501.639 398.83 312.585 243.33 188.926 146.473 113.279 87.1592 66.4762 50.0645 37.118 27.061 19.4635 13.9098 9.96959 7.21384 4.96288 3.62098 1.891 0.362273 0.00621739 8.2484e-06 2.50009e-06 2.5e-06 851.823 843.429 826.993 780.05 700.184 598.876 491.799 392.033 306.672 237.517 183.213 141.231 108.905 83.9181 64.4286 49.0747 36.8977 27.2947 19.8707 14.2595 10.1681 7.31899 4.97555 3.55145 1.77058 0.291172 0.00407315 5.61447e-06 2.50005e-06 2.5e-06 733.637 730.228 729.15 700.109 636.331 549.055 452.542 359.996 279.515 214.154 163.297 124.709 95.7087 73.8573 57.1786 44.2056 33.9276 25.6914 19.1252 13.986 10.0947 7.30175 4.96948 3.48622 1.63272 0.219256 0.00249315 4.03827e-06 2.50002e-06 2.5e-06 606.633 605.448 615.407 598.78 549.092 475.945 392.582 311.463 240.426 182.811 138.353 105.083 80.4716 62.2237 48.4993 37.95 29.6406 22.9542 17.5339 13.1855 9.73087 7.06837 4.82688 3.35713 1.44361 0.144237 0.0011608 3.02034e-06 2.50001e-06 2.5e-06 487.372 486.232 501.358 491.648 452.551 392.611 323.635 256.434 197.567 149.91 113.251 85.946 65.8672 51.0674 40.0092 31.5638 24.9573 19.6501 15.3217 11.7771 8.89705 6.3819 4.48465 2.98601 1.06401 0.0618448 0.000275355 2.57214e-06 2.5e-06 2.5e-06 385.118 382.882 398.535 391.839 359.936 311.462 256.457 203.39 157.026 119.477 90.5483 68.95 53.033 41.2788 32.4745 25.7357 20.452 16.2128 12.7589 9.90249 7.62698 5.2987 3.84955 2.23777 0.500858 0.012518 2.66953e-05 2.50428e-06 2.5e-06 2.5e-06 301.998 298.504 312.303 306.465 279.43 240.411 197.609 157.079 121.863 93.3023 71.1849 54.5694 42.2358 33.0619 26.1398 20.8048 16.5915 13.2113 10.4363 8.17777 6.176 4.33623 3.08492 1.28379 0.126517 0.0010622 3.21638e-06 2.50012e-06 2.5e-06 2.5e-06 236.187 231.792 243.081 237.318 214.056 182.779 149.94 119.556 93.3524 72.0815 55.5118 42.9523 33.5395 26.4611 21.0584 16.8438 13.4863 10.7649 8.53947 6.75081 4.80823 3.6246 2.13558 0.479759 0.0133391 3.82431e-05 2.514e-06 2.5e-06 2.5e-06 2.5e-06 184.518 179.753 188.717 183.037 163.206 138.316 113.267 90.6264 71.2689 55.5546 43.2536 33.8467 26.7162 21.2873 17.0834 13.7626 11.0937 8.89088 7.14681 5.40092 4.01471 2.84698 1.07161 0.0916782 0.000682187 3.01961e-06 2.50019e-06 2.5e-06 2.5e-06 2.5e-06 143.843 139.223 146.305 141.081 124.627 105.035 85.9397 69.0052 54.6475 43.0127 33.8715 26.8292 21.4337 17.2653 13.9948 11.3784 9.22823 7.50056 5.9462 4.35273 3.33469 1.72882 0.304007 0.0059444 1.47163e-05 2.50682e-06 2.5e-06 2.5e-06 2.5e-06 2.5e-06 111.583 107.483 113.148 108.786 95.6385 80.4193 65.8357 53.0529 42.2874 33.5891 26.7457 21.4425 17.3401 14.1277 11.5747 9.49746 7.77336 6.37162 4.72734 3.68148 2.33863 0.641933 0.0308495 0.000150891 2.61254e-06 2.50005e-06 2.5e-06 2.5e-06 2.5e-06 2.5e-06 85.8192 82.4364 87.0581 83.8273 73.8047 62.1798 51.0303 41.2727 33.0828 26.4894 21.3076 17.2727 14.128 11.6446 9.62214 7.95925 6.65965 5.02635 3.93059 2.80252 1.05074 0.106117 0.00101153 3.71644e-06 2.50099e-06 2.5e-06 2.5e-06 2.5e-06 2.5e-06 2.5e-06 65.2056 62.5612 66.3992 64.3612 57.1392 48.4684 39.9761 32.4543 26.14 21.0672 17.0909 13.9969 11.5754 9.62212 8.02822 6.73807 5.2564 4.12136 3.11073 1.4357 0.220884 0.00403471 1.22016e-05 2.51021e-06 2.5e-06 2.5e-06 2.5e-06 2.5e-06 2.5e-06 2.5e-06 48.812 46.8095 50.0063 49.0262 44.1788 37.9333 31.5496 25.724 20.799 16.8447 13.7644 11.3764 9.49676 7.95672 6.73493 5.39037 4.17773 3.28664 1.72534 0.349523 0.0108843 4.63974e-05 2.55557e-06 2.50003e-06 2.5e-06 2.5e-06 2.5e-06 2.5e-06 2.5e-06 2.5e-06 35.9692 34.4664 37.0749 36.8619 33.907 29.6314 24.9495 20.4472 16.59 13.483 11.0918 9.22722 7.7717 6.65892 5.25897 4.17739 3.34616 1.87846 0.449605 0.0220975 0.000129954 2.68704e-06 2.50021e-06 2.5e-06 2.5e-06 2.5e-06 2.5e-06 2.5e-06 2.5e-06 2.5e-06 26.1385 25.0107 27.0303 27.2692 25.6743 22.9489 19.6513 16.2133 13.214 10.767 8.88911 7.49956 6.37014 5.0241 4.12071 3.28626 1.87825 0.490461 0.0307618 0.000244707 2.94998e-06 2.50079e-06 2.5e-06 2.5e-06 2.5e-06 2.5e-06 2.5e-06 2.5e-06 2.5e-06 2.5e-06 18.8256 17.9913 19.4429 19.8532 19.111 17.5284 15.3219 12.7619 10.4394 8.5411 7.14883 5.94519 4.72581 3.93007 3.10975 1.72449 0.449503 0.0307171 0.000303862 3.20599e-06 2.50171e-06 2.5e-06 2.5e-06 2.5e-06 2.5e-06 2.5e-06 2.5e-06 2.5e-06 2.5e-06 2.5e-06 13.5482 12.9282 13.8972 14.2483 13.9761 13.1808 11.777 9.90434 8.18141 6.75313 5.40221 4.3534 3.68051 2.80148 1.43463 0.349107 0.0220655 0.000244825 3.20457e-06 2.50224e-06 2.5e-06 2.5e-06 2.5e-06 2.5e-06 2.5e-06 2.5e-06 2.5e-06 2.5e-06 2.5e-06 2.5e-06 9.85179 9.3594 9.96227 10.1609 10.0885 9.72653 8.89613 7.62644 6.17566 4.80882 4.01435 3.33454 2.33799 1.05008 0.220525 0.0108665 0.000129641 2.9491e-06 2.50172e-06 2.5e-06 2.5e-06 2.5e-06 2.5e-06 2.5e-06 2.5e-06 2.5e-06 2.5e-06 2.5e-06 2.5e-06 2.5e-06 7.28498 6.91614 7.20966 7.31444 7.29769 7.06515 6.38089 5.29991 4.33652 3.62556 2.84733 1.72846 0.641589 0.105991 0.00402133 4.62519e-05 2.6868e-06 2.50079e-06 2.5e-06 2.5e-06 2.5e-06 2.5e-06 2.5e-06 2.5e-06 2.5e-06 2.5e-06 2.5e-06 2.5e-06 2.5e-06 2.5e-06 5.07183 4.94283 4.96047 4.97303 4.96732 4.82521 4.48382 3.85009 3.08489 2.13605 1.07189 0.303959 0.0308117 0.00100993 1.21936e-05 2.55539e-06 2.50021e-06 2.5e-06 2.5e-06 2.5e-06 2.5e-06 2.5e-06 2.5e-06 2.5e-06 2.5e-06 2.5e-06 2.5e-06 2.5e-06 2.5e-06 2.5e-06 3.76977 3.67878 3.61942 3.54962 3.48428 3.35535 2.98476 2.23752 1.28327 0.479688 0.0916748 0.00594282 0.00015094 3.71404e-06 2.51018e-06 2.50003e-06 2.5e-06 2.5e-06 2.5e-06 2.5e-06 2.5e-06 2.5e-06 2.5e-06 2.5e-06 2.5e-06 2.5e-06 2.5e-06 2.5e-06 2.5e-06 2.5e-06 2.09926 2.03455 1.88894 1.76835 1.63053 1.44154 1.06271 0.500513 0.126371 0.0133282 0.000682237 1.47005e-05 2.61244e-06 2.50099e-06 2.5e-06 2.5e-06 2.5e-06 2.5e-06 2.5e-06 2.5e-06 2.5e-06 2.5e-06 2.5e-06 2.5e-06 2.5e-06 2.5e-06 2.5e-06 2.5e-06 2.5e-06 2.5e-06 0.475904 0.444958 0.361086 0.290095 0.218365 0.143633 0.0616272 0.0124925 0.0010603 3.81738e-05 3.01857e-06 2.50682e-06 2.50005e-06 2.5e-06 2.5e-06 2.5e-06 2.5e-06 2.5e-06 2.5e-06 2.5e-06 2.5e-06 2.5e-06 2.5e-06 2.5e-06 2.5e-06 2.5e-06 2.5e-06 2.5e-06 2.5e-06 2.5e-06 0.00910476 0.00845348 0.00617538 0.00404342 0.00247422 0.00115255 0.00027381 2.65743e-05 3.21376e-06 2.51398e-06 2.50019e-06 2.5e-06 2.5e-06 2.5e-06 2.5e-06 2.5e-06 2.5e-06 2.5e-06 2.5e-06 2.5e-06 2.5e-06 2.5e-06 2.5e-06 2.5e-06 2.5e-06 2.5e-06 2.5e-06 2.5e-06 2.5e-06 2.5e-06 1.11738e-05 1.07527e-05 8.18569e-06 5.57887e-06 4.02004e-06 3.01408e-06 2.57137e-06 2.50424e-06 2.50012e-06 2.5e-06 2.5e-06 2.5e-06 2.5e-06 2.5e-06 2.5e-06 2.5e-06 2.5e-06 2.5e-06 2.5e-06 2.5e-06 2.5e-06 2.5e-06 2.5e-06 2.5e-06 2.5e-06 2.5e-06 2.5e-06 2.5e-06 2.5e-06 2.5e-06 2.50013e-06 2.50013e-06 2.50009e-06 2.50005e-06 2.50002e-06 2.50001e-06 2.5e-06 2.5e-06 2.5e-06 2.5e-06 2.5e-06 2.5e-06 2.5e-06 2.5e-06 2.5e-06 2.5e-06 2.5e-06 2.5e-06 2.5e-06 2.5e-06 2.5e-06 2.5e-06 2.5e-06 2.5e-06 2.5e-06 2.5e-06 2.5e-06 2.5e-06 2.5e-06 2.5e-06 2.5e-06 2.5e-06 2.5e-06 2.5e-06 2.5e-06 2.5e-06 2.5e-06 2.5e-06 2.5e-06 2.5e-06 2.5e-06 2.5e-06 2.5e-06 2.5e-06 2.5e-06 2.5e-06 2.5e-06 2.5e-06 2.5e-06 2.5e-06 2.5e-06 2.5e-06 2.5e-06 2.5e-06 2.5e-06 2.5e-06 2.5e-06 2.5e-06 2.5e-06 2.5e-06
				</DataArray>
				<DataArray Name="F1" type="Float32" format="ascii">
 1 1 1 1 1 1 1 1 1 1 1 1 1 1 1 1 1 1 1 1 1 1 1 1 1 1 1 1 1 1 1 1 1 1 1 1 1 1 1 1 1 1 1 1 1 1 1 1 1 1 1 1 1 1 1 1 1 1 1 1 1 1 1 1 1 1 1 1 1 1 1 1 1 1 1 1 1 1 1 1 1 1 1 1 1 1 1 1 1 1 1 1 1 1 1 1 1 1 1 1 1 1 1 1 1 1 1 1 1 1 1 1 1 1 1 1 1 1 1 1 1 1 1 1 1 1 1 1 1 1 1 1 1 1 1 1 1 1 1 1 1 1 1 1 1 1 1 1 1 1 1 1 1 1 1 1 1 1 1 1 1 1 1 1 1 1 1 1 1 1 1 1 1 1 1 1 1 1 1 1 1 1 1 1 1 1 1 1 1 1 1 1 1 1 1 1 1 1 1 1 1 1 1 1 1 1 1 1 1 1 1 1 1 1 1 1 1 1 1 1 1 1 1 1 1 1 1 1 1 1 1 1 1 1 1 1 1 1 1 1 1 1 1 1 1 1 1 1 1 1 1 1 1 1 1 1 1 1 1 1 1 1 1 1 1 1 1 1 1 1 1 1 1 1 1 1 1 1 1 1 1 1 1 1 1 1 1 1 1 1 1 1 1 1 1 1 1 1 1 1 1 1 1 1 1 1 1 1 1 1 1 1 1 1 1 1 1 1 1 1 1 1 1 1 1 1 1 1 1 1 1 1 1 1 1 1 1 1 1 1 1 1 1 1 1 1 1 1 1 1 1 1 1 1 1 1 1 1 1 1 1 1 1 1 1 1 1 1 1 1 1 1 1 1 1 1 1 1 1 1 1 1 1 1 1 1 1 1 1 1 1 1 1 1 1 1 1 1 1 1 1 1 1 1 1 1 1 1 1 1 1 1 1 1 1 1 1 1 1 1 1 1 1 1 1 1 1 1 1 1 1 1 1 1 1 1 1 1 1 1 1 1 1 1 1 1 1 1 1 1 1 1 1 1 1 1 1 1 1 1 1 1 1 1 1 1 1 1 1 1 1 1 1 1 1 1 1 1 1 1 1 1 1 1 1 1 1 1 1 1 1 1 1 1 1 1 1 1 1 1 1 1 1 1 1 1 1 1 1 1 1 1 1 1 1 1 1 1 1 1 1 1 1 1 1 1 1 1 1 1 1 1 1 1 1 1 1 1 1 1 1 1 1 1 1 1 1 1 1 1 1 1 1 1 1 1 1 1 1 1 1 1 1 1 1 1 1 1 1 1 1 1 1 1 1 1 1 1 1 1 1 1 1 1 1 1 1 1 1 1 1 1 1 1 1 1 1 1 1 1 1 1 1 1 1 1 1 1 1 1 1 1 1 1 1 1 1 1 1 1 1 1 1 1 1 1 1 1 1 1 1 1 1 1 1 1 1 1 1 1 1 1 1 1 1 1 1 1 1 1 1 1 1 1 1 1 1 1 1 1 1 1 1 1 1 1 1 1 1 1 1 1 1 1 1 1 1 1 1 1 1 1 1 1 1 1 1 1 1 1 1 1 1 1 1 1 1 1 1 1 1 1 1 1 1 1 1 1 1 1 1 1 1 1 1 1 1 1 1 1 1 1 1 1 1 1 1 1 1 1 1 1 1 1 1 1 1 1 1 1 1 1 1 1 1 1 1 1 1 1 1 1 1 1 1 1 1 1 1 1 1 1 1 1 1 1 1 1 1 1 1 1 1 1 1 1 1 1 1 1 1 1 1 1 1 1 1 1 1 1 1 1 1 1 1 1 1 1 1 1 1 1 1 1 1 1 1 1 1 1 1 1 1 1 1 1 1 1 1 1 1 1 1 1 1 1 1 1 1 1 1 1 1 1 1 1 1 1 1 1 1 1 1 1 1 1 1 1 1 1 1 1 1 1 1 1 1 1 1 1 1 1 1 1 1 1 1 1 1 1 1 1 1 1 1 1 1 1 1 1 1 1 1 1 1 1 1 1 1 1 1 1 1 1 1 1 1 1 1 1
				</DataArray>
				<DataArray Name="F2" type="Float32" format="ascii">
 0 0 0 0 0 0 0 0 0 0 0 0 0 0 0 0 0 0 0 0 0 0 0 0 0 0 0 0 0 0 0 0 0 0 0 0 0 0 0 0 0 0 0 0 0 0 0 0 0 0 0 0 0 0 0 0 0 0 0 0 0 0 0 0 0 0 0 0 0 0 0 0 0 0 0 0 0 0 0 0 0 0 0 0 0 0 0 0 0 0 0 0 0 0 0 0 0 0 0 0 0 0 0 0 0 0 0 0 0 0 0 0 0 0 0 0 0 0 0 0 0 0 0 0 0 0 0 0 0 0 0 0 0 0 0 0 0 0 0 0 0 0 0 0 0 0 0 0 0 0 0 0 0 0 0 0 0 0 0 0 0 0 0 0 0 0 0 0 0 0 0 0 0 0 0 0 0 0 0 0 0 0 0 0 0 0 0 0 0 0 0 0 0 0 0 0 0 0 0 0 0 0 0 0 0 0 0 0 0 0 0 0 0 0 0 0 0 0 0 0 0 0 0 0 0 0 0 0 0 0 0 0 0 0 0 0 0 0 0 0 0 0 0 0 0 0 0 0 0 0 0 0 0 0 0 0 0 0 0 0 0 0 0 0 0 0 0 0 0 0 0 0 0 0 0 0 0 0 0 0 0 0 0 0 0 0 0 0 0 0 0 0 0 0 0 0 0 0 0 0 0 0 0 0 0 0 0 0 0 0 0 0 0 0 0 0 0 0 0 0 0 0 0 0 0 0 0 0 0 0 0 0 0 0 0 0 0 0 0 0 0 0 0 0 0 0 0 0 0 0 0 0 0 0 0 0 0 0 0 0 0 0 0 0 0 0 0 0 0 0 0 0 0 0 0 0 0 0 0 0 0 0 0 0 0 0 0 0 0 0 0 0 0 0 0 0 0 0 0 0 0 0 0 0 0 0 0 0 0 0 0 0 0 0 0 0 0 0 0 0 0 0 0 0 0 0 0 0 0 0 0 0 0 0 0 0 0 0 0 0 0 0 0 0 0 0 0 0 0 0 0 0 0 0 0 0 0 0 0 0 0 0 0 0 0 0 0 0 0 0 0 0 0 0 0 0 0 0 0 0 0 0 0 0 0 0 0 0 0 0 0 0 0 0 0 0 0 0 0 0 0 0 0 0 0 0 0 0 0 0 0 0 0 0 0 0 0 0 0 0 0 0 0 0 0 0 0 0 0 0 0 0 0 0 0 0 0 0 0 0 0 0 0 0 0 0 0 0 0 0 0 0 0 0 0 0 0 0 0 0 0 0 0 0 0 0 0 0 0 0 0 0 0 0 0 0 0 0 0 0 0 0 0 0 0 0 0 0 0 0 0 0 0 0 0 0 0 0 0 0 0 0 0 0 0 0 0 0 0 0 0 0 0 0 0 0 0 0 0 0 0 0 0 0 0 0 0 0 0 0 0 0 0 0 0 0 0 0 0 0 0 0 0 0 0 0 0 0 0 0 0 0 0 0 0 0 0 0 0 0 0 0 0 0 0 0 0 0 0 0 0 0 0 0 0 0 0 0 0 0 0 0 0 0 0 0 0 0 0 0 0 0 0 0 0 0 0 0 0 0 0 0 0 0 0 0 0 0 0 0 0 0 0 0 0 0 0 0 0 0 0 0 0 0 0 0 0 0 0 0 0 0 0 0 0 0 0 0 0 0 0 0 0 0 0 0 0 0 0 0 0 0 0 0 0 0 0 0 0 0 0 0 0 0 0 0 0 0 0 0 0 0 0 0 0 0 0 0 0 0 0 0 0 0 0 0 0 0 0 0 0 0 0 0 0 0 0 0 0 0 0 0 0 0 0 0 0 0 0 0 0 0 0 0 0 0 0 0 0 0 0 0 0 0 0 0 0 0 0 0 0 0 0 0 0 0 0 0 0 0 0 0 0 0 0 0 0 0 0 0 0 0 0 0 0 0 0 0 0 0 0 0 0 0 0 0 0 0 0 0 0 0 0 0 0 0 0 0 0 0 0 0 0 0 0 0 0 0 0 0 0 0 0 0 0 0 0 0 0 0
				</DataArray>
				<DataArray Name="F3" type="Float32" format="ascii">
 0 0 0 0 0 0 0 0 0 0 0 0 0 0 0 0 0 0 0 0 0 0 0 0 0 0 0 0 0 0 0 0 0 0 0 0 0 0 0 0 0 0 0 0 0 0 0 0 0 0 0 0 0 0 0 0 0 0 0 0 0 0 0 0 0 0 0 0 0 0 0 0 0 0 0 0 0 0 0 0 0 0 0 0 0 0 0 0 0 0 0 0 0 0 0 0 0 0 0 0 0 0 0 0 0 0 0 0 0 0 0 0 0 0 0 0 0 0 0 0 0 0 0 0 0 0 0 0 0 0 0 0 0 0 0 0 0 0 0 0 0 0 0 0 0 0 0 0 0 0 0 0 0 0 0 0 0 0 0 0 0 0 0 0 0 0 0 0 0 0 0 0 0 0 0 0 0 0 0 0 0 0 0 0 0 0 0 0 0 0 0 0 0 0 0 0 0 0 0 0 0 0 0 0 0 0 0 0 0 0 0 0 0 0 0 0 0 0 0 0 0 0 0 0 0 0 0 0 0 0 0 0 0 0 0 0 0 0 0 0 0 0 0 0 0 0 0 0 0 0 0 0 0 0 0 0 0 0 0 0 0 0 0 0 0 0 0 0 0 0 0 0 0 0 0 0 0 0 0 0 0 0 0 0 0 0 0 0 0 0 0 0 0 0 0 0 0 0 0 0 0 0 0 0 0 0 0 0 0 0 0 0 0 0 0 0 0 0 0 0 0 0 0 0 0 0 0 0 0 0 0 0 0 0 0 0 0 0 0 0 0 0 0 0 0 0 0 0 0 0 0 0 0 0 0 0 0 0 0 0 0 0 0 0 0 0 0 0 0 0 0 0 0 0 0 0 0 0 0 0 0 0 0 0 0 0 0 0 0 0 0 0 0 0 0 0 0 0 0 0 0 0 0 0 0 0 0 0 0 0 0 0 0 0 0 0 0 0 0 0 0 0 0 0 0 0 0 0 0 0 0 0 0 0 0 0 0 0 0 0 0 0 0 0 0 0 0 0 0 0 0 0 0 0 0 0 0 0 0 0 0 0 0 0 0 0 0 0 0 0 0 0 0 0 0 0 0 0 0 0 0 0 0 0 0 0 0 0 0 0 0 0 0 0 0 0 0 0 0 0 0 0 0 0 0 0 0 0 0 0 0 0 0 0 0 0 0 0 0 0 0 0 0 0 0 0 0 0 0 0 0 0 0 0 0 0 0 0 0 0 0 0 0 0 0 0 0 0 0 0 0 0 0 0 0 0 0 0 0 0 0 0 0 0 0 0 0 0 0 0 0 0 0 0 0 0 0 0 0 0 0 0 0 0 0 0 0 0 0 0 0 0 0 0 0 0 0 0 0 0 0 0 0 0 0 0 0 0 0 0 0 0 0 0 0 0 0 0 0 0 0 0 0 0 0 0 0 0 0 0 0 0 0 0 0 0 0 0 0 0 0 0 0 0 0 0 0 0 0 0 0 0 0 0 0 0 0 0 0 0 0 0 0 0 0 0 0 0 0 0 0 0 0 0 0 0 0 0 0 0 0 0 0 0 0 0 0 0 0 0 0 0 0 0 0 0 0 0 0 0 0 0 0 0 0 0 0 0 0 0 0 0 0 0 0 0 0 0 0 0 0 0 0 0 0 0 0 0 0 0 0 0 0 0 0 0 0 0 0 0 0 0 0 0 0 0 0 0 0 0 0 0 0 0 0 0 0 0 0 0 0 0 0 0 0 0 0 0 0 0 0 0 0 0 0 0 0 0 0 0 0 0 0 0 0 0 0 0 0 0 0 0 0 0 0 0 0 0 0 0 0 0 0 0 0 0 0 0 0 0 0 0 0 0 0 0 0 0 0 0 0 0 0 0 0 0 0 0 0 0 0 0 0 0 0 0 0 0 0 0 0 0 0 0 0 0 0 0 0 0 0 0 0 0 0 0 0 0 0 0 0 0 0 0 0 0 0 0 0 0 0 0 0 0 0 0 0 0 0 0 0 0 0 0 0 0 0 0 0 0 0 0 0 0 0 0 0 0 0 0
				</DataArray>
				<DataArray Name="Pressure" type="Float32" format="ascii">