<?xml version="1.0"?>
<VTKFile type="PolyData">
	<PolyData>
		<Piece NumberOfPoints="961" NumberOfPolys="900">
			<Points>
				<DataArray type="Float32" NumberOfComponents="3" format="ascii">
 0 0 0 0.04 0 0 0.08 0 0 0.12 0 0 0.16 0 0 0.2 0 0 0.24 0 0 0.28 0 0 0.32 0 0 0.36 0 0 0.4 0 0 0.44 0 0 0.48 0 0 0.52 0 0 0.56 0 0 0.6 0 0 0.64 0 0 0.68 0 0 0.72 0 0 0.76 0 0 0.8 0 0 0.84 0 0 0.88 0 0 0.92 0 0 0.96 0 0 1 0 0 1.04 0 0 1.08 0 0 1.12 0 0 1.16 0 0 1.2 0 0 0 0.04 0 0.04 0.04 0 0.08 0.04 0 0.12 0.04 0 0.16 0.04 0 0.2 0.04 0 0.24 0.04 0 0.28 0.04 0 0.32 0.04 0 0.36 0.04 0 0.4 0.04 0 0.44 0.04 0 0.48 0.04 0 0.52 0.04 0 0.56 0.04 0 0.6 0.04 0 0.64 0.04 0 0.68 0.04 0 0.72 0.04 0 0.76 0.04 0 0.8 0.04 0 0.84 0.04 0 0.88 0.04 0 0.92 0.04 0 0.96 0.04 0 1 0.04 0 1.04 0.04 0 1.08 0.04 0 1.12 0.04 0 1.16 0.04 0 1.2 0.04 0 0 0.08 0 0.04 0.08 0 0.08 0.08 0 0.12 0.08 0 0.16 0.08 0 0.2 0.08 0 0.24 0.08 0 0.28 0.08 0 0.32 0.08 0 0.36 0.08 0 0.4 0.08 0 0.44 0.08 0 0.48 0.08 0 0.52 0.08 0 0.56 0.08 0 0.6 0.08 0 0.64 0.08 0 0.68 0.08 0 0.72 0.08 0 0.76 0.08 0 0.8 0.08 0 0.84 0.08 0 0.88 0.08 0 0.92 0.08 0 0.96 0.08 0 1 0.08 0 1.04 0.08 0 1.08 0.08 0 1.12 0.08 0 1.16 0.08 0 1.2 0.08 0 0 0.12 0 0.04 0.12 0 0.08 0.12 0 0.12 0.12 0 0.16 0.12 0 0.2 0.12 0 0.24 0.12 0 0.28 0.12 0 0.32 0.12 0 0.36 0.12 0 0.4 0.12 0 0.44 0.12 0 0.48 0.12 0 0.52 0.12 0 0.56 0.12 0 0.6 0.12 0 0.64 0.12 0 0.68 0.12 0 0.72 0.12 0 0.76 0.12 0 0.8 0.12 0 0.84 0.12 0 0.88 0.12 0 0.92 0.12 0 0.96 0.12 0 1 0.12 0 1.04 0.12 0 1.08 0.12 0 1.12 0.12 0 1.16 0.12 0 1.2 0.12 0 0 0.16 0 0.04 0.16 0 0.08 0.16 0 0.12 0.16 0 0.16 0.16 0 0.2 0.16 0 0.24 0.16 0 0.28 0.16 0 0.32 0.16 0 0.36 0.16 0 0.4 0.16 0 0.44 0.16 0 0.48 0.16 0 0.52 0.16 0 0.56 0.16 0 0.6 0.16 0 0.64 0.16 0 0.68 0.16 0 0.72 0.16 0 0.76 0.16 0 0.8 0.16 0 0.84 0.16 0 0.88 0.16 0 0.92 0.16 0 0.96 0.16 0 1 0.16 0 1.04 0.16 0 1.08 0.16 0 1.12 0.16 0 1.16 0.16 0 1.2 0.16 0 0 0.2 0 0.04 0.2 0 0.08 0.2 0 0.12 0.2 0 0.16 0.2 0 0.2 0.2 0 0.24 0.2 0 0.28 0.2 0 0.32 0.2 0 0.36 0.2 0 0.4 0.2 0 0.44 0.2 0 0.48 0.2 0 0.52 0.2 0 0.56 0.2 0 0.6 0.2 0 0.64 0.2 0 0.68 0.2 0 0.72 0.2 0 0.76 0.2 0 0.8 0.2 0 0.84 0.2 0 0.88 0.2 0 0.92 0.2 0 0.96 0.2 0 1 0.2 0 1.04 0.2 0 1.08 0.2 0 1.12 0.2 0 1.16 0.2 0 1.2 0.2 0 0 0.24 0 0.04 0.24 0 0.08 0.24 0 0.12 0.24 0 0.16 0.24 0 0.2 0.24 0 0.24 0.24 0 0.28 0.24 0 0.32 0.24 0 0.36 0.24 0 0.4 0.24 0 0.44 0.24 0 0.48 0.24 0 0.52 0.24 0 0.56 0.24 0 0.6 0.24 0 0.64 0.24 0 0.68 0.24 0 0.72 0.24 0 0.76 0.24 0 0.8 0.24 0 0.84 0.24 0 0.88 0.24 0 0.92 0.24 0 0.96 0.24 0 1 0.24 0 1.04 0.24 0 1.08 0.24 0 1.12 0.24 0 1.16 0.24 0 1.2 0.24 0 0 0.28 0 0.04 0.28 0 0.08 0.28 0 0.12 0.28 0 0.16 0.28 0 0.2 0.28 0 0.24 0.28 0 0.28 0.28 0 0.32 0.28 0 0.36 0.28 0 0.4 0.28 0 0.44 0.28 0 0.48 0.28 0 0.52 0.28 0 0.56 0.28 0 0.6 0.28 0 0.64 0.28 0 0.68 0.28 0 0.72 0.28 0 0.76 0.28 0 0.8 0.28 0 0.84 0.28 0 0.88 0.28 0 0.92 0.28 0 0.96 0.28 0 1 0.28 0 1.04 0.28 0 1.08 0.28 0 1.12 0.28 0 1.16 0.28 0 1.2 0.28 0 0 0.32 0 0.04 0.32 0 0.08 0.32 0 0.12 0.32 0 0.16 0.32 0 0.2 0.32 0 0.24 0.32 0 0.28 0.32 0 0.32 0.32 0 0.36 0.32 0 0.4 0.32 0 0.44 0.32 0 0.48 0.32 0 0.52 0.32 0 0.56 0.32 0 0.6 0.32 0 0.64 0.32 0 0.68 0.32 0 0.72 0.32 0 0.76 0.32 0 0.8 0.32 0 0.84 0.32 0 0.88 0.32 0 0.92 0.32 0 0.96 0.32 0 1 0.32 0 1.04 0.32 0 1.08 0.32 0 1.12 0.32 0 1.16 0.32 0 1.2 0.32 0 0 0.36 0 0.04 0.36 0 0.08 0.36 0 0.12 0.36 0 0.16 0.36 0 0.2 0.36 0 0.24 0.36 0 0.28 0.36 0 0.32 0.36 0 0.36 0.36 0 0.4 0.36 0 0.44 0.36 0 0.48 0.36 0 0.52 0.36 0 0.56 0.36 0 0.6 0.36 0 0.64 0.36 0 0.68 0.36 0 0.72 0.36 0 0.76 0.36 0 0.8 0.36 0 0.84 0.36 0 0.88 0.36 0 0.92 0.36 0 0.96 0.36 0 1 0.36 0 1.04 0.36 0 1.08 0.36 0 1.12 0.36 0 1.16 0.36 0 1.2 0.36 0 0 0.4 0 0.04 0.4 0 0.08 0.4 0 0.12 0.4 0 0.16 0.4 0 0.2 0.4 0 0.24 0.4 0 0.28 0.4 0 0.32 0.4 0 0.36 0.4 0 0.4 0.4 0 0.44 0.4 0 0.48 0.4 0 0.52 0.4 0 0.56 0.4 0 0.6 0.4 0 0.64 0.4 0 0.68 0.4 0 0.72 0.4 0 0.76 0.4 0 0.8 0.4 0 0.84 0.4 0 0.88 0.4 0 0.92 0.4 0 0.96 0.4 0 1 0.4 0 1.04 0.4 0 1.08 0.4 0 1.12 0.4 0 1.16 0.4 0 1.2 0.4 0 0 0.44 0 0.04 0.44 0 0.08 0.44 0 0.12 0.44 0 0.16 0.44 0 0.2 0.44 0 0.24 0.44 0 0.28 0.44 0 0.32 0.44 0 0.36 0.44 0 0.4 0.44 0 0.44 0.44 0 0.48 0.44 0 0.52 0.44 0 0.56 0.44 0 0.6 0.44 0 0.64 0.44 0 0.68 0.44 0 0.72 0.44 0 0.76 0.44 0 0.8 0.44 0 0.84 0.44 0 0.88 0.44 0 0.92 0.44 0 0.96 0.44 0 1 0.44 0 1.04 0.44 0 1.08 0.44 0 1.12 0.44 0 1.16 0.44 0 1.2 0.44 0 0 0.48 0 0.04 0.48 0 0.08 0.48 0 0.12 0.48 0 0.16 0.48 0 0.2 0.48 0 0.24 0.48 0 0.28 0.48 0 0.32 0.48 0 0.36 0.48 0 0.4 0.48 0 0.44 0.48 0 0.48 0.48 0 0.52 0.48 0 0.56 0.48 0 0.6 0.48 0 0.64 0.48 0 0.68 0.48 0 0.72 0.48 0 0.76 0.48 0 0.8 0.48 0 0.84 0.48 0 0.88 0.48 0 0.92 0.48 0 0.96 0.48 0 1 0.48 0 1.04 0.48 0 1.08 0.48 0 1.12 0.48 0 1.16 0.48 0 1.2 0.48 0 0 0.52 0 0.04 0.52 0 0.08 0.52 0 0.12 0.52 0 0.16 0.52 0 0.2 0.52 0 0.24 0.52 0 0.28 0.52 0 0.32 0.52 0 0.36 0.52 0 0.4 0.52 0 0.44 0.52 0 0.48 0.52 0 0.52 0.52 0 0.56 0.52 0 0.6 0.52 0 0.64 0.52 0 0.68 0.52 0 0.72 0.52 0 0.76 0.52 0 0.8 0.52 0 0.84 0.52 0 0.88 0.52 0 0.92 0.52 0 0.96 0.52 0 1 0.52 0 1.04 0.52 0 1.08 0.52 0 1.12 0.52 0 1.16 0.52 0 1.2 0.52 0 0 0.56 0 0.04 0.56 0 0.08 0.56 0 0.12 0.56 0 0.16 0.56 0 0.2 0.56 0 0.24 0.56 0 0.28 0.56 0 0.32 0.56 0 0.36 0.56 0 0.4 0.56 0 0.44 0.56 0 0.48 0.56 0 0.52 0.56 0 0.56 0.56 0 0.6 0.56 0 0.64 0.56 0 0.68 0.56 0 0.72 0.56 0 0.76 0.56 0 0.8 0.56 0 0.84 0.56 0 0.88 0.56 0 0.92 0.56 0 0.96 0.56 0 1 0.56 0 1.04 0.56 0 1.08 0.56 0 1.12 0.56 0 1.16 0.56 0 1.2 0.56 0 0 0.6 0 0.04 0.6 0 0.08 0.6 0 0.12 0.6 0 0.16 0.6 0 0.2 0.6 0 0.24 0.6 0 0.28 0.6 0 0.32 0.6 0 0.36 0.6 0 0.4 0.6 0 0.44 0.6 0 0.48 0.6 0 0.52 0.6 0 0.56 0.6 0 0.6 0.6 0 0.64 0.6 0 0.68 0.6 0 0.72 0.6 0 0.76 0.6 0 0.8 0.6 0 0.84 0.6 0 0.88 0.6 0 0.92 0.6 0 0.96 0.6 0 1 0.6 0 1.04 0.6 0 1.08 0.6 0 1.12 0.6 0 1.16 0.6 0 1.2 0.6 0 0 0.64 0 0.04 0.64 0 0.08 0.64 0 0.12 0.64 0 0.16 0.64 0 0.2 0.64 0 0.24 0.64 0 0.28 0.64 0 0.32 0.64 0 0.36 0.64 0 0.4 0.64 0 0.44 0.64 0 0.48 0.64 0 0.52 0.64 0 0.56 0.64 0 0.6 0.64 0 0.64 0.64 0 0.68 0.64 0 0.72 0.64 0 0.76 0.64 0 0.8 0.64 0 0.84 0.64 0 0.88 0.64 0 0.92 0.64 0 0.96 0.64 0 1 0.64 0 1.04 0.64 0 1.08 0.64 0 1.12 0.64 0 1.16 0.64 0 1.2 0.64 0 0 0.68 0 0.04 0.68 0 0.08 0.68 0 0.12 0.68 0 0.16 0.68 0 0.2 0.68 0 0.24 0.68 0 0.28 0.68 0 0.32 0.68 0 0.36 0.68 0 0.4 0.68 0 0.44 0.68 0 0.48 0.68 0 0.52 0.68 0 0.56 0.68 0 0.6 0.68 0 0.64 0.68 0 0.68 0.68 0 0.72 0.68 0 0.76 0.68 0 0.8 0.68 0 0.84 0.68 0 0.88 0.68 0 0.92 0.68 0 0.96 0.68 0 1 0.68 0 1.04 0.68 0 1.08 0.68 0 1.12 0.68 0 1.16 0.68 0 1.2 0.68 0 0 0.72 0 0.04 0.72 0 0.08 0.72 0 0.12 0.72 0 0.16 0.72 0 0.2 0.72 0 0.24 0.72 0 0.28 0.72 0 0.32 0.72 0 0.36 0.72 0 0.4 0.72 0 0.44 0.72 0 0.48 0.72 0 0.52 0.72 0 0.56 0.72 0 0.6 0.72 0 0.64 0.72 0 0.68 0.72 0 0.72 0.72 0 0.76 0.72 0 0.8 0.72 0 0.84 0.72 0 0.88 0.72 0 0.92 0.72 0 0.96 0.72 0 1 0.72 0 1.04 0.72 0 1.08 0.72 0 1.12 0.72 0 1.16 0.72 0 1.2 0.72 0 0 0.76 0 0.04 0.76 0 0.08 0.76 0 0.12 0.76 0 0.16 0.76 0 0.2 0.76 0 0.24 0.76 0 0.28 0.76 0 0.32 0.76 0 0.36 0.76 0 0.4 0.76 0 0.44 0.76 0 0.48 0.76 0 0.52 0.76 0 0.56 0.76 0 0.6 0.76 0 0.64 0.76 0 0.68 0.76 0 0.72 0.76 0 0.76 0.76 0 0.8 0.76 0 0.84 0.76 0 0.88 0.76 0 0.92 0.76 0 0.96 0.76 0 1 0.76 0 1.04 0.76 0 1.08 0.76 0 1.12 0.76 0 1.16 0.76 0 1.2 0.76 0 0 0.8 0 0.04 0.8 0 0.08 0.8 0 0.12 0.8 0 0.16 0.8 0 0.2 0.8 0 0.24 0.8 0 0.28 0.8 0 0.32 0.8 0 0.36 0.8 0 0.4 0.8 0 0.44 0.8 0 0.48 0.8 0 0.52 0.8 0 0.56 0.8 0 0.6 0.8 0 0.64 0.8 0 0.68 0.8 0 0.72 0.8 0 0.76 0.8 0 0.8 0.8 0 0.84 0.8 0 0.88 0.8 0 0.92 0.8 0 0.96 0.8 0 1 0.8 0 1.04 0.8 0 1.08 0.8 0 1.12 0.8 0 1.16 0.8 0 1.2 0.8 0 0 0.84 0 0.04 0.84 0 0.08 0.84 0 0.12 0.84 0 0.16 0.84 0 0.2 0.84 0 0.24 0.84 0 0.28 0.84 0 0.32 0.84 0 0.36 0.84 0 0.4 0.84 0 0.44 0.84 0 0.48 0.84 0 0.52 0.84 0 0.56 0.84 0 0.6 0.84 0 0.64 0.84 0 0.68 0.84 0 0.72 0.84 0 0.76 0.84 0 0.8 0.84 0 0.84 0.84 0 0.88 0.84 0 0.92 0.84 0 0.96 0.84 0 1 0.84 0 1.04 0.84 0 1.08 0.84 0 1.12 0.84 0 1.16 0.84 0 1.2 0.84 0 0 0.88 0 0.04 0.88 0 0.08 0.88 0 0.12 0.88 0 0.16 0.88 0 0.2 0.88 0 0.24 0.88 0 0.28 0.88 0 0.32 0.88 0 0.36 0.88 0 0.4 0.88 0 0.44 0.88 0 0.48 0.88 0 0.52 0.88 0 0.56 0.88 0 0.6 0.88 0 0.64 0.88 0 0.68 0.88 0 0.72 0.88 0 0.76 0.88 0 0.8 0.88 0 0.84 0.88 0 0.88 0.88 0 0.92 0.88 0 0.96 0.88 0 1 0.88 0 1.04 0.88 0 1.08 0.88 0 1.12 0.88 0 1.16 0.88 0 1.2 0.88 0 0 0.92 0 0.04 0.92 0 0.08 0.92 0 0.12 0.92 0 0.16 0.92 0 0.2 0.92 0 0.24 0.92 0 0.28 0.92 0 0.32 0.92 0 0.36 0.92 0 0.4 0.92 0 0.44 0.92 0 0.48 0.92 0 0.52 0.92 0 0.56 0.92 0 0.6 0.92 0 0.64 0.92 0 0.68 0.92 0 0.72 0.92 0 0.76 0.92 0 0.8 0.92 0 0.84 0.92 0 0.88 0.92 0 0.92 0.92 0 0.96 0.92 0 1 0.92 0 1.04 0.92 0 1.08 0.92 0 1.12 0.92 0 1.16 0.92 0 1.2 0.92 0 0 0.96 0 0.04 0.96 0 0.08 0.96 0 0.12 0.96 0 0.16 0.96 0 0.2 0.96 0 0.24 0.96 0 0.28 0.96 0 0.32 0.96 0 0.36 0.96 0 0.4 0.96 0 0.44 0.96 0 0.48 0.96 0 0.52 0.96 0 0.56 0.96 0 0.6 0.96 0 0.64 0.96 0 0.68 0.96 0 0.72 0.96 0 0.76 0.96 0 0.8 0.96 0 0.84 0.96 0 0.88 0.96 0 0.92 0.96 0 0.96 0.96 0 1 0.96 0 1.04 0.96 0 1.08 0.96 0 1.12 0.96 0 1.16 0.96 0 1.2 0.96 0 0 1 0 0.04 1 0 0.08 1 0 0.12 1 0 0.16 1 0 0.2 1 0 0.24 1 0 0.28 1 0 0.32 1 0 0.36 1 0 0.4 1 0 0.44 1 0 0.48 1 0 0.52 1 0 0.56 1 0 0.6 1 0 0.64 1 0 0.68 1 0 0.72 1 0 0.76 1 0 0.8 1 0 0.84 1 0 0.88 1 0 0.92 1 0 0.96 1 0 1 1 0 1.04 1 0 1.08 1 0 1.12 1 0 1.16 1 0 1.2 1 0 0 1.04 0 0.04 1.04 0 0.08 1.04 0 0.12 1.04 0 0.16 1.04 0 0.2 1.04 0 0.24 1.04 0 0.28 1.04 0 0.32 1.04 0 0.36 1.04 0 0.4 1.04 0 0.44 1.04 0 0.48 1.04 0 0.52 1.04 0 0.56 1.04 0 0.6 1.04 0 0.64 1.04 0 0.68 1.04 0 0.72 1.04 0 0.76 1.04 0 0.8 1.04 0 0.84 1.04 0 0.88 1.04 0 0.92 1.04 0 0.96 1.04 0 1 1.04 0 1.04 1.04 0 1.08 1.04 0 1.12 1.04 0 1.16 1.04 0 1.2 1.04 0 0 1.08 0 0.04 1.08 0 0.08 1.08 0 0.12 1.08 0 0.16 1.08 0 0.2 1.08 0 0.24 1.08 0 0.28 1.08 0 0.32 1.08 0 0.36 1.08 0 0.4 1.08 0 0.44 1.08 0 0.48 1.08 0 0.52 1.08 0 0.56 1.08 0 0.6 1.08 0 0.64 1.08 0 0.68 1.08 0 0.72 1.08 0 0.76 1.08 0 0.8 1.08 0 0.84 1.08 0 0.88 1.08 0 0.92 1.08 0 0.96 1.08 0 1 1.08 0 1.04 1.08 0 1.08 1.08 0 1.12 1.08 0 1.16 1.08 0 1.2 1.08 0 0 1.12 0 
[...]
			<CellData Scalars="Density">
				<DataArray Name="Density" type="Float32" format="ascii">
 0.005233 0.00534783 0.00563927 0.00621459 0.00719114 0.00871668 0.0109876 0.0142627 0.0188887 0.025286 0.0339642 0.0455788 0.0606701 0.0779736 0.0945266 0.106481 0.127866 0.159373 0.204587 0.268085 0.353891 0.465131 0.605484 0.778483 0.992378 1.2654 1.54623 1.77254 1.95266 2.04697 0.0053478 0.0054328 0.00566685 0.00615638 0.00698961 0.00834462 0.0104344 0.0135167 0.0179774 0.024351 0.0333127 0.0455682 0.0616301 0.0798605 0.0972416 0.110354 0.131738 0.163615 0.208918 0.27233 0.358871 0.47391 0.621133 0.80104 1.01976 1.29351 1.57152 1.7992 1.97575 2.04814 0.00563897 0.00566653 0.00579445 0.00615237 0.00683139 0.00791711 0.00967774 0.012454 0.0166536 0.0227825 0.031459 0.0433387 0.0587778 0.076321 0.0931185 0.106404 0.126199 0.155559 0.197718 0.258553 0.342001 0.452898 0.594507 0.771784 0.991266 1.26935 1.56111 1.79926 1.98862 2.08851 0.00621337 0.00615512 0.00615153 0.00637353 0.00689759 0.00786591 0.00944056 0.0119945 0.0159781 0.0219071 0.0303848 0.0420897 0.0575438 0.076244 0.0947572 0.110622 0.131866 0.162564 0.20447 0.265553 0.349127 0.46055 0.603519 0.781484 1.00118 1.28131 1.57862 1.82024 2.00516 2.08229 0.00718801 0.00698626 0.0068289 0.00689531 0.00724315 0.00799171 0.00944011 0.0118582 0.015833 0.0218355 0.0304734 0.0423778 0.0579895 0.0768732 0.0968234 0.115208 0.135745 0.166336 0.207039 0.266915 0.349133 0.458904 0.600936 0.778889 0.997574 1.27497 1.56629 1.80289 1.98811 2.07691 0.0087104 0.00833788 0.0079114 0.00786058 0.00798864 0.00838466 0.00942969 0.0115246 0.0151038 0.0210453 0.0297396 0.0417492 0.0575644 0.0769968 0.0984829 0.119556 0.140309 0.170252 0.209842 0.268341 0.349517 0.458005 0.598322 0.775404 0.995492 1.27484 1.56654 1.80002 1.97767 2.06051 0.0109769 0.0104237 0.00966725 0.00943112 0.00943275 0.00942183 0.00982484 0.0112675 0.0140839 0.0190102 0.026924 0.0383812 0.053836 0.0734249 0.09622 0.121234 0.145532 0.174038 0.214123 0.27139 0.351552 0.458553 0.597135 0.771393 0.989752 1.26723 1.55281 1.77966 1.95079 2.03283 0.0142462 0.0135016 0.0124387 0.0119797 0.0118457 0.0115126 0.0112632 0.011725 0.0135573 0.0173021 0.0238016 0.033975 0.0484044 0.0674269 0.0914072 0.119348 0.147176 0.175233 0.215209 0.269499 0.347995 0.452442 0.587379 0.757838 0.971008 1.24446 1.53724 1.77303 1.95043 2.03454 0.0188655 0.0179557 0.0166324 0.0159591 0.0158158 0.0150775 0.0140791 0.0135505 0.0139435 0.0163772 0.0211853 0.0295059 0.0422754 0.0602485 0.0841944 0.113395 0.145963 0.178001 0.214849 0.266 0.341002 0.442502 0.573932 0.741117 0.952739 1.22728 1.53969 1.79511 1.98545 2.07512 0.0252576 0.0243208 0.0227556 0.0218873 0.0218171 0.0210014 0.0190065 0.0172912 0.0163601 0.016713 0.019832 0.0260348 0.036676 0.0527366 0.0752369 0.104899 0.140709 0.177307 0.212874 0.262795 0.332342 0.430085 0.55819 0.721768 0.932404 1.20904 1.54972 1.84105 2.05752 2.15803 0.0339352 0.0332721 0.0314256 0.030365 0.0304493 0.0296768 0.0269268 0.0237893 0.0211642 0.0198163 0.0202702 0.02433 0.0324444 0.0461353 0.0666591 0.0949109 0.131021 0.172132 0.212264 0.258343 0.322392 0.415986 0.540939 0.70387 0.915063 1.19624 1.56944 1.91364 2.16806 2.27959 0.0455482 0.0455243 0.0432979 0.042071 0.0423469 0.0416806 0.0383882 0.0339769 0.0294748 0.0259986 0.0243047 0.0249064 0.0301825 0.0409791 0.0587803 0.0849663 0.120704 0.164163 0.209067 0.252571 0.313253 0.400344 0.521422 0.683417 0.896034 1.18125 1.58188 1.99788 2.30474 2.43666 0.0606405 0.0615934 0.0587386 0.0575201 0.0579657 0.0574956 0.0538415 0.048411 0.0422437 0.0366124 0.0324066 0.0301796 0.0311531 0.0381575 0.0524 0.075813 0.109973 0.154011 0.20379 0.251016 0.306897 0.387149 0.504123 0.662338 0.877787 1.17212 1.59245 2.08383 2.4565 2.61711 0.0779586 0.0798361 0.0762975 0.0762314 0.0768622 0.0769226 0.0734593 0.0674286 0.0602333 0.0526581 0.0460697 0.0409756 0.0381424 0.0399567 0.0495174 0.0684474 0.0999323 0.143575 0.196366 0.250165 0.301878 0.376601 0.488601 0.643881 0.860269 1.16419 1.60381 2.16321 2.61399 2.82239 0.094543 0.0972439 0.0931354 0.0947599 0.0967972 0.09847 0.0962903 0.0913059 0.0841907 0.0751796 0.0666029 0.0587879 0.0523516 0.0494813 0.0528977 0.0663853 0.0923263 0.134765 0.188543 0.248878 0.305031 0.37272 0.479574 0.634329 0.850999 1.16143 1.61964 2.25137 2.79151 3.0575 0.106536 0.110398 0.10643 0.11061 0.115256 0.119638 0.121244 0.119282 0.113507 0.104899 0.0949284 0.0849998 0.0756858 0.0683819 0.0663052 0.0726248 0.0919907 0.128244 0.18376 0.247896 0.311505 0.376981 0.478741 0.633276 0.851246 1.16781 1.64212 2.34168 2.98738 3.32653 0.127915 0.131773 0.126249 0.131927 0.135778 0.140267 0.145533 0.147283 0.146135 0.14076 0.131219 0.120774 0.109926 0.099819 0.0921502 0.0918781 0.103164 0.132048 0.183631 0.250767 0.322926 0.391753 0.484335 0.63887 0.861172 1.18706 1.67425 2.42396 3.19255 3.62789 0.159437 0.163669 0.155612 0.162557 0.166333 0.170304 0.174158 0.175234 0.177924 0.177311 0.172419 0.164347 0.154147 0.143543 0.13466 0.128038 0.131817 0.151966 0.196137 0.264916 0.343176 0.420951 0.505023 0.658617 0.884654 1.22163 1.72346 2.51178 3.41139 3.9662 0.204658 0.208978 0.197777 0.2045 0.207078 0.209865 0.214092 0.215197 0.215043 0.213133 0.212238 0.208993 0.204083 0.196639 0.188476 0.18351 0.183267 0.195765 0.231745 0.298462 0.378524 0.465006 0.549208 0.695408 0.92596 1.26763 1.77981 2.59807 3.63469 4.3355 0.268176 0.2724 0.258621 0.265574 0.266931 0.268342 0.271395 0.269511 0.265999 0.262763 0.25857 0.252978 0.251169 0.250094 0.248893 0.247967 0.250317 0.264231 0.297919 0.360574 0.442261 0.530016 0.623554 0.754094 0.985361 1.33258 1.84914 2.68449 3.85844 4.74107 0.354011 0.35897 0.342104 0.349173 0.349182 0.349525 0.351561 0.347982 0.340998 0.332398 0.322509 0.313253 0.307242 0.302201 0.305312 0.311608 0.322799 0.342849 0.377907 0.44169 0.535185 0.618919 0.706201 0.83666 1.07144 1.42487 1.94102 2.77418 4.07421 5.18798 0.465283 0.474038 0.453026 0.460622 0.458973 0.458056 0.458587 0.452423 0.442519 0.430095 0.415947 0.400441 0.387277 0.376542 0.372941 0.377258 0.391825 0.42089 0.464431 0.529243 0.61834 0.714457 0.793308 0.902905 1.14337 1.52584 2.07522 2.90296 4.2845 5.68235 0.605672 0.621297 0.594672 0.603627 0.601027 0.598421 0.597209 0.587389 0.574026 0.558329 0.540872 0.52142 0.504239 0.488623 0.479616 0.478924 0.484531 0.504996 0.54908 0.623336 0.705982 0.79331 0.890797 0.976145 1.17798 1.5661 2.16467 3.05553 4.50689 6.24427 0.778699 0.801237 0.771997 0.781633 0.778999 0.775507 0.771558 0.757918 0.741145 0.72194 0.703977 0.683356 0.662134 0.644017 0.634366 0.633249 0.638981 0.658839 0.695814 0.754117 0.83659 0.902784 0.975986 1.06215 1.21434 1.57165 2.19926 3.18507 4.7521 6.92301 0.992624 1.01998 0.991512 1.00137 0.997748 0.995628 0.989898 0.971162 0.952915 0.932471 0.915032 0.896335 0.877519 0.86014 0.851074 0.85159 0.861172 0.884517 0.926067 0.985265 1.07181 1.14393 1.17856 1.21461 1.28349 1.55164 2.16936 3.21687 4.8926 7.66738 1.26568 1.29377 1.26963 1.28154 1.27519 1.27508 1.26744 1.24465 1.22755 1.20943 1.19606 1.18132 1.17219 1.16392 1.16119 1.16781 1.18712 1.22124 1.26733 1.33282 1.42526 1.52666 1.56655 1.57185 1.55164 1.65097 2.1104 3.1962 5.01583 8.40708 1.54655 1.57183 1.56143 1.57891 1.56657 1.56685 1.55311 1.5375 1.53995 1.54994 1.56957 1.58169 1.59212 1.60388 1.61933 1.64167 1.67418 1.72339 1.77941 1.8492 1.94125 2.07584 2.1651 2.19996 2.16989 2.11034 2.26442 3.10678 5.0695 8.80163 1.7729 1.79957 1.79965 1.8206 1.80325 1.80042 1.78008 1.77337 1.79544 1.84114 1.91371 1.99782 2.08315 2.16311 2.25148 2.34106 2.42344 2.51161 2.5979 2.68441 2.77458 2.90357 3.05624 3.18572 3.21766 3.19663 3.10689 3.46804 5.21236 9.14011 1.95304 1.97614 1.98904 2.00557 1.98854 1.97812 1.9512 1.95089 1.98583 2.0577 2.16794 2.30438 2.45594 2.61332 2.79149 2.98694 3.19226 3.41173 3.63499 3.85867 4.07469 4.28467 4.50755 4.75236 4.89333 5.01628 5.06993 5.21268 6.16717 9.61212 2.04737 2.04856 2.08894 2.08272 2.07744 2.06104 2.03322 2.03502 2.07538 2.15834 2.2796 2.43622 2.61671 2.82132 3.05719 3.32619 3.62808 3.96658 4.33603 4.74166 5.1887 5.68306 6.24486 6.92343 7.66794 8.40754 8.80208 9.14045 9.61236 8.29384
				</DataArray>
				<DataArray Name="Energy" type="Float32" format="ascii">
 920.892 901.077 854.344 775.06 669.522 552.062 437.58 336.667 253.742 188.855 139.548 102.472 74.5251 53.7314 38.0448 27.3782 20.2624 15.5804 12.068 9.49594 7.50042 5.95824 4.78519 3.90051 3.23745 2.7253 2.37118 2.15681 2.0409 1.98502 901.079 886.932 850.153 782.268 688.781 576.539 460.664 355.155 266.36 195.946 142.31 102.584 73.4874 52.5587 37.1797 26.7934 19.8695 15.2778 11.8036 9.23214 7.23977 5.71371 4.5598 3.69448 3.05797 2.59018 2.28874 2.10636 2.00588 1.94771 854.385 850.198 831.139 782.582 704.352 607.493 496.436 385.195 287.494 209.296 150.495 107.779 76.976 55.1165 39.323 28.5507 21.2115 16.3273 12.6229 9.89421 7.75253 6.09463 4.83642 3.90541 3.21722 2.69193 2.32494 2.1051 1.98815 1.93266 775.212 782.431 782.683 754.983 697.324 610.893 508.673 399.706 299.298 217.608 155.832 110.932 78.6638 55.4148 39.1009 28.1861 20.8612 15.9964 12.3937 9.77007 7.70563 6.08589 4.83113 3.88529 3.18418 2.66059 2.3044 2.09166 1.9763 1.91349 669.816 689.111 704.62 697.543 663.465 600.923 508.027 404.027 301.852 217.957 155.179 110.124 78.1383 55.2257 39.1252 28.272 21.021 16.0796 12.5113 9.8941 7.84295 6.2152 4.94388 3.97748 3.25465 2.71036 2.33643 2.11452 1.99702 1.93818 552.461 577.003 607.931 611.317 601.144 572.049 508.161 414.975 316.084 226.028 158.895 111.845 78.8372 55.7687 39.7156 28.6984 21.3625 16.2466 12.6633 10.0096 7.97163 6.34442 5.06041 4.07354 3.32702 2.76072 2.3797 2.15393 2.03213 1.96943 437.996 461.138 496.967 509.186 508.442 508.572 486.881 423.89 338.169 249.732 175.26 121.426 84.5561 59.3089 41.9222 30.0414 22.0533 16.6079 12.8824 10.1169 8.0861 6.46321 5.17941 4.18348 3.42564 2.84639 2.45741 2.22556 2.0971 2.03013 337.028 355.552 385.681 400.208 404.457 415.427 424.039 406.398 350.608 273.614 197.773 137.213 94.4015 65.264 45.6692 32.3589 23.3839 17.4715 13.3846 10.4426 8.34369 6.68221 5.37465 4.35986 3.57664 2.97044 2.54876 2.29407 2.14902 2.07133 254.009 266.674 287.884 299.682 302.184 316.635 338.299 350.768 339.873 288.303 221.531 157.569 108.186 74.0261 51.0616 35.7197 25.4008 18.6571 14.1101 10.9326 8.69072 6.97589 5.61808 4.55944 3.73491 3.08512 2.61478 2.33184 2.16728 2.08016 189.019 196.166 209.585 217.827 218.156 226.496 249.771 273.794 288.587 281.451 236.019 178.363 125.223 85.4942 58.3875 40.3697 28.35 20.3431 15.1975 11.6639 9.1586 7.35141 5.91943 4.79082 3.90638 3.20164 2.66397 2.34114 2.15569 2.06002 139.636 142.458 150.689 155.946 155.317 159.228 175.233 197.863 221.753 236.185 229.928 190.577 141.71 98.601 67.3553 46.2457 32.2118 22.7931 16.6665 12.599 9.76499 7.79645 6.26403 5.04653 4.07756 3.30912 2.69831 2.32349 2.11581 2.01101 102.52 102.68 107.888 110.997 110.202 112.042 121.385 137.205 157.732 178.587 190.751 185.613 152.671 112.023 77.5917 53.2253 36.9205 25.949 18.5656 13.8268 10.569 8.34297 6.68092 5.35304 4.2872 3.43085 2.74823 2.30858 2.07815 1.96589 74.5578 73.5298 77.0337 78.691 78.1772 78.9374 84.5283 94.3997 108.257 125.401 141.849 152.652 148.355 121.423 88.6519 61.3041 42.417 29.5785 21.0016 15.3221 11.5801 8.99576 7.1709 5.71269 4.53446 3.57541 2.8126 2.31056 2.05908 1.93945 53.7522 52.585 55.1368 55.4259 55.2486 55.8109 59.292 65.2668 74.0127 85.6028 98.7046 112.007 121.46 116.998 95.543 69.9612 48.5965 33.8657 23.7811 17.0242 12.7349 9.75194 7.72454 6.11743 4.81659 3.75576 2.90773 2.33281 2.05658 1.93029 38.061 37.195 39.3308 39.1141 39.1435 39.7283 41.9033 45.6975 51.0649 58.4154 67.3936 77.5648 88.7266 95.6085 91.0092 74.1042 54.6131 38.3264 26.8762 19.0828 13.9495 10.5694 8.28493 6.54728 5.11986 3.95695 3.03016 2.37643 2.06789 1.93178 27.388 26.8023 28.5625 28.2072 28.2771 28.6893 30.037 32.3892 35.6844 40.3714 46.2455 53.2054 61.3868 70.0289 74.1982 69.8369 56.8429 42.2147 29.9672 21.2342 15.2919 11.4372 8.83336 6.98044 5.4478 4.1844 3.17652 2.44498 2.0943 1.94432 20.2663 19.8746 21.215 20.8625 21.0247 21.3721 22.0623 23.3763 25.3733 28.3532 32.1579 36.9057 42.4608 48.6494 54.7333 56.9096 52.8444 43.0853 32.305 23.1535 16.6178 12.297 9.36808 7.38774 5.77165 4.42329 3.33826 2.53713 2.1297 1.96162 15.5821 15.28 16.3295 16.0024 16.0857 16.2469 16.6036 17.4749 18.6674 20.3453 22.7509 25.9362 29.5483 33.884 38.3784 42.3029 43.1559 39.4633 32.2824 24.3594 17.7119 12.9746 9.81649 7.72057 6.0543 4.65909 3.51845 2.65454 2.17411 1.9818 12.0683 11.8047 12.624 12.3963 12.5133 12.6662 12.887 13.3883 14.1011 15.1797 16.6659 18.5682 20.9757 23.7753 26.8835 29.9982 32.3889 32.3399 29.1291 23.8073 18.1382 13.4434 10.1335 7.9414 6.27514 4.86737 3.70008 2.78777 2.22658 2.00285 9.49603 9.23265 9.89445 9.77186 9.89602 10.0109 10.1182 10.4448 10.9349 11.6668 12.5901 13.8027 15.3173 17.022 19.072 21.2336 23.1865 24.4132 23.8462 21.1216 17.2022 13.4216 10.2453 8.01265 6.40716 5.03752 3.87175 2.92928 2.28607 2.0226 7.50056 7.24011 7.75295 7.70682 7.84419 7.97304 8.08743 8.34541 8.69126 9.15792 9.76379 10.5693 11.5714 12.7171 13.9369 15.2858 16.6213 17.7274 18.1618 17.2178 14.9391 12.3742 9.91266 7.88526 6.41937 5.15032 4.02231 3.06895 2.35232 2.04105 5.95847 5.71409 6.095 6.0867 6.21621 6.34546 6.46402 6.68347 6.97688 7.35074 7.79556 8.34179 8.99357 9.74759 10.5624 11.4279 12.2891 12.9706 13.4513 13.4368 12.3808 10.6064 8.93085 7.43511 6.21759 5.13871 4.12349 3.199 2.42971 2.0585 4.78554 4.56026 4.83679 4.83177 4.94451 5.06119 5.18007 5.37532 5.61868 5.91991 6.26354 6.67987 7.17043 7.72439 8.28096 8.82667 9.36397 9.81348 10.1288 10.2449 9.91204 8.92977 7.6194 6.55103 5.73199 4.94663 4.0878 3.26973 2.52024 2.07404 3.90099 3.69501 3.90581 3.88586 3.97799 4.07392 4.1839 4.36038 4.55961 4.7911 5.04752 5.35218 5.71262 6.11738 6.54838 6.97869 7.38371 7.71663 7.93528 8.00977 7.88449 7.43484 6.55097 5.493 4.87161 4.46351 3.92913 3.25162 2.60121 2.08987 3.23799 3.05853 3.21765 3.18466 3.25514 3.32734 3.42578 3.57717 3.73515 3.90613 4.07795 4.28771 4.53491 4.81618 5.12019 5.44814 5.77058 6.0531 6.27447 6.4074 6.41748 6.2148 5.72959 4.87002 4.11418 3.67822 3.49539 3.11714 2.60017 2.09012 2.72582 2.5907 2.69235 2.66099 2.71073 2.76107 2.84653 2.97076 3.08537 3.20182 3.30934 3.43092 3.57627 3.75634 3.95677 4.18469 4.42413 4.65903 4.86734 5.03654 5.14941 5.13694 4.94534 4.46195 3.67723 3.1767 2.8328 2.74062 2.50394 2.05179 2.37163 2.28918 2.32531 2.30472 2.33668 2.37991 2.45749 2.5489 2.61493 2.66428 2.69873 2.74852 2.81314 2.90851 3.03067 3.17688 3.33869 3.5187 3.69997 3.8714 4.02309 4.1232 4.08707 3.928 3.49427 2.83231 2.4793 2.20193 2.24736 1.95171 2.15722 2.10674 2.10544 2.09193 2.11471 2.15408 2.22563 2.29416 2.33196 2.34142 2.32394 2.30917 2.31107 2.33297 2.37687 2.4453 2.53741 2.6548 2.78777 2.92918 3.06898 3.1989 3.2695 3.25129 3.11663 2.74005 2.20168 1.98501 1.83588 1.76909 2.04127 2.00623 1.98847 1.97654 1.99718 2.03224 2.09715 2.1491 2.1674 2.15596 2.11617 2.07864 2.05962 2.05659 2.06806 2.0943 2.12965 2.17405 2.22645 2.28604 2.3523 2.42996 2.52034 2.60133 2.60003 2.50376 2.24716 1.83577 1.66349 1.47498 1.98538 1.94805 1.93295 1.91371 1.93835 1.96955 2.03017 2.0714 2.08023 2.06033 2.01147 1.96629 1.93991 1.93033 1.93192 1.94425 1.96151 1.9817 2.00281 2.02258 2.0411 2.05862 2.07415 2.08998 2.0902 2.05184 1.95172 1.76909 1.47497 1.0023
				</DataArray>
				<DataArray Name="F1" type="Float32" format="ascii">
 1 1 1 1 1 1 1 1 1 1 1 1 1 1 1 1 1 1 1 1 1 1 1 1 1 1 1 1 1 1 1 1 1 1 1 1 1 1 1 1 1 1 1 1 1 1 1 1 1 1 1 1 1 1 1 1 1 1 1 1 1 1 1 1 1 1 1 1 1 1 1 1 1 1 1 1 1 1 1 1 1 1 1 1 1 1 1 1 1 1 1 1 1 1 1 1 1 1 1 1 1 1 1 1 1 1 1 1 1 1 1 1 1 1 1 1 1 1 1 1 1 1 1 1 1 1 1 1 1 1 1 1 1 1 1 1 1 1 1 1 1 1 1 1 1 1 1 1 1 1 1 1 1 1 1 1 1 1 1 1 1 1 1 1 1 1 1 1 1 1 1 1 1 1 1 1 1 1 1 1 1 1 1 1 1 1 1 1 1 1 1 1 1 1 1 1 1 1 1 1 1 1 1 1 1 1 1 1 1 1 1 1 1 1 1 1 1 1 1 1 1 1 1 1 1 1 1 1 1 1 1 1 1 1 1 1 1 1 1 1 1 1 1 1 1 1 1 1 1 1 1 1 1 1 1 1 1 1 1 1 1 1 1 1 1 1 1 1 1 1 1 1 1 1 1 1 1 1 1 1 1 1 1 1 1 1 1 1 1 1 1 1 1 1 1 1 1 1 1 1 1 1 1 1 1 1 1 1 1 1 1 1 1 1 1 1 1 1 1 1 1 1 1 1 1 1 1 1 1 1 1 1 1 1 1 1 1 1 1 1 1 1 1 1 1 1 1 1 1 1 1 1 1 1 1 1 1 1 1 1 1 1 1 1 1 1 1 1 1 1 1 1 1 1 1 1 1 1 1 1 1 1 1 1 1 1 1 1 1 1 1 1 1 1 1 1 1 1 1 1 1 1 1 1 1 1 1 1 1 1 1 1 1 1 1 1 1 1 1 1 1 1 1 1 1 1 1 1 1 1 1 1 1 1 1 1 1 1 1 1 1 1 1 1 1 1 1 1 1 1 1 1 1 1 1 1 1 1 1 1 1 1 1 1 1 1 1 1 1 1 1 1 1 1 1 1 1 1 1 1 1 1 1 1 1 1 1 1 1 1 1 1 1 1 1 1 1 1 1 1 1 1 1 1 1 1 1 1 1 1 1 1 1 1 1 1 1 1 1 1 1 1 1 1 1 1 1 1 1 1 1 1 1 1 1 1 1 1 1 1 1 1 1 1 1 1 1 1 1 1 1 1 1 1 1 1 1 1 1 1 1 1 1 1 1 1 1 1 1 1 1 1 1 1 1 1 1 1 1 1 1 1 1 1 1 1 1 1 1 1 1 1 1 1 1 1 1 1 1 1 1 1 1 1 1 1 1 1 1 1 1 1 1 1 1 1 1 1 1 1 1 1 1 1 1 1 1 1 1 1 1 1 1 1 1 1 1 1 1 1 1 1 1 1 1 1 1 1 1 1 1 1 1 1 1 1 1 1 1 1 1 1 1 1 1 1 1 1 1 1 1 1 1 1 1 1 1 1 1 1 1 1 1 1 1 1 1 1 1 1 1 1 1 1 1 1 1 1 1 1 1 1 1 1 1 1 1 1 1 1 1 1 1 1 1 1 1 1 1 1 1 1 1 1 1 1 1 1 1 1 1 1 1 1 1 1 1 1 1 1 1 1 1 1 1 1 1 1 1 1 1 1 1 1 1 1 1 1 1 1 1 1 1 1 1 1 1 1 1 1 1 1 1 1 1 1 1 1 1 1 1 1 1 1 1 1 1 1 1 1 1 1 1 1 1 1 1 1 1 1 1 1 1 1 1 1 1 1 1 1 1 1 1 1 1 1 1 1 1 1 1 1 1 1 1 1 1 1 1 1 1 1 1 1 1 1 1 1 1 1 1 1 1 1 1 1 1 1 1 1 1 1 1 1 1 1 1 1 1 1 1 1 1 1 1 1 1 1 1 1 1 1 1 1 1 1 1 1 1 1 1 1 1 1 1 1 1 1 1 1 1 1 1 1 1 1 1 1 1 1
				</DataArray>
				<DataArray Name="F2" type="Float32" format="ascii">
 0 0 0 0 0 0 0 0 0 0 0 0 0 0 0 0 0 0 0 0 0 0 0 0 0 0 0 0 0 0 0 0 0 0 0 0 0 0 0 0 0 0 0 0 0 0 0 0 0 0 0 0 0 0 0 0 0 0 0 0 0 0 0 0 0 0 0 0 0 0 0 0 0 0 0 0 0 0 0 0 0 0 0 0 0 0 0 0 0 0 0 0 0 0 0 0 0 0 0 0 0 0 0 0 0 0 0 0 0 0 0 0 0 0 0 0 0 0 0 0 0 0 0 0 0 0 0 0 0 0 0 0 0 0 0 0 0 0 0 0 0 0 0 0 0 0 0 0 0 0 0 0 0 0 0 0 0 0 0 0 0 0 0 0 0 0 0 0 0 0 0 0 0 0 0 0 0 0 0 0 0 0 0 0 0 0 0 0 0 0 0 0 0 0 0 0 0 0 0 0 0 0 0 0 0 0 0 0 0 0 0 0 0 0 0 0 0 0 0 0 0 0 0 0 0 0 0 0 0 0 0 0 0 0 0 0 0 0 0 0 0 0 0 0 0 0 0 0 0 0 0 0 0 0 0 0 0 0 0 0 0 0 0 0 0 0 0 0 0 0 0 0 0 0 0 0 0 0 0 0 0 0 0 0 0 0 0 0 0 0 0 0 0 0 0 0 0 0 0 0 0 0 0 0 0 0 0 0 0 0 0 0 0 0 0 0 0 0 0 0 0 0 0 0 0 0 0 0 0 0 0 0 0 0 0 0 0 0 0 0 0 0 0 0 0 0 0 0 0 0 0 0 0 0 0 0 0 0 0 0 0 0 0 0 0 0 0 0 0 0 0 0 0 0 0 0 0 0 0 0 0 0 0 0 0 0 0 0 0 0 0 0 0 0 0 0 0 0 0 0 0 0 0 0 0 0 0 0 0 0 0 0 0 0 0 0 0 0 0 0 0 0 0 0 0 0 0 0 0 0 0 0 0 0 0 0 0 0 0 0 0 0 0 0 0 0 0 0 0 0 0 0 0 0 0 0 0 0 0 0 0 0 0 0 0 0 0 0 0 0 0 0 0 0 0 0 0 0 0 0 0 0 0 0 0 0 0 0 0 0 0 0 0 0 0 0 0 0 0 0 0 0 0 0 0 0 0 0 0 0 0 0 0 0 0 0 0 0 0 0 0 0 0 0 0 0 0 0 0 0 0 0 0 0 0 0 0 0 0 0 0 0 0 0 0 0 0 0 0 0 0 0 0 0 0 0 0 0 0 0 0 0 0 0 0 0 0 0 0 0 0 0 0 0 0 0 0 0 0 0 0 0 0 0 0 0 0 0 0 0 0 0 0 0 0 0 0 0 0 0 0 0 0 0 0 0 0 0 0 0 0 0 0 0 0 0 0 0 0 0 0 0 0 0 0 0 0 0 0 0 0 0 0 0 0 0 0 0 0 0 0 0 0 0 0 0 0 0 0 0 0 0 0 0 0 0 0 0 0 0 0 0 0 0 0 0 0 0 0 0 0 0 0 0 0 0 0 0 0 0 0 0 0 0 0 0 0 0 0 0 0 0 0 0 0 0 0 0 0 0 0 0 0 0 0 0 0 0 0 0 0 0 0 0 0 0 0 0 0 0 0 0 0 0 0 0 0 0 0 0 0 0 0 0 0 0 0 0 0 0 0 0 0 0 0 0 0 0 0 0 0 0 0 0 0 0 0 0 0 0 0 0 0 0 0 0 0 0 0 0 0 0 0 0 0 0 0 0 0 0 0 0 0 0 0 0 0 0 0 0 0 0 0 0 0 0 0 0 0 0 0 0 0 0 0 0 0 0 0 0 0 0 0 0 0 0 0 0 0 0 0 0 0 0 0 0 0 0 0 0 0 0 0 0 0 0 0 0 0 0 0 0 0 0 0 0 0 0 0 0 0 0 0 0 0 0 0 0 0 0 0 0 0 0 0 0 0 0 0 0 0 0 0 0 0 0 0 0 0 0 0 0 0 0 0 0 0 0 0 0 0 0 0 0 0 0 0 0 0 0
				</DataArray>
				<DataArray Name="F3" type="Float32" format="ascii">