<?xml version="1.0"?>
<VTKFile type="PolyData">
	<PolyData>
		<Piece NumberOfPoints="961" NumberOfPolys="900">
			<Points>
				<DataArray type="Float32" NumberOfComponents="3" format="ascii">
 0 0 0 0.04 0 0 0.08 0 0 0.12 0 0 0.16 0 0 0.2 0 0 0.24 0 0 0.28 0 0 0.32 0 0 0.36 0 0 0.4 0 0 0.44 0 0 0.48 0 0 0.52 0 0 0.56 0 0 0.6 0 0 0.64 0 0 0.68 0 0 0.72 0 0 0.76 0 0 0.8 0 0 0.84 0 0 0.88 0 0 0.92 0 0 0.96 0 0 1 0 0 1.04 0 0 1.08 0 0 1.12 0 0 1.16 0 0 1.2 0 0 0 0.04 0 0.04 0.04 0 0.08 0.04 0 0.12 0.04 0 0.16 0.04 0 0.2 0.04 0 0.24 0.04 0 0.28 0.04 0 0.32 0.04 0 0.36 0.04 0 0.4 0.04 0 0.44 0.04 0 0.48 0.04 0 0.52 0.04 0 0.56 0.04 0 0.6 0.04 0 0.64 0.04 0 0.68 0.04 0 0.72 0.04 0 0.76 0.04 0 0.8 0.04 0 0.84 0.04 0 0.88 0.04 0 0.92 0.04 0 0.96 0.04 0 1 0.04 0 1.04 0.04 0 1.08 0.04 0 1.12 0.04 0 1.16 0.04 0 1.2 0.04 0 0 0.08 0 0.04 0.08 0 0.08 0.08 0 0.12 0.08 0 0.16 0.08 0 0.2 0.08 0 0.24 0.08 0 0.28 0.08 0 0.32 0.08 0 0.36 0.08 0 0.4 0.08 0 0.44 0.08 0 0.48 0.08 0 0.52 0.08 0 0.56 0.08 0 0.6 0.08 0 0.64 0.08 0 0.68 0.08 0 0.72 0.08 0 0.76 0.08 0 0.8 0.08 0 0.84 0.08 0 0.88 0.08 0 0.92 0.08 0 0.96 0.08 0 1 0.08 0 1.04 0.08 0 1.08 0.08 0 1.12 0.08 0 1.16 0.08 0 1.2 0.08 0 0 0.12 0 0.04 0.12 0 0.08 0.12 0 0.12 0.12 0 0.16 0.12 0 0.2 0.12 0 0.24 0.12 0 0.28 0.12 0 0.32 0.12 0 0.36 0.12 0 0.4 0.12 0 0.44 0.12 0 0.48 0.12 0 0.52 0.12 0 0.56 0.12 0 0.6 0.12 0 0.64 0.12 0 0.68 0.12 0 0.72 0.12 0 0.76 0.12 0 0.8 0.12 0 0.84 0.12 0 0.88 0.12 0 0.92 0.12 0 0.96 0.12 0 1 0.12 0 1.04 0.12 0 1.08 0.12 0 1.12 0.12 0 1.16 0.12 0 1.2 0.12 0 0 0.16 0 0.04 0.16 0 0.08 0.16 0 0.12 0.16 0 0.16 0.16 0 0.2 0.16 0 0.24 0.16 0 0.28 0.16 0 0.32 0.16 0 0.36 0.16 0 0.4 0.16 0 0.44 0.16 0 0.48 0.16 0 0.52 0.16 0 0.56 0.16 0 0.6 0.16 0 0.64 0.16 0 0.68 0.16 0 0.72 0.16 0 0.76 0.16 0 0.8 0.16 0 0.84 0.16 0 0.88 0.16 0 0.92 0.16 0 0.96 0.16 0 1 0.16 0 1.04 0.16 0 1.08 0.16 0 1.12 0.16 0 1.16 0.16 0 1.2 0.16 0 0 0.2 0 0.04 0.2 0 0.08 0.2 0 0.12 0.2 0 0.16 0.2 0 0.2 0.2 0 0.24 0.2 0 0.28 0.2 0 0.32 0.2 0 0.36 0.2 0 0.4 0.2 0 0.44 0.2 0 0.48 0.2 0 0.52 0.2 0 0.56 0.2 0 0.6 0.2 0 0.64 0.2 0 0.68 0.2 0 0.72 0.2 0 0.76 0.2 0 0.8 0.2 0 0.84 0.2 0 0.88 0.2 0 0.92 0.2 0 0.96 0.2 0 1 0.2 0 1.04 0.2 0 1.08 0.2 0 1.12 0.2 0 1.16 0.2 0 1.2 0.2 0 0 0.24 0 0.04 0.24 0 0.08 0.24 0 0.12 0.24 0 0.16 0.24 0 0.2 0.24 0 0.24 0.24 0 0.28 0.24 0 0.32 0.24 0 0.36 0.24 0 0.4 0.24 0 0.44 0.24 0 0.48 0.24 0 0.52 0.24 0 0.56 0.24 0 0.6 0.24 0 0.64 0.24 0 0.68 0.24 0 0.72 0.24 0 0.76 0.24 0 0.8 0.24 0 0.84 0.24 0 0.88 0.24 0 0.92 0.24 0 0.96 0.24 0 1 0.24 0 1.04 0.24 0 1.08 0.24 0 1.12 0.24 0 1.16 0.24 0 1.2 0.24 0 0 0.28 0 0.04 0.28 0 0.08 0.28 0 0.12 0.28 0 0.16 0.28 0 0.2 0.28 0 0.24 0.28 0 0.28 0.28 0 0.32 0.28 0 0.36 0.28 0 0.4 0.28 0 0.44 0.28 0 0.48 0.28 0 0.52 0.28 0 0.56 0.28 0 0.6 0.28 0 0.64 0.28 0 0.68 0.28 0 0.72 0.28 0 0.76 0.28 0 0.8 0.28 0 0.84 0.28 0 0.88 0.28 0 0.92 0.28 0 0.96 0.28 0 1 0.28 0 1.04 0.28 0 1.08 0.28 0 1.12 0.28 0 1.16 0.28 0 1.2 0.28 0 0 0.32 0 0.04 0.32 0 0.08 0.32 0 0.12 0.32 0 0.16 0.32 0 0.2 0.32 0 0.24 0.32 0 0.28 0.32 0 0.32 0.32 0 0.36 0.32 0 0.4 0.32 0 0.44 0.32 0 0.48 0.32 0 0.52 0.32 0 0.56 0.32 0 0.6 0.32 0 0.64 0.32 0 0.68 0.32 0 0.72 0.32 0 0.76 0.32 0 0.8 0.32 0 0.84 0.32 0 0.88 0.32 0 0.92 0.32 0 0.96 0.32 0 1 0.32 0 1.04 0.32 0 1.08 0.32 0 1.12 0.32 0 1.16 0.32 0 1.2 0.32 0 0 0.36 0 0.04 0.36 0 0.08 0.36 0 0.12 0.36 0 0.16 0.36 0 0.2 0.36 0 0.24 0.36 0 0.28 0.36 0 0.32 0.36 0 0.36 0.36 0 0.4 0.36 0 0.44 0.36 0 0.48 0.36 0 0.52 0.36 0 0.56 0.36 0 0.6 0.36 0 0.64 0.36 0 0.68 0.36 0 0.72 0.36 0 0.76 0.36 0 0.8 0.36 0 0.84 0.36 0 0.88 0.36 0 0.92 0.36 0 0.96 0.36 0 1 0.36 0 1.04 0.36 0 1.08 0.36 0 1.12 0.36 0 1.16 0.36 0 1.2 0.36 0 0 0.4 0 0.04 0.4 0 0.08 0.4 0 0.12 0.4 0 0.16 0.4 0 0.2 0.4 0 0.24 0.4 0 0.28 0.4 0 0.32 0.4 0 0.36 0.4 0 0.4 0.4 0 0.44 0.4 0 0.48 0.4 0 0.52 0.4 0 0.56 0.4 0 0.6 0.4 0 0.64 0.4 0 0.68 0.4 0 0.72 0.4 0 0.76 0.4 0 0.8 0.4 0 0.84 0.4 0 0.88 0.4 0 0.92 0.4 0 0.96 0.4 0 1 0.4 0 1.04 0.4 0 1.08 0.4 0 1.12 0.4 0 1.16 0.4 0 1.2 0.4 0 0 0.44 0 0.04 0.44 0 0.08 0.44 0 0.12 0.44 0 0.16 0.44 0 0.2 0.44 0 0.24 0.44 0 0.28 0.44 0 0.32 0.44 0 0.36 0.44 0 0.4 0.44 0 0.44 0.44 0 0.48 0.44 0 0.52 0.44 0 0.56 0.44 0 0.6 0.44 0 0.64 0.44 0 0.68 0.44 0 0.72 0.44 0 0.76 0.44 0 0.8 0.44 0 0.84 0.44 0 0.88 0.44 0 0.92 0.44 0 0.96 0.44 0 1 0.44 0 1.04 0.44 0 1.08 0.44 0 1.12 0.44 0 1.16 0.44 0 1.2 0.44 0 0 0.48 0 0.04 0.48 0 0.08 0.48 0 0.12 0.48 0 0.16 0.48 0 0.2 0.48 0 0.24 0.48 0 0.28 0.48 0 0.32 0.48 0 0.36 0.48 0 0.4 0.48 0 0.44 0.48 0 0.48 0.48 0 0.52 0.48 0 0.56 0.48 0 0.6 0.48 0 0.64 0.48 0 0.68 0.48 0 0.72 0.48 0 0.76 0.48 0 0.8 0.48 0 0.84 0.48 0 0.88 0.48 0 0.92 0.48 0 0.96 0.48 0 1 0.48 0 1.04 0.48 0 1.08 0.48 0 1.12 0.48 0 1.16 0.48 0 1.2 0.48 0 0 0.52 0 0.04 0.52 0 0.08 0.52 0 0.12 0.52 0 0.16 0.52 0 0.2 0.52 0 0.24 0.52 0 0.28 0.52 0 0.32 0.52 0 0.36 0.52 0 0.4 0.52 0 0.44 0.52 0 0.48 0.52 0 0.52 0.52 0 0.56 0.52 0 0.6 0.52 0 0.64 0.52 0 0.68 0.52 0 0.72 0.52 0 0.76 0.52 0 0.8 0.52 0 0.84 0.52 0 0.88 0.52 0 0.92 0.52 0 0.96 0.52 0 1 0.52 0 1.04 0.52 0 1.08 0.52 0 1.12 0.52 0 1.16 0.52 0 1.2 0.52 0 0 0.56 0 0.04 0.56 0 0.08 0.56 0 0.12 0.56 0 0.16 0.56 0 0.2 0.56 0 0.24 0.56 0 0.28 0.56 0 0.32 0.56 0 0.36 0.56 0 0.4 0.56 0 0.44 0.56 0 0.48 0.56 0 0.52 0.56 0 0.56 0.56 0 0.6 0.56 0 0.64 0.56 0 0.68 0.56 0 0.72 0.56 0 0.76 0.56 0 0.8 0.56 0 0.84 0.56 0 0.88 0.56 0 0.92 0.56 0 0.96 0.56 0 1 0.56 0 1.04 0.56 0 1.08 0.56 0 1.12 0.56 0 1.16 0.56 0 1.2 0.56 0 0 0.6 0 0.04 0.6 0 0.08 0.6 0 0.12 0.6 0 0.16 0.6 0 0.2 0.6 0 0.24 0.6 0 0.28 0.6 0 0.32 0.6 0 0.36 0.6 0 0.4 0.6 0 0.44 0.6 0 0.48 0.6 0 0.52 0.6 0 0.56 0.6 0 0.6 0.6 0 0.64 0.6 0 0.68 0.6 0 0.72 0.6 0 0.76 0.6 0 0.8 0.6 0 0.84 0.6 0 0.88 0.6 0 0.92 0.6 0 0.96 0.6 0 1 0.6 0 1.04 0.6 0 1.08 0.6 0 1.12 0.6 0 1.16 0.6 0 1.2 0.6 0 0 0.64 0 0.04 0.64 0 0.08 0.64 0 0.12 0.64 0 0.16 0.64 0 0.2 0.64 0 0.24 0.64 0 0.28 0.64 0 0.32 0.64 0 0.36 0.64 0 0.4 0.64 0 0.44 0.64 0 0.48 0.64 0 0.52 0.64 0 0.56 0.64 0 0.6 0.64 0 0.64 0.64 0 0.68 0.64 0 0.72 0.64 0 0.76 0.64 0 0.8 0.64 0 0.84 0.64 0 0.88 0.64 0 0.92 0.64 0 0.96 0.64 0 1 0.64 0 1.04 0.64 0 1.08 0.64 0 1.12 0.64 0 1.16 0.64 0 1.2 0.64 0 0 0.68 0 0.04 0.68 0 0.08 0.68 0 0.12 0.68 0 0.16 0.68 0 0.2 0.68 0 0.24 0.68 0 0.28 0.68 0 0.32 0.68 0 0.36 0.68 0 0.4 0.68 0 0.44 0.68 0 0.48 0.68 0 0.52 0.68 0 0.56 0.68 0 0.6 0.68 0 0.64 0.68 0 0.68 0.68 0 0.72 0.68 0 0.76 0.68 0 0.8 0.68 0 0.84 0.68 0 0.88 0.68 0 0.92 0.68 0 0.96 0.68 0 1 0.68 0 1.04 0.68 0 1.08 0.68 0 1.12 0.68 0 1.16 0.68 0 1.2 0.68 0 0 0.72 0 0.04 0.72 0 0.08 0.72 0 0.12 0.72 0 0.16 0.72 0 0.2 0.72 0 0.24 0.72 0 0.28 0.72 0 0.32 0.72 0 0.36 0.72 0 0.4 0.72 0 0.44 0.72 0 0.48 0.72 0 0.52 0.72 0 0.56 0.72 0 0.6 0.72 0 0.64 0.72 0 0.68 0.72 0 0.72 0.72 0 0.76 0.72 0 0.8 0.72 0 0.84 0.72 0 0.88 0.72 0 0.92 0.72 0 0.96 0.72 0 1 0.72 0 1.04 0.72 0 1.08 0.72 0 1.12 0.72 0 1.16 0.72 0 1.2 0.72 0 0 0.76 0 0.04 0.76 0 0.08 0.76 0 0.12 0.76 0 0.16 0.76 0 0.2 0.76 0 0.24 0.76 0 0.28 0.76 0 0.32 0.76 0 0.36 0.76 0 0.4 0.76 0 0.44 0.76 0 0.48 0.76 0 0.52 0.76 0 0.56 0.76 0 0.6 0.76 0 0.64 0.76 0 0.68 0.76 0 0.72 0.76 0 0.76 0.76 0 0.8 0.76 0 0.84 0.76 0 0.88 0.76 0 0.92 0.76 0 0.96 0.76 0 1 0.76 0 1.04 0.76 0 1.08 0.76 0 1.12 0.76 0 1.16 0.76 0 1.2 0.76 0 0 0.8 0 0.04 0.8 0 0.08 0.8 0 0.12 0.8 0 0.16 0.8 0 0.2 0.8 0 0.24 0.8 0 0.28 0.8 0 0.32 0.8 0 0.36 0.8 0 0.4 0.8 0 0.44 0.8 0 0.48 0.8 0 0.52 0.8 0 0.56 0.8 0 0.6 0.8 0 0.64 0.8 0 0.68 0.8 0 0.72 0.8 0 0.76 0.8 0 0.8 0.8 0 0.84 0.8 0 0.88 0.8 0 0.92 0.8 0 0.96 0.8 0 1 0.8 0 1.04 0.8 0 1.08 0.8 0 1.12 0.8 0 1.16 0.8 0 1.2 0.8 0 0 0.84 0 0.04 0.84 0 0.08 0.84 0 0.12 0.84 0 0.16 0.84 0 0.2 0.84 0 0.24 0.84 0 0.28 0.84 0 0.32 0.84 0 0.36 0.84 0 0.4 0.84 0 0.44 0.84 0 0.48 0.84 0 0.52 0.84 0 0.56 0.84 0 0.6 0.84 0 0.64 0.84 0 0.68 0.84 0 0.72 0.84 0 0.76 0.84 0 0.8 0.84 0 0.84 0.84 0 0.88 0.84 0 0.92 0.84 0 0.96 0.84 0 1 0.84 0 1.04 0.84 0 1.08 0.84 0 1.12 0.84 0 1.16 0.84 0 1.2 0.84 0 0 0.88 0 0.04 0.88 0 0.08 0.88 0 0.12 0.88 0 0.16 0.88 0 0.2 0.88 0 0.24 0.88 0 0.28 0.88 0 0.32 0.88 0 0.36 0.88 0 0.4 0.88 0 0.44 0.88 0 0.48 0.88 0 0.52 0.88 0 0.56 0.88 0 0.6 0.88 0 0.64 0.88 0 0.68 0.88 0 0.72 0.88 0 0.76 0.88 0 0.8 0.88 0 0.84 0.88 0 0.88 0.88 0 0.92 0.88 0 0.96 0.88 0 1 0.88 0 1.04 0.88 0 1.08 0.88 0 1.12 0.88 0 1.16 0.88 0 1.2 0.88 0 0 0.92 0 0.04 0.92 0 0.08 0.92 0 0.12 0.92 0 0.16 0.92 0 0.2 0.92 0 0.24 0.92 0 0.28 0.92 0 0.32 0.92 0 0.36 0.92 0 0.4 0.92 0 0.44 0.92 0 0.48 0.92 0 0.52 0.92 0 0.56 0.92 0 0.6 0.92 0 0.64 0.92 0 0.68 0.92 0 0.72 0.92 0 0.76 0.92 0 0.8 0.92 0 0.84 0.92 0 0.88 0.92 0 0.92 0.92 0 0.96 0.92 0 1 0.92 0 1.04 0.92 0 1.08 0.92 0 1.12 0.92 0 1.16 0.92 0 1.2 0.92 0 0 0.96 0 0.04 0.96 0 0.08 0.96 0 0.12 0.96 0 0.16 0.96 0 0.2 0.96 0 0.24 0.96 0 0.28 0.96 0 0.32 0.96 0 0.36 0.96 0 0.4 0.96 0 0.44 0.96 0 0.48 0.96 0 0.52 0.96 0 0.56 0.96 0 0.6 0.96 0 0.64 0.96 0 0.68 0.96 0 0.72 0.96 0 0.76 0.96 0 0.8 0.96 0 0.84 0.96 0 0.88 0.96 0 0.92 0.96 0 0.96 0.96 0 1 0.96 0 1.04 0.96 0 1.08 0.96 0 1.12 0.96 0 1.16 0.96 0 1.2 0.96 0 0 1 0 0.04 1 0 0.08 1 0 0.12 1 0 0.16 1 0 0.2 1 0 0.24 1 0 0.28 1 0 0.32 1 0 0.36 1 0 0.4 1 0 0.44 1 0 0.48 1 0 0.52 1 0 0.56 1 0 0.6 1 0 0.64 1 0 0.68 1 0 0.72 1 0 0.76 1 0 0.8 1 0 0.84 1 0 0.88 1 0 0.92 1 0 0.96 1 0 1 1 0 1.04 1 0 1.08 1 0 1.12 1 0 1.16 1 0 1.2 1 0 0 1.04 0 0.04 1.04 0 0.08 1.04 0 0.12 1.04 0 0.16 1.04 0 0.2 1.04 0 0.24 1.04 0 0.28 1.04 0 0.32 1.04 0 0.36 1.04 0 0.4 1.04 0 0.44 1.04 0 0.48 1.04 0 0.52 1.04 0 0.56 1.04 0 0.6 1.04 0 0.64 1.04 0 0.68 1.04 0 0.72 1.04 0 0.76 1.04 0 0.8 1.04 0 0.84 1.04 0 0.88 1.04 0 0.92 1.04 0 0.96 1.04 0 1 1.04 0 1.04 1.04 0 1.08 1.04 0 1.12 1.04 0 1.16 1.04 0 1.2 1.04 0 0 1.08 0 0.04 1.08 0 0.08 1.08 0 0.12 1.08 0 0.16 1.08 0 0.2 1.08 0 0.24 1.08 0 0.28 1.08 0 0.32 1.08 0 0.36 1.08 0 0.4 1.08 0 0.44 1.08 0 0.48 1.08 0 0.52 1.08 0 0.56 1.08 0 0.6 1.08 0 0.64 1.08 0 0.68 1.08 0 0.72 1.08 0 0.76 1.08 0 0.8 1.08 0 0.84 1.08 0 0.88 1.08 0 0.92 1.08 0 0.96 1.08 0 1 1.08 0 1.04 1.08 0 1.08 1.08 0 1.12 1.08 0 1.16 1.08 0 1.2 1.08 0 0 1.12 0 
[...]
			<CellData Scalars="Density">
				<DataArray Name="Density" type="Float32" format="ascii">
 0.00620658 0.00638206 0.00686308 0.00778333 0.0092342 0.0113955 0.0145827 0.0191929 0.0256553 0.0344719 0.0462778 0.0619678 0.083178 0.11321 0.159012 0.233705 0.353318 0.528172 0.762606 1.0217 1.11922 0.941388 0.780402 0.767407 0.803771 0.857511 0.900268 0.932115 0.956125 0.969221 0.00638092 0.00647223 0.00680935 0.00751175 0.00857598 0.0102085 0.0127761 0.0167044 0.0224578 0.0307204 0.0423274 0.0581956 0.0796087 0.108904 0.151836 0.21945 0.332268 0.513521 0.7789 1.08036 1.18777 0.997589 0.827943 0.807344 0.836934 0.885893 0.926418 0.957437 0.98126 0.984882 0.00685933 0.00680796 0.00695072 0.00747003 0.0083629 0.0097191 0.0119332 0.0155523 0.0213523 0.0302064 0.0433803 0.0622604 0.0870507 0.117549 0.156298 0.212897 0.305108 0.46139 0.702348 1.00164 1.14076 0.978587 0.818254 0.808512 0.842807 0.898553 0.944937 0.979273 1.00587 1.01546 0.00777393 0.00750757 0.00746897 0.00799302 0.00891347 0.0104115 0.0131721 0.0180508 0.0266445 0.0403718 0.060745 0.0885386 0.123049 0.163968 0.212163 0.272834 0.36193 0.507495 0.739035 1.02123 1.14832 0.995736 0.842353 0.83481 0.864082 0.920525 0.967613 1.00274 1.03053 1.03916 0.00921492 0.00856583 0.00835873 0.00890931 0.00984603 0.0112295 0.0144451 0.0212142 0.0328819 0.0503879 0.0740271 0.104583 0.142989 0.192086 0.254041 0.329255 0.426129 0.563944 0.771436 1.03342 1.16043 1.01227 0.864345 0.853998 0.875002 0.929358 0.975517 1.01082 1.0391 1.0486 0.0113624 0.0101888 0.00970854 0.0103961 0.0112106 0.0117288 0.013976 0.0203342 0.0323602 0.0505692 0.0734824 0.10229 0.140712 0.193714 0.264574 0.353664 0.466434 0.612461 0.812067 1.05062 1.16232 1.0323 0.887364 0.869938 0.882009 0.932475 0.97752 1.01183 1.04061 1.05348 0.014533 0.0127451 0.0119126 0.0131422 0.0143983 0.0139509 0.013347 0.0166334 0.0250712 0.0384968 0.0561896 0.0784928 0.112596 0.168527 0.252444 0.358027 0.484314 0.638958 0.82632 1.04 1.16403 1.0752 0.920884 0.884919 0.881813 0.925037 0.97017 1.00442 1.03264 1.04578 0.019124 0.0166574 0.0155166 0.0180008 0.0211418 0.0202911 0.016658 0.015453 0.0184647 0.0263828 0.0392082 0.0570612 0.0856323 0.134521 0.212401 0.32397 0.465979 0.629743 0.817466 1.01387 1.15527 1.11784 0.964305 0.905798 0.888925 0.922886 0.969649 1.00671 1.0359 1.04952 0.0255702 0.0223927 0.0212929 0.0265547 0.0327746 0.0322932 0.025108 0.0184597 0.0179856 0.0211341 0.0290243 0.0427497 0.0658806 0.106782 0.175458 0.279765 0.425308 0.598317 0.783588 0.971209 1.12345 1.16024 1.04008 0.948069 0.916958 0.937347 0.985357 1.02716 1.05859 1.07051 0.0343772 0.030633 0.0301122 0.0402178 0.0502487 0.0505135 0.0385819 0.0263735 0.0210983 0.0214597 0.0255911 0.0353729 0.0532385 0.085736 0.141802 0.230372 0.358711 0.528874 0.714278 0.903594 1.07075 1.17499 1.13282 1.02339 0.974814 0.976424 1.01895 1.06404 1.09784 1.10994 0.0461811 0.0422141 0.0432356 0.0605315 0.0738928 0.0734777 0.0563306 0.0391879 0.0289664 0.0255572 0.0267588 0.0333208 0.047536 0.0727515 0.116646 0.188718 0.296713 0.444552 0.628824 0.82163 1.00941 1.15914 1.2214 1.13518 1.0622 1.04213 1.06892 1.11427 1.15108 1.16391 0.0618762 0.0580637 0.062048 0.0882807 0.104467 0.102353 0.0785526 0.0570009 0.0426873 0.0353415 0.0333265 0.0365297 0.0474533 0.0678572 0.101343 0.157197 0.244707 0.368424 0.529184 0.717507 0.921491 1.11488 1.24945 1.26157 1.18172 1.13503 1.13036 1.16482 1.20226 1.2163 0.0831 0.0794802 0.0867972 0.122766 0.142881 0.140726 0.112521 0.085542 0.065876 0.0533055 0.0476341 0.0475426 0.0522048 0.0679154 0.0947298 0.136824 0.204714 0.305738 0.441187 0.608483 0.809913 1.03173 1.2333 1.35806 1.32312 1.24424 1.20651 1.21731 1.24775 1.26189 0.113166 0.108798 0.117288 0.163646 0.191957 0.193691 0.168456 0.134589 0.106998 0.0860012 0.0729791 0.0680119 0.0680185 0.0736926 0.0943536 0.128051 0.179238 0.258644 0.371644 0.51632 0.696681 0.922209 1.17128 1.37642 1.46105 1.39112 1.31019 1.28006 1.29157 1.3035 0.159046 0.151774 0.156069 0.211795 0.25385 0.264505 0.252393 0.212634 0.175927 0.142246 0.117011 0.101587 0.0949135 0.0945069 0.100789 0.127162 0.168083 0.228368 0.319093 0.443096 0.603281 0.809929 1.07053 1.35055 1.55532 1.56413 1.44337 1.37157 1.34777 1.34944 0.233882 0.219464 0.212773 0.272456 0.32901 0.353593 0.358017 0.324139 0.280417 0.230971 0.189221 0.157598 0.137095 0.128242 0.127279 0.133579 0.16667 0.215209 0.285179 0.387778 0.529306 0.715484 0.964568 1.27399 1.57012 1.72493 1.63772 1.49754 1.42669 1.40529 0.353683 0.3324 0.305133 0.361533 0.425861 0.466307 0.484231 0.466133 0.425895 0.359515 0.297445 0.245399 0.205273 0.179564 0.168221 0.166712 0.17341 0.213425 0.270454 0.351837 0.471958 0.639726 0.865925 1.18094 1.55205 1.83997 1.85951 1.67728 1.55236 1.4861 0.528684 0.513792 0.461525 0.507241 0.563612 0.612324 0.638862 0.629778 0.598559 0.529588 0.445378 0.369337 0.306598 0.259241 0.228573 0.215208 0.213341 0.220657 0.267972 0.335204 0.432546 0.576814 0.781752 1.07637 1.47118 1.87343 2.08906 1.94404 1.73712 1.61007 0.763089 0.779279 0.702468 0.739 0.771112 0.811984 0.826228 0.817474 0.783846 0.714818 0.629416 0.529986 0.442158 0.372514 0.319575 0.285324 0.270435 0.267914 0.276763 0.331793 0.412964 0.532229 0.710175 0.974975 1.36734 1.84707 2.25887 2.27046 2.0291 1.8244 1.02194 1.08058 1.00168 1.02123 1.03325 1.05066 1.03999 1.01397 0.971514 0.904094 0.822222 0.718305 0.609523 0.517442 0.443971 0.388296 0.352073 0.335272 0.331752 0.346841 0.409166 0.509802 0.658647 0.890299 1.24825 1.75923 2.32365 2.61935 2.44041 2.17267 1.11901 1.18754 1.14058 1.14809 1.16025 1.16208 1.16387 1.15518 1.12358 1.07106 1.00989 0.922106 0.810674 0.697606 0.604207 0.53012 0.472537 0.432848 0.413045 0.409055 0.42983 0.505252 0.633964 0.827157 1.14145 1.63417 2.28562 2.8731 2.942 2.72795 0.940793 0.997071 0.978126 0.995367 1.0119 1.03172 1.07475 1.11724 1.15979 1.17492 1.15926 1.11515 1.03237 0.922963 0.810789 0.71639 0.640494 0.577312 0.532468 0.509664 0.504498 0.534077 0.629928 0.800468 1.06409 1.50192 2.17697 2.99925 3.51188 3.50892 0.780288 0.827822 0.818166 0.842243 0.864215 0.887136 0.920615 0.963857 1.03948 1.13217 1.22088 1.24931 1.23336 1.17158 1.0712 0.965288 0.866492 0.781959 0.710466 0.659091 0.633906 0.628354 0.677162 0.804016 1.03768 1.42053 2.07017 3.04018 4.14178 4.5403 0.767384 0.807318 0.808498 0.834773 0.853978 0.869887 0.88486 0.90565 0.947778 1.02291 1.13455 1.26076 1.35746 1.3764 1.35068 1.27431 1.18135 1.07659 0.975822 0.890729 0.827433 0.801322 0.801029 0.882288 1.07442 1.42033 2.02447 3.05258 4.62098 5.86476 0.803829 0.836988 0.842867 0.864132 0.875061 0.882079 0.881839 0.888916 0.916807 0.974503 1.06174 1.18102 1.32244 1.46063 1.55514 1.57023 1.55236 1.47144 1.36749 1.24995 1.14153 1.06367 1.03985 1.0689 1.21494 1.55206 2.12463 3.13214 4.95688 7.28418 0.857572 0.885956 0.89862 0.920612 0.929446 0.932601 0.925142 0.922974 0.937326 0.976294 1.04178 1.13453 1.24383 1.39073 1.5638 1.72458 1.83968 1.87322 1.84674 1.75854 1.63682 1.50223 1.41993 1.42388 1.54284 1.84243 2.44427 3.47044 5.34895 8.47265 0.900346 0.926496 0.945016 0.967707 0.975642 0.97765 0.970292 0.969745 0.985389 1.01886 1.06873 1.13013 1.20618 1.31002 1.44326 1.63757 1.85951 2.08881 2.25851 2.32294 2.28411 2.17906 2.07032 2.02276 2.1325 2.4365 3.01472 4.06142 5.89383 9.22949 0.932211 0.957522 0.979372 1.00285 1.01097 1.01198 1.00455 1.00682 1.0272 1.06396 1.11414 1.16464 1.21713 1.28006 1.3715 1.49757 1.67741 1.94424 2.27059 2.61872 2.87194 2.99736 3.04115 3.05174 3.12846 3.48601 4.07293 5.08125 7.07209 9.93741 0.956235 0.98136 1.00598 1.03065 1.03925 1.04077 1.03279 1.03603 1.05866 1.09779 1.15095 1.20212 1.24766 1.2916 1.3478 1.42678 1.55244 1.73732 2.02943 2.44087 2.94253 3.51286 4.13993 4.62789 4.96689 5.34403 5.89046 7.10828 9.63405 12.536 0.969335 0.984986 1.01559 1.03929 1.04874 1.05364 1.04593 1.04967 1.07059 1.1099 1.1638 1.21618 1.26183 1.30353 1.3495 1.40539 1.48624 1.6102 1.82451 2.17306 2.72872 3.50839 4.54115 5.85482 7.28006 8.47716 9.20085 9.91939 12.5695 16.261
				</DataArray>
				<DataArray Name="Energy" type="Float32" format="ascii">
 983.039 956 888.984 783.774 660.665 535.261 418.238 317.734 237.671 176.827 131.661 98.2451 73.1014 53.5919 37.9757 25.707 16.8393 11.0285 7.37307 5.10737 3.64979 2.49493 1.89685 1.71138 1.60262 1.55825 1.52137 1.49537 1.48102 1.47428 956.171 942.659 895.921 812.173 711.256 597.53 477.369 365.054 271.483 198.464 143.975 104.657 76.4012 55.7057 39.8454 27.3421 17.8318 11.3456 7.29711 4.89733 3.44564 2.3616 1.81893 1.65975 1.56332 1.52779 1.49837 1.47709 1.46651 1.45271 889.471 896.105 877.675 816.578 729.427 627.51 511.02 392.002 285.537 201.801 140.485 97.7873 69.8208 51.5756 38.6228 28.18 19.4432 12.5634 7.96405 5.22497 3.64454 2.4818 1.88403 1.694 1.58282 1.53618 1.49945 1.47315 1.45858 1.44942 784.729 812.625 816.701 763.159 684.227 585.781 462.87 337.688 228.792 150.94 100.261 68.7795 49.4044 36.9377 28.4034 21.9045 16.3346 11.4497 7.68009 5.17788 3.62713 2.48728 1.89284 1.69605 1.58284 1.53674 1.50156 1.4761 1.46164 1.45002 662.045 712.109 729.787 684.546 619.478 542.923 421.978 287.238 185.26 120.844 82.0908 58.1802 42.4401 31.5301 23.7278 18.1676 13.8605 10.2592 7.26383 5.08285 3.61653 2.51824 1.92856 1.72608 1.6117 1.5643 1.52968 1.50466 1.49006 1.47763 536.821 598.683 628.2 586.64 543.821 519.655 435.902 299.494 188.042 120.23 82.5859 59.3121 43.0661 31.1916 22.764 16.8823 12.6541 9.51295 7.02732 5.07064 3.66083 2.59878 1.9937 1.77257 1.65577 1.60409 1.56924 1.54234 1.52673 1.51351 419.665 478.533 511.903 463.934 423.327 436.66 456.232 365.765 242.431 157.653 107.876 77.0745 53.707 35.7762 23.8429 16.7282 12.2415 9.14453 6.89839 5.13109 3.75728 2.73918 2.09704 1.8431 1.72302 1.65829 1.62278 1.59396 1.57605 1.56307 318.877 366.085 392.909 338.633 288.234 300.111 365.188 393.505 328.848 229.775 154.361 105.895 70.4587 44.8103 28.2693 18.4424 12.7393 9.29588 6.99663 5.30466 3.94152 2.93637 2.24734 1.93223 1.79561 1.70221 1.66102 1.62748 1.60611 1.59288 238.465 272.272 286.333 229.557 185.875 188.436 242.091 328.909 337.006 286.603 208.267 141.226 91.4632 56.3225 34.2025 21.3358 13.9478 9.75137 7.25924 5.54511 4.21774 3.17408 2.4436 2.02428 1.84005 1.71849 1.66485 1.62701 1.6045 1.59304 177.313 199.03 202.426 151.517 121.172 120.377 157.307 229.87 287.097 281.703 236.035 170.408 113.082 70.0259 42.2003 25.8459 16.4632 11.0327 7.95604 5.98786 4.58611 3.47803 2.66643 2.13524 1.8654 1.72218 1.64125 1.59953 1.57595 1.56685 131.935 144.359 140.954 100.61 82.2417 82.5887 107.613 154.443 208.693 236.355 225.283 180.736 126.397 82.4114 51.1883 31.4493 19.8228 13.0452 9.01603 6.61739 5.01017 3.84306 2.91546 2.27231 1.88974 1.71094 1.59963 1.55154 1.52786 1.52003 98.3887 104.891 98.1201 68.9812 58.2429 59.2754 77.0159 106.009 141.436 170.568 180.706 164.572 126.419 88.1064 58.766 37.6517 23.9584 15.6837 10.6844 7.60701 5.61511 4.24894 3.23183 2.44924 1.96379 1.70618 1.5753 1.50776 1.48351 1.47443 73.1675 76.5222 70.0222 49.5188 42.4747 43.0635 53.7427 70.5355 91.4737 112.943 126.144 126.184 114.626 87.7886 62.619 43.0771 28.5308 18.851 12.7999 9.0056 6.49316 4.78694 3.59712 2.69835 2.08341 1.72954 1.56857 1.47778 1.44806 1.43719 53.6103 55.7583 51.6885 37.0113 31.5504 31.1961 35.7916 44.7893 56.2101 69.8169 82.1544 87.9126 87.6625 80.6054 62.6053 45.7998 32.4271 22.1964 15.1849 10.6647 7.63754 5.51611 4.04177 3.01069 2.24864 1.80737 1.57976 1.46646 1.42113 1.40849 37.966 39.8604 38.6776 28.4525 23.7458 22.7698 23.8473 28.2391 34.1127 42.0694 51.0348 58.6203 62.5023 62.5134 58.3095 45.8673 34.3688 25.0048 17.6352 12.4403 8.89946 6.41192 4.6166 3.36444 2.49565 1.9189 1.61784 1.47294 1.40555 1.38636 25.6873 27.3388 28.1971 21.9348 18.1819 16.8851 16.7294 18.4331 21.2862 25.7798 31.3652 37.5627 42.9837 45.7339 45.8332 43.3788 34.4422 26.3707 19.6424 14.2124 10.2049 7.37078 5.29767 3.79723 2.78325 2.08283 1.70285 1.4995 1.40441 1.37271 16.8211 17.824 19.4405 16.3516 13.8698 12.657 12.2447 12.7352 13.9295 16.4265 19.7719 23.8935 28.457 32.3627 34.3438 34.4368 32.8675 26.4288 20.6197 15.6462 11.4991 8.35821 6.04119 4.30332 3.10885 2.31221 1.80778 1.55263 1.42197 1.36894 11.0167 11.3395 12.5574 11.4564 10.2637 9.5146 9.1459 9.29505 9.74664 11.0178 13.0193 15.644 18.7983 22.1462 24.9796 26.373 26.4367 25.412 20.7206 16.3924 12.6141 9.37931 6.84659 4.90657 3.51558 2.57983 1.96281 1.64534 1.46077 1.38005 7.36661 7.29347 7.95988 7.68176 7.26441 7.02656 6.89794 6.99616 7.25644 7.94965 9.00693 10.6676 12.7711 15.1502 17.6085 19.6328 20.6219 20.7262 19.9926 16.6029 13.2728 10.3269 7.72565 5.60636 4.01971 2.91797 2.17893 1.76233 1.5367 1.41977 5.10426 4.89559 5.22295 5.17783 5.0825 5.06919 5.12992 5.30343 5.54264 5.98377 6.6119 7.59787 8.98936 10.6416 12.4161 14.1939 15.6365 16.3909 16.605 16.0026 13.5752 10.9408 8.56525 6.40651 4.62467 3.32805 2.44659 1.91618 1.65075 1.49217 3.648 3.44456 3.64319 3.62657 3.61595 3.65947 3.75625 3.94008 4.21545 4.58327 5.00654 5.61021 6.48601 7.62715 8.88581 10.1896 11.4854 12.6064 13.2755 13.5737 13.1094 11.3084 9.16632 7.19718 5.35981 3.86046 2.78897 2.11337 1.80544 1.60634 2.49392 2.36087 2.48102 2.48679 2.51766 2.59775 2.73804 2.93505 3.17248 3.47583 3.84065 4.24625 4.78277 5.51082 6.40458 7.36176 8.34889 9.37051 10.3194 10.9564 11.309 10.9403 9.6016 7.80078 6.10988 4.54137 3.28925 2.42127 2.00269 1.75855 1.89685 1.81894 1.88401 1.89282 1.92843 1.99346 2.09649 2.24641 2.44241 2.66503 2.91393 3.2301 3.59527 4.03945 4.61291 5.29346 6.03712 6.84427 7.72063 8.55168 9.19037 9.59934 9.28416 8.2683 6.74918 5.25845 3.91907 2.90104 2.2653 1.9435 1.71152 1.65987 1.69408 1.69612 1.72607 1.77247 1.84282 1.93189 2.02383 2.13453 2.27153 2.44861 2.69743 3.00945 3.36316 3.7956 4.30138 4.90571 5.60671 6.40399 7.18302 7.82471 8.25981 8.00211 7.18523 5.92396 4.6141 3.52527 2.66885 2.15054 1.60283 1.56351 1.58297 1.58293 1.61171 1.6557 1.72284 1.79543 1.83987 1.86545 1.88975 1.96361 2.08322 2.24813 2.4948 2.78238 3.10784 3.51381 4.01826 4.62393 5.35892 6.10367 6.77074 7.16047 6.9942 6.31758 5.26728 4.15414 3.13015 2.34421 1.55847 1.52799 1.53635 1.53685 1.56433 1.60407 1.65823 1.70217 1.71847 1.72225 1.71114 1.70657 1.72973 1.80717 1.91879 2.08266 2.31199 2.57961 2.91679 3.32735 3.85875 4.54421 5.25543 5.94346 6.28253 6.1449 5.53141 4.53626 3.46123 2.49399 1.52159 1.49857 1.49961 1.50167 1.52971 1.56922 1.62273 1.66099 1.66491 1.64149 1.59997 1.57566 1.56885 1.57987 1.61788 1.70281 1.80767 1.96262 2.17865 2.44611 2.78721 3.28935 3.92175 4.61902 5.28013 5.49844 5.26234 4.54433 3.57401 2.59079 1.49559 1.47729 1.47332 1.47622 1.50469 1.54233 1.59394 1.62746 1.62707 1.59976 1.55191 1.50819 1.47812 1.46659 1.47299 1.49953 1.55253 1.64526 1.76218 1.91592 2.1131 2.41998 2.90226 3.52446 4.15643 4.5428 4.52832 4.1361 3.33874 2.61905 1.48124 1.4667 1.45874 1.46174 1.4901 1.52673 1.57603 1.60611 1.60456 1.57617 1.52821 1.48391 1.44842 1.42133 1.40567 1.40441 1.42189 1.46074 1.53672 1.65088 1.80572 2.00335 2.26348 2.67096 3.12806 3.4622 3.57657 3.32529 2.73161 2.32547 1.4745 1.45291 1.4496 1.45014 1.47767 1.51352 1.56305 1.59286 1.5931 1.56705 1.52036 1.4748 1.43757 1.40871 1.38652 1.37271 1.36887 1.37998 1.41972 1.49223 1.60654 1.75852 1.94353 2.14919 2.34201 2.49318 2.58813 2.61894 2.32626 1.99292
				</DataArray>
				<DataArray Name="F1" type="Float32" format="ascii">
 1 1 1 1 1 1 1 1 1 1 1 1 1 1 1 1 1 1 1 1 1 1 1 1 1 1 1 1 1 1 1 1 1 1 1 1 1 1 1 1 1 1 1 1 1 1 1 1 1 1 1 1 1 1 1 1 1 1 1 1 1 1 1 1 1 1 1 1 1 1 1 1 1 1 1 1 1 1 1 1 1 1 1 1 1 1 1 1 1 1 1 1 1 1 1 1 1 1 1 1 1 1 1 1 1 1 1 1 1 1 1 1 1 1 1 1 1 1 1 1 1 1 1 1 1 1 1 1 1 1 1 1 1 1 1 1 1 1 1 1 1 1 1 1 1 1 1 1 1 1 1 1 1 1 1 1 1 1 1 1 1 1 1 1 1 1 1 1 1 1 1 1 1 1 1 1 1 1 1 1 1 1 1 1 1 1 1 1 1 1 1 1 1 1 1 1 1 1 1 1 1 1 1 1 1 1 1 1 1 1 1 1 1 1 1 1 1 1 1 1 1 1 1 1 1 1 1 1 1 1 1 1 1 1 1 1 1 1 1 1 1 1 1 1 1 1 1 1 1 1 1 1 1 1 1 1 1 1 1 1 1 1 1 1 1 1 1 1 1 1 1 1 1 1 1 1 1 1 1 1 1 1 1 1 1 1 1 1 1 1 1 1 1 1 1 1 1 1 1 1 1 1 1 1 1 1 1 1 1 1 1 1 1 1 1 1 1 1 1 1 1 1 1 1 1 1 1 1 1 1 1 1 1 1 1 1 1 1 1 1 1 1 1 1 1 1 1 1 1 1 1 1 1 1 1 1 1 1 1 1 1 1 1 1 1 1 1 1 1 1 1 1 1 1 1 1 1 1 1 1 1 1 1 1 1 1 1 1 1 1 1 1 1 1 1 1 1 1 1 1 1 1 1 1 1 1 1 1 1 1 1 1 1 1 1 1 1 1 1 1 1 1 1 1 1 1 1 1 1 1 1 1 1 1 1 1 1 1 1 1 1 1 1 1 1 1 1 1 1 1 1 1 1 1 1 1 1 1 1 1 1 1 1 1 1 1 1 1 1 1 1 1 1 1 1 1 1 1 1 1 1 1 1 1 1 1 1 1 1 1 1 1 1 1 1 1 1 1 1 1 1 1 1 1 1 1 1 1 1 1 1 1 1 1 1 1 1 1 1 1 1 1 1 1 1 1 1 1 1 1 1 1 1 1 1 1 1 1 1 1 1 1 1 1 1 1 1 1 1 1 1 1 1 1 1 1 1 1 1 1 1 1 1 1 1 1 1 1 1 1 1 1 1 1 1 1 1 1 1 1 1 1 1 1 1 1 1 1 1 1 1 1 1 1 1 1 1 1 1 1 1 1 1 1 1 1 1 1 1 1 1 1 1 1 1 1 1 1 1 1 1 1 1 1 1 1 1 1 1 1 1 1 1 1 1 1 1 1 1 1 1 1 1 1 1 1 1 1 1 1 1 1 1 1 1 1 1 1 1 1 1 1 1 1 1 1 1 1 1 1 1 1 1 1 1 1 1 1 1 1 1 1 1 1 1 1 1 1 1 1 1 1 1 1 1 1 1 1 1 1 1 1 1 1 1 1 1 1 1 1 1 1 1 1 1 1 1 1 1 1 1 1 1 1 1 1 1 1 1 1 1 1 1 1 1 1 1 1 1 1 1 1 1 1 1 1 1 1 1 1 1 1 1 1 1 1 1 1 1 1 1 1 1 1 1 1 1 1 1 1 1 1 1 1 1 1 1 1 1 1 1 1 1 1 1 1 1 1 1 1 1 1 1 1 1 1 1 1 1 1 1 1 1 1 1 1 1 1 1 1 1 1 1 1 1 1 1 1 1 1 1 1 1 1 1 1 1 1 1 1 1 1 1 1 1 1 1 1 1 1 1 1 1 1 1 1 1 1 1 1 1 1 1 1 1 1 1 1 1 1 1 1 1 1 1 1 1 1 1 1 1 1 1 1 1 1 1 1 1 1 1 1 1 1 1 1 1 1 1 1 1 1 1 1 1 1 1 1 1 1
				</DataArray>
				<DataArray Name="F2" type="Float32" format="ascii">
 0 0 0 0 0 0 0 0 0 0 0 0 0 0 0 0 0 0 0 0 0 0 0 0 0 0 0 0 0 0 0 0 0 0 0 0 0 0 0 0 0 0 0 0 0 0 0 0 0 0 0 0 0 0 0 0 0 0 0 0 0 0 0 0 0 0 0 0 0 0 0 0 0 0 0 0 0 0 0 0 0 0 0 0 0 0 0 0 0 0 0 0 0 0 0 0 0 0 0 0 0 0 0 0 0 0 0 0 0 0 0 0 0 0 0 0 0 0 0 0 0 0 0 0 0 0 0 0 0 0 0 0 0 0 0 0 0 0 0 0 0 0 0 0 0 0 0 0 0 0 0 0 0 0 0 0 0 0 0 0 0 0 0 0 0 0 0 0 0 0 0 0 0 0 0 0 0 0 0 0 0 0 0 0 0 0 0 0 0 0 0 0 0 0 0 0 0 0 0 0 0 0 0 0 0 0 0 0 0 0 0 0 0 0 0 0 0 0 0 0 0 0 0 0 0 0 0 0 0 0 0 0 0 0 0 0 0 0 0 0 0 0 0 0 0 0 0 0 0 0 0 0 0 0 0 0 0 0 0 0 0 0 0 0 0 0 0 0 0 0 0 0 0 0 0 0 0 0 0 0 0 0 0 0 0 0 0 0 0 0 0 0 0 0 0 0 0 0 0 0 0 0 0 0 0 0 0 0 0 0 0 0 0 0 0 0 0 0 0 0 0 0 0 0 0 0 0 0 0 0 0 0 0 0 0 0 0 0 0 0 0 0 0 0 0 0 0 0 0 0 0 0 0 0 0 0 0 0 0 0 0 0 0 0 0 0 0 0 0 0 0 0 0 0 0 0 0 0 0 0 0 0 0 0 0 0 0 0 0 0 0 0 0 0 0 0 0 0 0 0 0 0 0 0 0 0 0 0 0 0 0 0 0 0 0 0 0 0 0 0 0 0 0 0 0 0 0 0 0 0 0 0 0 0 0 0 0 0 0 0 0 0 0 0 0 0 0 0 0 0 0 0 0 0 0 0 0 0 0 0 0 0 0 0 0 0 0 0 0 0 0 0 0 0 0 0 0 0 0 0 0 0 0 0 0 0 0 0 0 0 0 0 0 0 0 0 0 0 0 0 0 0 0 0 0 0 0 0 0 0 0 0 0 0 0 0 0 0 0 0 0 0 0 0 0 0 0 0 0 0 0 0 0 0 0 0 0 0 0 0 0 0 0 0 0 0 0 0 0 0 0 0 0 0 0 0 0 0 0 0 0 0 0 0 0 0 0 0 0 0 0 0 0 0 0 0 0 0 0 0 0 0 0 0 0 0 0 0 0 0 0 0 0 0 0 0 0 0 0 0 0 0 0 0 0 0 0 0 0 0 0 0 0 0 0 0 0 0 0 0 0 0 0 0 0 0 0 0 0 0 0 0 0 0 0 0 0 0 0 0 0 0 0 0 0 0 0 0 0 0 0 0 0 0 0 0 0 0 0 0 0 0 0 0 0 0 0 0 0 0 0 0 0 0 0 0 0 0 0 0 0 0 0 0 0 0 0 0 0 0 0 0 0 0 0 0 0 0 0 0 0 0 0 0 0 0 0 0 0 0 0 0 0 0 0 0 0 0 0 0 0 0 0 0 0 0 0 0 0 0 0 0 0 0 0 0 0 0 0 0 0 0 0 0 0 0 0 0 0 0 0 0 0 0 0 0 0 0 0 0 0 0 0 0 0 0 0 0 0 0 0 0 0 0 0 0 0 0 0 0 0 0 0 0 0 0 0 0 0 0 0 0 0 0 0 0 0 0 0 0 0 0 0 0 0 0 0 0 0 0 0 0 0 0 0 0 0 0 0 0 0 0 0 0 0 0 0 0 0 0 0 0 0 0 0 0 0 0 0 0 0 0 0 0 0 0 0 0 0 0 0 0 0 0 0 0 0 0 0 0 0 0 0 0 0 0 0 0 0 0 0 0 0 0 0 0 0 0 0 0 0 0 0 0 0 0 0 0 0 0 0 0 0 0 0 0 0 0 0 0
				</DataArray>
				<DataArray Name="F3" type="Float32" format="ascii">