<?xml version="1.0"?>
<VTKFile type="PolyData">
	<PolyData>
		<Piece NumberOfPoints="961" NumberOfPolys="900">
			<Points>
				<DataArray type="Float32" NumberOfComponents="3" format="ascii">
 0 0 0 0.04 0 0 0.08 0 0 0.12 0 0 0.16 0 0 0.2 0 0 0.24 0 0 0.28 0 0 0.32 0 0 0.36 0 0 0.4 0 0 0.44 0 0 0.48 0 0 0.52 0 0 0.56 0 0 0.6 0 0 0.64 0 0 0.68 0 0 0.72 0 0 0.76 0 0 0.8 0 0 0.84 0 0 0.88 0 0 0.92 0 0 0.96 0 0 1 0 0 1.04 0 0 1.08 0 0 1.12 0 0 1.16 0 0 1.2 0 0 0 0.04 0 0.04 0.04 0 0.08 0.04 0 0.12 0.04 0 0.16 0.04 0 0.2 0.04 0 0.24 0.04 0 0.28 0.04 0 0.32 0.04 0 0.36 0.04 0 0.4 0.04 0 0.44 0.04 0 0.48 0.04 0 0.52 0.04 0 0.56 0.04 0 0.6 0.04 0 0.64 0.04 0 0.68 0.04 0 0.72 0.04 0 0.76 0.04 0 0.8 0.04 0 0.84 0.04 0 0.88 0.04 0 0.92 0.04 0 0.96 0.04 0 1 0.04 0 1.04 0.04 0 1.08 0.04 0 1.12 0.04 0 1.16 0.04 0 1.2 0.04 0 0 0.08 0 0.04 0.08 0 0.08 0.08 0 0.12 0.08 0 0.16 0.08 0 0.2 0.08 0 0.24 0.08 0 0.28 0.08 0 0.32 0.08 0 0.36 0.08 0 0.4 0.08 0 0.44 0.08 0 0.48 0.08 0 0.52 0.08 0 0.56 0.08 0 0.6 0.08 0 0.64 0.08 0 0.68 0.08 0 0.72 0.08 0 0.76 0.08 0 0.8 0.08 0 0.84 0.08 0 0.88 0.08 0 0.92 0.08 0 0.96 0.08 0 1 0.08 0 1.04 0.08 0 1.08 0.08 0 1.12 0.08 0 1.16 0.08 0 1.2 0.08 0 0 0.12 0 0.04 0.12 0 0.08 0.12 0 0.12 0.12 0 0.16 0.12 0 0.2 0.12 0 0.24 0.12 0 0.28 0.12 0 0.32 0.12 0 0.36 0.12 0 0.4 0.12 0 0.44 0.12 0 0.48 0.12 0 0.52 0.12 0 0.56 0.12 0 0.6 0.12 0 0.64 0.12 0 0.68 0.12 0 0.72 0.12 0 0.76 0.12 0 0.8 0.12 0 0.84 0.12 0 0.88 0.12 0 0.92 0.12 0 0.96 0.12 0 1 0.12 0 1.04 0.12 0 1.08 0.12 0 1.12 0.12 0 1.16 0.12 0 1.2 0.12 0 0 0.16 0 0.04 0.16 0 0.08 0.16 0 0.12 0.16 0 0.16 0.16 0 0.2 0.16 0 0.24 0.16 0 0.28 0.16 0 0.32 0.16 0 0.36 0.16 0 0.4 0.16 0 0.44 0.16 0 0.48 0.16 0 0.52 0.16 0 0.56 0.16 0 0.6 0.16 0 0.64 0.16 0 0.68 0.16 0 0.72 0.16 0 0.76 0.16 0 0.8 0.16 0 0.84 0.16 0 0.88 0.16 0 0.92 0.16 0 0.96 0.16 0 1 0.16 0 1.04 0.16 0 1.08 0.16 0 1.12 0.16 0 1.16 0.16 0 1.2 0.16 0 0 0.2 0 0.04 0.2 0 0.08 0.2 0 0.12 0.2 0 0.16 0.2 0 0.2 0.2 0 0.24 0.2 0 0.28 0.2 0 0.32 0.2 0 0.36 0.2 0 0.4 0.2 0 0.44 0.2 0 0.48 0.2 0 0.52 0.2 0 0.56 0.2 0 0.6 0.2 0 0.64 0.2 0 0.68 0.2 0 0.72 0.2 0 0.76 0.2 0 0.8 0.2 0 0.84 0.2 0 0.88 0.2 0 0.92 0.2 0 0.96 0.2 0 1 0.2 0 1.04 0.2 0 1.08 0.2 0 1.12 0.2 0 1.16 0.2 0 1.2 0.2 0 0 0.24 0 0.04 0.24 0 0.08 0.24 0 0.12 0.24 0 0.16 0.24 0 0.2 0.24 0 0.24 0.24 0 0.28 0.24 0 0.32 0.24 0 0.36 0.24 0 0.4 0.24 0 0.44 0.24 0 0.48 0.24 0 0.52 0.24 0 0.56 0.24 0 0.6 0.24 0 0.64 0.24 0 0.68 0.24 0 0.72 0.24 0 0.76 0.24 0 0.8 0.24 0 0.84 0.24 0 0.88 0.24 0 0.92 0.24 0 0.96 0.24 0 1 0.24 0 1.04 0.24 0 1.08 0.24 0 1.12 0.24 0 1.16 0.24 0 1.2 0.24 0 0 0.28 0 0.04 0.28 0 0.08 0.28 0 0.12 0.28 0 0.16 0.28 0 0.2 0.28 0 0.24 0.28 0 0.28 0.28 0 0.32 0.28 0 0.36 0.28 0 0.4 0.28 0 0.44 0.28 0 0.48 0.28 0 0.52 0.28 0 0.56 0.28 0 0.6 0.28 0 0.64 0.28 0 0.68 0.28 0 0.72 0.28 0 0.76 0.28 0 0.8 0.28 0 0.84 0.28 0 0.88 0.28 0 0.92 0.28 0 0.96 0.28 0 1 0.28 0 1.04 0.28 0 1.08 0.28 0 1.12 0.28 0 1.16 0.28 0 1.2 0.28 0 0 0.32 0 0.04 0.32 0 0.08 0.32 0 0.12 0.32 0 0.16 0.32 0 0.2 0.32 0 0.24 0.32 0 0.28 0.32 0 0.32 0.32 0 0.36 0.32 0 0.4 0.32 0 0.44 0.32 0 0.48 0.32 0 0.52 0.32 0 0.56 0.32 0 0.6 0.32 0 0.64 0.32 0 0.68 0.32 0 0.72 0.32 0 0.76 0.32 0 0.8 0.32 0 0.84 0.32 0 0.88 0.32 0 0.92 0.32 0 0.96 0.32 0 1 0.32 0 1.04 0.32 0 1.08 0.32 0 1.12 0.32 0 1.16 0.32 0 1.2 0.32 0 0 0.36 0 0.04 0.36 0 0.08 0.36 0 0.12 0.36 0 0.16 0.36 0 0.2 0.36 0 0.24 0.36 0 0.28 0.36 0 0.32 0.36 0 0.36 0.36 0 0.4 0.36 0 0.44 0.36 0 0.48 0.36 0 0.52 0.36 0 0.56 0.36 0 0.6 0.36 0 0.64 0.36 0 0.68 0.36 0 0.72 0.36 0 0.76 0.36 0 0.8 0.36 0 0.84 0.36 0 0.88 0.36 0 0.92 0.36 0 0.96 0.36 0 1 0.36 0 1.04 0.36 0 1.08 0.36 0 1.12 0.36 0 1.16 0.36 0 1.2 0.36 0 0 0.4 0 0.04 0.4 0 0.08 0.4 0 0.12 0.4 0 0.16 0.4 0 0.2 0.4 0 0.24 0.4 0 0.28 0.4 0 0.32 0.4 0 0.36 0.4 0 0.4 0.4 0 0.44 0.4 0 0.48 0.4 0 0.52 0.4 0 0.56 0.4 0 0.6 0.4 0 0.64 0.4 0 0.68 0.4 0 0.72 0.4 0 0.76 0.4 0 0.8 0.4 0 0.84 0.4 0 0.88 0.4 0 0.92 0.4 0 0.96 0.4 0 1 0.4 0 1.04 0.4 0 1.08 0.4 0 1.12 0.4 0 1.16 0.4 0 1.2 0.4 0 0 0.44 0 0.04 0.44 0 0.08 0.44 0 0.12 0.44 0 0.16 0.44 0 0.2 0.44 0 0.24 0.44 0 0.28 0.44 0 0.32 0.44 0 0.36 0.44 0 0.4 0.44 0 0.44 0.44 0 0.48 0.44 0 0.52 0.44 0 0.56 0.44 0 0.6 0.44 0 0.64 0.44 0 0.68 0.44 0 0.72 0.44 0 0.76 0.44 0 0.8 0.44 0 0.84 0.44 0 0.88 0.44 0 0.92 0.44 0 0.96 0.44 0 1 0.44 0 1.04 0.44 0 1.08 0.44 0 1.12 0.44 0 1.16 0.44 0 1.2 0.44 0 0 0.48 0 0.04 0.48 0 0.08 0.48 0 0.12 0.48 0 0.16 0.48 0 0.2 0.48 0 0.24 0.48 0 0.28 0.48 0 0.32 0.48 0 0.36 0.48 0 0.4 0.48 0 0.44 0.48 0 0.48 0.48 0 0.52 0.48 0 0.56 0.48 0 0.6 0.48 0 0.64 0.48 0 0.68 0.48 0 0.72 0.48 0 0.76 0.48 0 0.8 0.48 0 0.84 0.48 0 0.88 0.48 0 0.92 0.48 0 0.96 0.48 0 1 0.48 0 1.04 0.48 0 1.08 0.48 0 1.12 0.48 0 1.16 0.48 0 1.2 0.48 0 0 0.52 0 0.04 0.52 0 0.08 0.52 0 0.12 0.52 0 0.16 0.52 0 0.2 0.52 0 0.24 0.52 0 0.28 0.52 0 0.32 0.52 0 0.36 0.52 0 0.4 0.52 0 0.44 0.52 0 0.48 0.52 0 0.52 0.52 0 0.56 0.52 0 0.6 0.52 0 0.64 0.52 0 0.68 0.52 0 0.72 0.52 0 0.76 0.52 0 0.8 0.52 0 0.84 0.52 0 0.88 0.52 0 0.92 0.52 0 0.96 0.52 0 1 0.52 0 1.04 0.52 0 1.08 0.52 0 1.12 0.52 0 1.16 0.52 0 1.2 0.52 0 0 0.56 0 0.04 0.56 0 0.08 0.56 0 0.12 0.56 0 0.16 0.56 0 0.2 0.56 0 0.24 0.56 0 0.28 0.56 0 0.32 0.56 0 0.36 0.56 0 0.4 0.56 0 0.44 0.56 0 0.48 0.56 0 0.52 0.56 0 0.56 0.56 0 0.6 0.56 0 0.64 0.56 0 0.68 0.56 0 0.72 0.56 0 0.76 0.56 0 0.8 0.56 0 0.84 0.56 0 0.88 0.56 0 0.92 0.56 0 0.96 0.56 0 1 0.56 0 1.04 0.56 0 1.08 0.56 0 1.12 0.56 0 1.16 0.56 0 1.2 0.56 0 0 0.6 0 0.04 0.6 0 0.08 0.6 0 0.12 0.6 0 0.16 0.6 0 0.2 0.6 0 0.24 0.6 0 0.28 0.6 0 0.32 0.6 0 0.36 0.6 0 0.4 0.6 0 0.44 0.6 0 0.48 0.6 0 0.52 0.6 0 0.56 0.6 0 0.6 0.6 0 0.64 0.6 0 0.68 0.6 0 0.72 0.6 0 0.76 0.6 0 0.8 0.6 0 0.84 0.6 0 0.88 0.6 0 0.92 0.6 0 0.96 0.6 0 1 0.6 0 1.04 0.6 0 1.08 0.6 0 1.12 0.6 0 1.16 0.6 0 1.2 0.6 0 0 0.64 0 0.04 0.64 0 0.08 0.64 0 0.12 0.64 0 0.16 0.64 0 0.2 0.64 0 0.24 0.64 0 0.28 0.64 0 0.32 0.64 0 0.36 0.64 0 0.4 0.64 0 0.44 0.64 0 0.48 0.64 0 0.52 0.64 0 0.56 0.64 0 0.6 0.64 0 0.64 0.64 0 0.68 0.64 0 0.72 0.64 0 0.76 0.64 0 0.8 0.64 0 0.84 0.64 0 0.88 0.64 0 0.92 0.64 0 0.96 0.64 0 1 0.64 0 1.04 0.64 0 1.08 0.64 0 1.12 0.64 0 1.16 0.64 0 1.2 0.64 0 0 0.68 0 0.04 0.68 0 0.08 0.68 0 0.12 0.68 0 0.16 0.68 0 0.2 0.68 0 0.24 0.68 0 0.28 0.68 0 0.32 0.68 0 0.36 0.68 0 0.4 0.68 0 0.44 0.68 0 0.48 0.68 0 0.52 0.68 0 0.56 0.68 0 0.6 0.68 0 0.64 0.68 0 0.68 0.68 0 0.72 0.68 0 0.76 0.68 0 0.8 0.68 0 0.84 0.68 0 0.88 0.68 0 0.92 0.68 0 0.96 0.68 0 1 0.68 0 1.04 0.68 0 1.08 0.68 0 1.12 0.68 0 1.16 0.68 0 1.2 0.68 0 0 0.72 0 0.04 0.72 0 0.08 0.72 0 0.12 0.72 0 0.16 0.72 0 0.2 0.72 0 0.24 0.72 0 0.28 0.72 0 0.32 0.72 0 0.36 0.72 0 0.4 0.72 0 0.44 0.72 0 0.48 0.72 0 0.52 0.72 0 0.56 0.72 0 0.6 0.72 0 0.64 0.72 0 0.68 0.72 0 0.72 0.72 0 0.76 0.72 0 0.8 0.72 0 0.84 0.72 0 0.88 0.72 0 0.92 0.72 0 0.96 0.72 0 1 0.72 0 1.04 0.72 0 1.08 0.72 0 1.12 0.72 0 1.16 0.72 0 1.2 0.72 0 0 0.76 0 0.04 0.76 0 0.08 0.76 0 0.12 0.76 0 0.16 0.76 0 0.2 0.76 0 0.24 0.76 0 0.28 0.76 0 0.32 0.76 0 0.36 0.76 0 0.4 0.76 0 0.44 0.76 0 0.48 0.76 0 0.52 0.76 0 0.56 0.76 0 0.6 0.76 0 0.64 0.76 0 0.68 0.76 0 0.72 0.76 0 0.76 0.76 0 0.8 0.76 0 0.84 0.76 0 0.88 0.76 0 0.92 0.76 0 0.96 0.76 0 1 0.76 0 1.04 0.76 0 1.08 0.76 0 1.12 0.76 0 1.16 0.76 0 1.2 0.76 0 0 0.8 0 0.04 0.8 0 0.08 0.8 0 0.12 0.8 0 0.16 0.8 0 0.2 0.8 0 0.24 0.8 0 0.28 0.8 0 0.32 0.8 0 0.36 0.8 0 0.4 0.8 0 0.44 0.8 0 0.48 0.8 0 0.52 0.8 0 0.56 0.8 0 0.6 0.8 0 0.64 0.8 0 0.68 0.8 0 0.72 0.8 0 0.76 0.8 0 0.8 0.8 0 0.84 0.8 0 0.88 0.8 0 0.92 0.8 0 0.96 0.8 0 1 0.8 0 1.04 0.8 0 1.08 0.8 0 1.12 0.8 0 1.16 0.8 0 1.2 0.8 0 0 0.84 0 0.04 0.84 0 0.08 0.84 0 0.12 0.84 0 0.16 0.84 0 0.2 0.84 0 0.24 0.84 0 0.28 0.84 0 0.32 0.84 0 0.36 0.84 0 0.4 0.84 0 0.44 0.84 0 0.48 0.84 0 0.52 0.84 0 0.56 0.84 0 0.6 0.84 0 0.64 0.84 0 0.68 0.84 0 0.72 0.84 0 0.76 0.84 0 0.8 0.84 0 0.84 0.84 0 0.88 0.84 0 0.92 0.84 0 0.96 0.84 0 1 0.84 0 1.04 0.84 0 1.08 0.84 0 1.12 0.84 0 1.16 0.84 0 1.2 0.84 0 0 0.88 0 0.04 0.88 0 0.08 0.88 0 0.12 0.88 0 0.16 0.88 0 0.2 0.88 0 0.24 0.88 0 0.28 0.88 0 0.32 0.88 0 0.36 0.88 0 0.4 0.88 0 0.44 0.88 0 0.48 0.88 0 0.52 0.88 0 0.56 0.88 0 0.6 0.88 0 0.64 0.88 0 0.68 0.88 0 0.72 0.88 0 0.76 0.88 0 0.8 0.88 0 0.84 0.88 0 0.88 0.88 0 0.92 0.88 0 0.96 0.88 0 1 0.88 0 1.04 0.88 0 1.08 0.88 0 1.12 0.88 0 1.16 0.88 0 1.2 0.88 0 0 0.92 0 0.04 0.92 0 0.08 0.92 0 0.12 0.92 0 0.16 0.92 0 0.2 0.92 0 0.24 0.92 0 0.28 0.92 0 0.32 0.92 0 0.36 0.92 0 0.4 0.92 0 0.44 0.92 0 0.48 0.92 0 0.52 0.92 0 0.56 0.92 0 0.6 0.92 0 0.64 0.92 0 0.68 0.92 0 0.72 0.92 0 0.76 0.92 0 0.8 0.92 0 0.84 0.92 0 0.88 0.92 0 0.92 0.92 0 0.96 0.92 0 1 0.92 0 1.04 0.92 0 1.08 0.92 0 1.12 0.92 0 1.16 0.92 0 1.2 0.92 0 0 0.96 0 0.04 0.96 0 0.08 0.96 0 0.12 0.96 0 0.16 0.96 0 0.2 0.96 0 0.24 0.96 0 0.28 0.96 0 0.32 0.96 0 0.36 0.96 0 0.4 0.96 0 0.44 0.96 0 0.48 0.96 0 0.52 0.96 0 0.56 0.96 0 0.6 0.96 0 0.64 0.96 0 0.68 0.96 0 0.72 0.96 0 0.76 0.96 0 0.8 0.96 0 0.84 0.96 0 0.88 0.96 0 0.92 0.96 0 0.96 0.96 0 1 0.96 0 1.04 0.96 0 1.08 0.96 0 1.12 0.96 0 1.16 0.96 0 1.2 0.96 0 0 1 0 0.04 1 0 0.08 1 0 0.12 1 0 0.16 1 0 0.2 1 0 0.24 1 0 0.28 1 0 0.32 1 0 0.36 1 0 0.4 1 0 0.44 1 0 0.48 1 0 0.52 1 0 0.56 1 0 0.6 1 0 0.64 1 0 0.68 1 0 0.72 1 0 0.76 1 0 0.8 1 0 0.84 1 0 0.88 1 0 0.92 1 0 0.96 1 0 1 1 0 1.04 1 0 1.08 1 0 1.12 1 0 1.16 1 0 1.2 1 0 0 1.04 0 0.04 1.04 0 0.08 1.04 0 0.12 1.04 0 0.16 1.04 0 0.2 1.04 0 0.24 1.04 0 0.28 1.04 0 0.32 1.04 0 0.36 1.04 0 0.4 1.04 0 0.44 1.04 0 0.48 1.04 0 0.52 1.04 0 0.56 1.04 0 0.6 1.04 0 0.64 1.04 0 0.68 1.04 0 0.72 1.04 0 0.76 1.04 0 0.8 1.04 0 0.84 1.04 0 0.88 1.04 0 0.92 1.04 0 0.96 1.04 0 1 1.04 0 1.04 1.04 0 1.08 1.04 0 1.12 1.04 0 1.16 1.04 0 1.2 1.04 0 0 1.08 0 0.04 1.08 0 0.08 1.08 0 0.12 1.08 0 0.16 1.08 0 0.2 1.08 0 0.24 1.08 0 0.28 1.08 0 0.32 1.08 0 0.36 1.08 0 0.4 1.08 0 0.44 1.08 0 0.48 1.08 0 0.52 1.08 0 0.56 1.08 0 0.6 1.08 0 0.64 1.08 0 0.68 1.08 0 0.72 1.08 0 0.76 1.08 0 0.8 1.08 0 0.84 1.08 0 0.88 1.08 0 0.92 1.08 0 0.96 1.08 0 1 1.08 0 1.04 1.08 0 1.08 1.08 0 1.12 1.08 0 1.16 1.08 0 1.2 1.08 0 0 1.12 0 
[...]
			<CellData Scalars="Density">
				<DataArray Name="Density" type="Float32" format="ascii">
 0.00544172 0.00556778 0.00589209 0.00653001 0.00760628 0.0092852 0.011791 0.0154246 0.020589 0.0277898 0.0376995 0.0513132 0.0701321 0.0959065 0.127808 0.157654 0.1734 0.200374 0.245078 0.309425 0.395911 0.506446 0.640696 0.804492 1.00573 1.2471 1.46457 1.63849 1.77879 1.85321 0.0055677 0.00565657 0.0059111 0.00644306 0.00733672 0.00878398 0.0110337 0.0143801 0.0192764 0.0263586 0.0364776 0.050733 0.0705102 0.097092 0.12976 0.160722 0.178506 0.205408 0.251356 0.31701 0.4059 0.52134 0.662971 0.833211 1.0379 1.27426 1.4875 1.66237 1.8002 1.85467 0.00589163 0.00591081 0.0060476 0.00643833 0.00716948 0.0083351 0.0102213 0.013221 0.0178036 0.0245941 0.0344018 0.0482173 0.0673187 0.092769 0.123503 0.152526 0.170258 0.195325 0.238297 0.300292 0.386986 0.498348 0.635772 0.803279 1.00939 1.25848 1.48572 1.66653 1.81268 1.89082 0.00652828 0.00644178 0.00643732 0.00669983 0.00728432 0.00834734 0.0101015 0.0129609 0.0174701 0.0242405 0.0340763 0.0480726 0.0676842 0.0947272 0.126907 0.15701 0.176808 0.203581 0.246911 0.306793 0.393518 0.506288 0.646274 0.815411 1.02122 1.27212 1.50355 1.68736 1.82972 1.88659 0.00760208 0.00733332 0.00716649 0.0072821 0.00769838 0.0085451 0.0101968 0.0130266 0.0177168 0.0248614 0.0352294 0.0497824 0.0698989 0.0971072 0.129887 0.160658 0.182919 0.209477 0.251104 0.309205 0.394212 0.505879 0.64577 0.816546 1.02387 1.27201 1.49878 1.67859 1.81944 1.88391 0.00927704 0.00877688 0.00832847 0.00834202 0.00854206 0.00899259 0.0101862 0.0126535 0.0170003 0.0242575 0.034875 0.0497507 0.0701842 0.0973778 0.130326 0.162683 0.190791 0.21577 0.255438 0.311964 0.394767 0.505109 0.643696 0.814451 1.0244 1.27483 1.50111 1.67696 1.812 1.87238 0.0117773 0.0110229 0.0102096 0.0100923 0.0101885 0.0101766 0.0105783 0.0122426 0.0155825 0.0215743 0.0312647 0.0454732 0.0652937 0.0919835 0.125588 0.162796 0.197044 0.223103 0.262882 0.317424 0.397362 0.506006 0.642936 0.811019 1.02013 1.26795 1.4898 1.6605 1.79211 1.85214 0.0154039 0.0143642 0.0132036 0.0129472 0.0130129 0.0126387 0.0122409 0.0126382 0.0147701 0.0191956 0.0270114 0.0394075 0.0576353 0.083131 0.116707 0.156845 0.195871 0.230008 0.267381 0.319298 0.395522 0.500905 0.634369 0.798399 1.00186 1.25048 1.47885 1.65729 1.79596 1.86071 0.0205611 0.0192539 0.0177795 0.0174529 0.0176976 0.0169683 0.0155823 0.0147634 0.0150402 0.0178696 0.0234796 0.0334301 0.0492712 0.0726638 0.104936 0.145522 0.191213 0.234182 0.269589 0.319829 0.390458 0.491058 0.620696 0.782216 0.983677 1.23993 1.48709 1.68094 1.83087 1.90247 0.0277588 0.0263285 0.0245624 0.0242233 0.0248372 0.0242048 0.0215788 0.0191843 0.0178534 0.0180889 0.0217694 0.0290309 0.0419278 0.0623225 0.0916823 0.13138 0.180173 0.22861 0.272524 0.320103 0.384539 0.478659 0.604991 0.764244 0.966451 1.22923 1.50703 1.7289 1.89599 1.97557 0.0376706 0.0364386 0.0343632 0.0340575 0.0351939 0.0347982 0.0312853 0.0270031 0.0234612 0.021746 0.0221437 0.0269804 0.0365349 0.053416 0.0793518 0.115696 0.162821 0.2182 0.271784 0.318403 0.379096 0.465174 0.588228 0.746866 0.951313 1.22258 1.53941 1.8028 1.99506 2.07935 0.0512875 0.0506929 0.0481701 0.0480511 0.0497393 0.0496681 0.0455105 0.0394173 0.0334061 0.0289866 0.0269531 0.0274524 0.0337621 0.0464362 0.0682699 0.100897 0.145374 0.201507 0.261683 0.317349 0.374862 0.45227 0.569077 0.728073 0.934399 1.21042 1.57013 1.88672 2.11356 2.20822 0.0701072 0.0704809 0.0672702 0.06766 0.0698571 0.0701066 0.0653384 0.0576381 0.0492485 0.0418549 0.0365082 0.0337722 0.0343537 0.0425479 0.0591917 0.087397 0.12796 0.182893 0.247759 0.312992 0.371038 0.443984 0.550628 0.708447 0.919156 1.20161 1.59439 1.97611 2.24765 2.35509 0.0958818 0.0970696 0.0927378 0.0947061 0.0970604 0.0973411 0.0920334 0.0831053 0.0726804 0.0622462 0.05339 0.0464591 0.0425403 0.0435128 0.0541286 0.0757685 0.111615 0.163531 0.231116 0.304288 0.370458 0.437802 0.533403 0.686593 0.902024 1.19672 1.61251 2.05885 2.3867 2.5226 0.127787 0.129744 0.123482 0.126854 0.12987 0.130347 0.125614 0.116619 0.104995 0.0916592 0.0793774 0.0683217 0.0591617 0.0541067 0.0561367 0.0702152 0.0984577 0.145548 0.211811 0.29118 0.370505 0.440007 0.529913 0.673522 0.89104 1.19646 1.63536 2.14574 2.53875 2.71492 0.157657 0.160723 0.152534 0.156966 0.160668 0.162666 0.162782 0.156849 0.145699 0.131384 0.115828 0.100961 0.0873215 0.0757381 0.070141 0.0739494 0.0933177 0.131204 0.193909 0.276805 0.36804 0.448582 0.533647 0.668183 0.885981 1.19816 1.65946 2.24056 2.71292 2.9399 0.173477 0.178571 0.170349 0.17686 0.182935 0.190711 0.197073 0.195902 0.191218 0.180235 0.163201 0.145486 0.127966 0.11155 0.0983161 0.0932187 0.10067 0.12834 0.180491 0.2651 0.363578 0.461957 0.547811 0.674394 0.8889 1.20905 1.68352 2.33603 2.90299 3.19462 0.200456 0.20548 0.195377 0.203549 0.209471 0.215855 0.22322 0.229875 0.234179 0.228711 0.218328 0.201499 0.183101 0.163589 0.145479 0.131036 0.128113 0.14192 0.181873 0.256435 0.364375 0.480746 0.577558 0.692529 0.903003 1.23337 1.71643 2.42751 3.10495 3.47848 0.245172 0.251427 0.238367 0.246955 0.251153 0.255431 0.262795 0.267377 0.269815 0.272524 0.271939 0.261819 0.248016 0.231228 0.211842 0.193829 0.180131 0.181524 0.20642 0.267202 0.37493 0.502654 0.622825 0.732968 0.932142 1.26648 1.76393 2.51819 3.31957 3.79498 0.309536 0.317096 0.300376 0.306827 0.309232 0.311988 0.317489 0.319324 0.319644 0.320008 0.31884 0.31762 0.313193 0.304403 0.291376 0.276991 0.264777 0.255968 0.26673 0.311166 0.40727 0.543526 0.687038 0.804446 0.977677 1.3082 1.81582 2.6061 3.54344 4.14785 0.396038 0.405998 0.387085 0.393582 0.394273 0.394781 0.397349 0.395537 0.390479 0.384718 0.379066 0.374624 0.371332 0.370875 0.370845 0.368318 0.363666 0.364141 0.374499 0.406778 0.487132 0.62496 0.77381 0.912011 1.05896 1.37456 1.88146 2.69047 3.76853 4.53768 0.506597 0.521453 0.498433 0.50634 0.505873 0.505183 0.505997 0.500907 0.491081 0.478699 0.465168 0.452403 0.444003 0.437895 0.440048 0.448863 0.462188 0.480932 0.502473 0.542946 0.624365 0.761218 0.909796 1.0565 1.1966 1.46636 1.96595 2.77786 3.9906 4.96847 0.640871 0.663132 0.635928 0.646499 0.645816 0.643828 0.643056 0.63437 0.620724 0.605069 0.588225 0.569082 0.550622 0.533468 0.529795 0.533898 0.547972 0.577642 0.62293 0.686971 0.773546 0.909602 1.10954 1.25429 1.39111 1.61014 2.09236 2.8852 4.20385 5.45179 0.804691 0.833385 0.803409 0.815554 0.816602 0.814505 0.811116 0.798518 0.782252 0.764294 0.746895 0.728093 0.708297 0.686645 0.673469 0.668224 0.674457 0.692701 0.733158 0.804597 0.9121 1.05646 1.25423 1.49507 1.64268 1.81335 2.25344 3.04944 4.42649 6.00417 1.00595 1.0381 1.00961 1.02143 1.02402 1.02461 1.02021 1.00197 0.983908 0.966585 0.951249 0.934543 0.918981 0.901932 0.890964 0.886108 0.88896 0.902866 0.931968 0.977654 1.05901 1.19696 1.39174 1.64326 1.92545 2.10388 2.45805 3.2515 4.67547 6.64861 1.24735 1.27449 1.25872 1.27232 1.27216 1.27509 1.26814 1.25062 1.24012 1.22958 1.22255 1.21037 1.20165 1.19665 1.19631 1.19797 1.20903 1.23329 1.26619 1.30815 1.37481 1.46693 1.61079 1.81406 2.10451 2.44631 2.79716 3.53098 4.95176 7.40802 1.46487 1.4878 1.486 1.50383 1.49899 1.50144 1.4901 1.47911 1.48734 1.5072 1.53954 1.56995 1.59389 1.61259 1.63517 1.65909 1.68309 1.71642 1.76386 1.81579 1.88133 1.9662 2.09292 2.25426 2.45905 2.79781 3.22331 3.95605 5.38659 8.14963 1.63882 1.6627 1.66687 1.68773 1.67888 1.6773 1.66089 1.6576 1.68127 1.72901 1.80283 1.88657 1.97559 2.05868 2.14565 2.24037 2.33564 2.42729 2.51833 2.6062 2.6906 2.77817 2.88587 3.05017 3.25234 3.53189 3.95665 4.3723 5.74445 9.41313 1.77914 1.80057 1.81306 1.83015 1.81982 1.81239 1.79247 1.79632 1.83119 1.89617 1.99498 2.11325 2.24709 2.38617 2.53866 2.71286 2.90286 3.10503 3.31986 3.54379 3.76892 3.9908 4.20427 4.42689 4.67619 4.95247 5.38738 5.74492 7.12438 12.1962 1.85359 1.85507 1.89121 1.88696 1.88435 1.87283 1.85247 1.86111 1.90268 1.97579 2.07939 2.20789 2.35478 2.52169 2.71446 2.93972 3.1948 3.47857 3.79538 4.14831 4.53826 4.96902 5.4523 6.00465 6.64915 7.40852 8.1501 9.41357 12.1965 12.6539
				</DataArray>
				<DataArray Name="Energy" type="Float32" format="ascii">
 934.835 913.658 863.284 778.86 668.507 547.521 430.968 329.229 246.375 182.126 133.736 97.6289 70.6191 50.337 35.2885 24.1346 16.6589 12.0429 9.29853 7.32921 5.92672 4.84021 3.99529 3.34777 2.8446 2.45301 2.19869 2.03641 1.95022 1.9083 913.671 899.361 860.578 789.363 693.109 578.704 460.501 353.086 263.065 192.008 138.261 98.8215 70.266 49.6657 34.6848 23.784 16.4285 11.8565 9.1087 7.11389 5.69548 4.61271 3.78361 3.15469 2.67923 2.33921 2.12463 1.9911 1.91726 1.87204 863.354 860.621 840.98 789.878 709.089 609.793 496.988 383.953 284.846 205.802 146.695 104.028 73.5856 51.9664 36.5463 25.2734 17.5943 12.7368 9.78385 7.62363 6.0986 4.91667 4.01498 3.33784 2.82152 2.4179 2.15435 1.98654 1.89945 1.85771 779.068 789.523 790 758.796 697.807 608.627 502.778 391.527 290.134 208.748 147.995 104.35 73.2827 51.0173 35.5713 24.6224 17.2757 12.5855 9.69018 7.58052 6.08885 4.92078 4.01288 3.31864 2.78916 2.39128 2.1352 1.97581 1.88882 1.83933 668.873 693.432 709.389 698.019 659.921 594.376 497.73 389.416 285.966 203.406 143.187 100.753 71.0117 49.7939 34.9191 24.5591 17.412 12.7393 9.81755 7.69931 6.19696 5.02018 4.09857 3.39036 2.84577 2.43209 2.16549 1.99879 1.91062 1.86431 547.999 579.171 610.279 609.021 594.585 564.351 498.014 400.49 297.843 208.318 144.405 100.756 70.6404 49.6746 35.0208 24.808 17.6792 13.0339 9.99733 7.84938 6.31727 5.13374 4.19704 3.47059 2.90703 2.47867 2.20647 2.03756 1.94545 1.89586 431.451 460.957 497.554 503.231 498.141 498.481 479.008 413.599 324.442 234.014 160.997 110.088 75.9925 52.771 36.7042 25.747 18.3245 13.4783 10.1885 8.0098 6.41845 5.23984 4.29892 3.56201 2.98901 2.55437 2.27927 2.10683 2.00989 1.95633 329.647 353.468 384.462 391.938 389.824 400.962 413.662 400.029 341.902 262.488 186.073 126.935 85.9843 58.4302 40.0428 27.715 19.6838 14.264 10.656 8.3347 6.61336 5.41214 4.45741 3.70687 3.11634 2.65777 2.36051 2.17034 2.06025 1.99893 246.681 263.361 285.235 290.42 286.261 298.393 324.456 342.055 335.069 281.538 213.616 149.398 100.587 67.2153 45.1844 30.8328 21.5305 15.3799 11.4317 8.77734 6.92356 5.64628 4.65161 3.87027 3.24755 2.74788 2.41467 2.20203 2.07657 2.00897 182.305 192.215 206.072 208.898 203.589 208.753 233.96 262.653 281.79 277.44 229.988 171.727 118.107 78.5101 52.1374 35.1221 24.0945 17.1186 12.4911 9.4062 7.38658 5.93609 4.88792 4.05244 3.38177 2.83481 2.44612 2.20381 2.0612 1.98763 133.822 138.401 146.872 148.069 143.316 144.703 160.886 186.127 213.797 230.233 225.436 184.471 135.515 91.8694 60.9394 40.7362 27.7591 19.4107 13.8742 10.3155 7.96286 6.29913 5.15942 4.24583 3.50946 2.91028 2.45486 2.17736 2.01801 1.93706 97.6671 98.9057 104.123 104.388 100.82 100.909 109.991 126.901 149.512 172.008 184.663 180.862 146.549 105.936 71.3722 47.5528 32.2647 22.2679 15.8611 11.5403 8.69378 6.80586 5.47875 4.47892 3.66319 2.99698 2.46923 2.15079 1.97588 1.88876 70.6389 70.2978 73.6324 73.2919 71.0436 70.7081 75.9366 85.9753 100.647 118.326 135.635 146.514 143.806 115.815 82.9695 55.8211 37.608 25.9075 18.2815 13.082 9.68578 7.45379 5.87265 4.76078 3.8466 3.09471 2.49992 2.14122 1.9524 1.85844 50.3447 49.6795 51.9803 51.0199 49.8132 49.6883 52.738 58.4434 67.2089 78.6226 91.9259 105.897 115.847 113.638 91.5101 65.4622 44.2407 30.303 21.0206 15.0564 10.9191 8.21081 6.37084 5.08169 4.06427 3.22367 2.55621 2.14859 1.94409 1.84501 35.2898 34.6877 36.556 35.585 34.9211 35.0162 36.6915 40.0678 45.1642 52.1591 60.9309 71.33 83.0217 91.5506 88.9717 71.8038 51.6791 35.3174 24.481 17.2578 12.3603 9.11822 6.96531 5.44044 4.30984 3.37883 2.63925 2.17062 1.94668 1.842 24.1372 23.7881 25.2826 24.6291 24.5637 24.8108 25.7449 27.7142 30.7901 35.1199 40.6948 47.527 55.8762 65.504 71.875 69.2453 56.0278 40.7824 28.3117 19.8226 14.0849 10.1585 7.59108 5.83421 4.57934 3.55569 2.7475 2.21415 1.96458 1.85068 16.6616 16.4327 17.597 17.2763 17.4169 17.6868 18.3263 19.681 21.5262 24.0954 27.6978 32.2557 37.6139 44.2685 51.7647 56.0789 53.4671 43.379 32.0145 22.6047 15.9107 11.3411 8.31521 6.27403 4.87152 3.75709 2.87901 2.27575 1.99155 1.86454 12.0442 11.8582 12.739 12.5911 12.7438 13.0326 13.4763 14.2671 15.3805 17.1037 19.3873 22.2661 25.8619 30.2959 35.3327 40.8474 43.4454 41.0274 33.4766 25.0241 17.8327 12.6251 9.08564 6.74202 5.16603 3.97758 3.03446 2.35505 2.02446 1.88089 9.29915 9.10967 9.78472 9.69153 9.8189 10 10.1936 10.6581 11.4258 12.4795 13.8712 15.8495 18.2669 21.0096 24.4768 28.325 32.09 33.5333 31.3201 25.7751 19.4499 13.8536 9.85608 7.22055 5.4557 4.19994 3.20433 2.4587 2.06466 1.89974 7.32928 7.11421 7.62391 7.58197 7.70098 7.85069 8.01047 8.33648 8.78059 9.40959 10.3112 11.5255 13.0718 15.0431 17.2451 19.8104 22.6283 25.079 25.816 23.8428 19.7396 14.8439 10.6515 7.68557 5.72829 4.4091 3.37594 2.57881 2.11104 1.91867 5.92685 5.69568 6.09894 6.08967 6.19786 6.31813 6.41935 6.61465 6.92342 7.3857 7.96199 8.69546 9.67823 10.9078 12.3481 14.0735 15.9077 17.8415 19.4771 19.7596 18.1362 14.9515 11.3091 8.13558 6.00283 4.60751 3.54956 2.70886 2.16281 1.93697 4.84043 4.61303 4.91675 4.92126 5.02063 5.13455 5.24025 5.41261 5.64701 5.93589 6.29837 6.80435 7.45259 8.21093 9.11171 10.15 11.3314 12.6189 13.8566 14.8586 14.9617 13.5815 11.2513 8.57435 6.26647 4.78123 3.71174 2.84324 2.22181 1.9549 3.99566 3.78411 4.01531 4.01375 4.09893 4.19761 4.29959 4.45761 4.65173 4.88807 5.15925 5.47796 5.87192 6.36995 6.96335 7.58748 8.30981 9.08123 9.85107 10.6492 11.3111 11.2508 10.0926 8.50528 6.50928 4.92557 3.85192 2.9737 2.28906 1.97167 3.34825 3.15521 3.33809 3.31909 3.39076 3.47073 3.56217 3.70742 3.87025 4.05224 4.24644 4.47864 4.76083 5.08101 5.44077 5.83363 6.27152 6.73848 7.2154 7.68113 8.13299 8.57339 8.50587 7.53125 6.41475 4.99795 3.91724 3.06713 2.37032 1.98851 2.84511 2.67975 2.82192 2.78959 2.84618 2.90748 2.98906 3.11669 3.2479 3.38166 3.50948 3.66344 3.84723 4.06422 4.30952 4.57917 4.87129 5.16539 5.45532 5.72819 6.0018 6.26422 6.50677 6.413 5.70503 4.84933 3.91529 3.12173 2.45703 2.00425 2.45347 2.33966 2.41826 2.39161 2.43235 2.47897 2.55446 2.65795 2.74803 2.83499 2.91054 2.99708 3.09535 3.22457 3.37879 3.55566 3.75781 3.97817 4.2 4.40863 4.60685 4.78022 4.92447 4.99691 4.84834 4.36348 3.711 3.09124 2.49423 2.01123 2.1991 2.12504 2.15469 2.13549 2.16568 2.20666 2.27934 2.36061 2.4148 2.44643 2.45529 2.46966 2.5004 2.55676 2.63974 2.74784 2.87925 3.03493 3.20453 3.37568 3.54963 3.71211 3.85186 3.91665 3.91436 3.71032 3.3546 2.87198 2.48395 1.99232 2.0368 1.99146 1.98685 1.97608 1.99893 2.03767 2.10689 2.17041 2.20215 2.20409 2.17778 2.15137 2.14177 2.14872 2.17084 2.2145 2.27585 2.3551 2.45873 2.57881 2.70875 2.84325 2.97367 3.06701 3.12144 3.09082 2.87165 2.57977 2.26105 1.99305 1.95058 1.9176 1.89975 1.88907 1.91076 1.94554 2.00994 2.06029 2.07668 2.06147 2.01839 1.97635 1.95287 1.94414 1.9468 1.96468 1.99149 2.02431 2.06455 2.11102 2.16277 2.222 2.28918 2.37049 2.45706 2.49416 2.48378 2.26091 2.14583 1.89634 1.90866 1.87237 1.85799 1.83954 1.86445 1.89596 1.95635 1.99898 2.00902 1.98791 1.93751 1.88916 1.85889 1.84506 1.84208 1.85064 1.86444 1.88075 1.89969 1.91864 1.93702 1.95501 1.97178 1.98863 2.00435 2.0113 1.99235 1.99304 1.89633 1.56262
				</DataArray>
				<DataArray Name="F1" type="Float32" format="ascii">
 1 1 1 1 1 1 1 1 1 1 1 1 1 1 1 1 1 1 1 1 1 1 1 1 1 1 1 1 1 1 1 1 1 1 1 1 1 1 1 1 1 1 1 1 1 1 1 1 1 1 1 1 1 1 1 1 1 1 1 1 1 1 1 1 1 1 1 1 1 1 1 1 1 1 1 1 1 1 1 1 1 1 1 1 1 1 1 1 1 1 1 1 1 1 1 1 1 1 1 1 1 1 1 1 1 1 1 1 1 1 1 1 1 1 1 1 1 1 1 1 1 1 1 1 1 1 1 1 1 1 1 1 1 1 1 1 1 1 1 1 1 1 1 1 1 1 1 1 1 1 1 1 1 1 1 1 1 1 1 1 1 1 1 1 1 1 1 1 1 1 1 1 1 1 1 1 1 1 1 1 1 1 1 1 1 1 1 1 1 1 1 1 1 1 1 1 1 1 1 1 1 1 1 1 1 1 1 1 1 1 1 1 1 1 1 1 1 1 1 1 1 1 1 1 1 1 1 1 1 1 1 1 1 1 1 1 1 1 1 1 1 1 1 1 1 1 1 1 1 1 1 1 1 1 1 1 1 1 1 1 1 1 1 1 1 1 1 1 1 1 1 1 1 1 1 1 1 1 1 1 1 1 1 1 1 1 1 1 1 1 1 1 1 1 1 1 1 1 1 1 1 1 1 1 1 1 1 1 1 1 1 1 1 1 1 1 1 1 1 1 1 1 1 1 1 1 1 1 1 1 1 1 1 1 1 1 1 1 1 1 1 1 1 1 1 1 1 1 1 1 1 1 1 1 1 1 1 1 1 1 1 1 1 1 1 1 1 1 1 1 1 1 1 1 1 1 1 1 1 1 1 1 1 1 1 1 1 1 1 1 1 1 1 1 1 1 1 1 1 1 1 1 1 1 1 1 1 1 1 1 1 1 1 1 1 1 1 1 1 1 1 1 1 1 1 1 1 1 1 1 1 1 1 1 1 1 1 1 1 1 1 1 1 1 1 1 1 1 1 1 1 1 1 1 1 1 1 1 1 1 1 1 1 1 1 1 1 1 1 1 1 1 1 1 1 1 1 1 1 1 1 1 1 1 1 1 1 1 1 1 1 1 1 1 1 1 1 1 1 1 1 1 1 1 1 1 1 1 1 1 1 1 1 1 1 1 1 1 1 1 1 1 1 1 1 1 1 1 1 1 1 1 1 1 1 1 1 1 1 1 1 1 1 1 1 1 1 1 1 1 1 1 1 1 1 1 1 1 1 1 1 1 1 1 1 1 1 1 1 1 1 1 1 1 1 1 1 1 1 1 1 1 1 1 1 1 1 1 1 1 1 1 1 1 1 1 1 1 1 1 1 1 1 1 1 1 1 1 1 1 1 1 1 1 1 1 1 1 1 1 1 1 1 1 1 1 1 1 1 1 1 1 1 1 1 1 1 1 1 1 1 1 1 1 1 1 1 1 1 1 1 1 1 1 1 1 1 1 1 1 1 1 1 1 1 1 1 1 1 1 1 1 1 1 1 1 1 1 1 1 1 1 1 1 1 1 1 1 1 1 1 1 1 1 1 1 1 1 1 1 1 1 1 1 1 1 1 1 1 1 1 1 1 1 1 1 1 1 1 1 1 1 1 1 1 1 1 1 1 1 1 1 1 1 1 1 1 1 1 1 1 1 1 1 1 1 1 1 1 1 1 1 1 1 1 1 1 1 1 1 1 1 1 1 1 1 1 1 1 1 1 1 1 1 1 1 1 1 1 1 1 1 1 1 1 1 1 1 1 1 1 1 1 1 1 1 1 1 1 1 1 1 1 1 1 1 1 1 1 1 1 1 1 1 1 1 1 1 1 1 1 1 1 1 1 1 1 1 1 1 1 1 1 1 1 1 1 1 1 1 1 1 1 1 1 1 1 1 1 1 1 1 1 1 1 1 1 1 1 1 1 1 1 1 1 1 1 1 1 1 1 1 1 1 1 1 1 1 1 1 1 1 1 1 1 1 1 1 1 1 1 1 1 1 1 1 1 1 1 1
				</DataArray>
				<DataArray Name="F2" type="Float32" format="ascii">
 0 0 0 0 0 0 0 0 0 0 0 0 0 0 0 0 0 0 0 0 0 0 0 0 0 0 0 0 0 0 0 0 0 0 0 0 0 0 0 0 0 0 0 0 0 0 0 0 0 0 0 0 0 0 0 0 0 0 0 0 0 0 0 0 0 0 0 0 0 0 0 0 0 0 0 0 0 0 0 0 0 0 0 0 0 0 0 0 0 0 0 0 0 0 0 0 0 0 0 0 0 0 0 0 0 0 0 0 0 0 0 0 0 0 0 0 0 0 0 0 0 0 0 0 0 0 0 0 0 0 0 0 0 0 0 0 0 0 0 0 0 0 0 0 0 0 0 0 0 0 0 0 0 0 0 0 0 0 0 0 0 0 0 0 0 0 0 0 0 0 0 0 0 0 0 0 0 0 0 0 0 0 0 0 0 0 0 0 0 0 0 0 0 0 0 0 0 0 0 0 0 0 0 0 0 0 0 0 0 0 0 0 0 0 0 0 0 0 0 0 0 0 0 0 0 0 0 0 0 0 0 0 0 0 0 0 0 0 0 0 0 0 0 0 0 0 0 0 0 0 0 0 0 0 0 0 0 0 0 0 0 0 0 0 0 0 0 0 0 0 0 0 0 0 0 0 0 0 0 0 0 0 0 0 0 0 0 0 0 0 0 0 0 0 0 0 0 0 0 0 0 0 0 0 0 0 0 0 0 0 0 0 0 0 0 0 0 0 0 0 0 0 0 0 0 0 0 0 0 0 0 0 0 0 0 0 0 0 0 0 0 0 0 0 0 0 0 0 0 0 0 0 0 0 0 0 0 0 0 0 0 0 0 0 0 0 0 0 0 0 0 0 0 0 0 0 0 0 0 0 0 0 0 0 0 0 0 0 0 0 0 0 0 0 0 0 0 0 0 0 0 0 0 0 0 0 0 0 0 0 0 0 0 0 0 0 0 0 0 0 0 0 0 0 0 0 0 0 0 0 0 0 0 0 0 0 0 0 0 0 0 0 0 0 0 0 0 0 0 0 0 0 0 0 0 0 0 0 0 0 0 0 0 0 0 0 0 0 0 0 0 0 0 0 0 0 0 0 0 0 0 0 0 0 0 0 0 0 0 0 0 0 0 0 0 0 0 0 0 0 0 0 0 0 0 0 0 0 0 0 0 0 0 0 0 0 0 0 0 0 0 0 0 0 0 0 0 0 0 0 0 0 0 0 0 0 0 0 0 0 0 0 0 0 0 0 0 0 0 0 0 0 0 0 0 0 0 0 0 0 0 0 0 0 0 0 0 0 0 0 0 0 0 0 0 0 0 0 0 0 0 0 0 0 0 0 0 0 0 0 0 0 0 0 0 0 0 0 0 0 0 0 0 0 0 0 0 0 0 0 0 0 0 0 0 0 0 0 0 0 0 0 0 0 0 0 0 0 0 0 0 0 0 0 0 0 0 0 0 0 0 0 0 0 0 0 0 0 0 0 0 0 0 0 0 0 0 0 0 0 0 0 0 0 0 0 0 0 0 0 0 0 0 0 0 0 0 0 0 0 0 0 0 0 0 0 0 0 0 0 0 0 0 0 0 0 0 0 0 0 0 0 0 0 0 0 0 0 0 0 0 0 0 0 0 0 0 0 0 0 0 0 0 0 0 0 0 0 0 0 0 0 0 0 0 0 0 0 0 0 0 0 0 0 0 0 0 0 0 0 0 0 0 0 0 0 0 0 0 0 0 0 0 0 0 0 0 0 0 0 0 0 0 0 0 0 0 0 0 0 0 0 0 0 0 0 0 0 0 0 0 0 0 0 0 0 0 0 0 0 0 0 0 0 0 0 0 0 0 0 0 0 0 0 0 0 0 0 0 0 0 0 0 0 0 0 0 0 0 0 0 0 0 0 0 0 0 0 0 0 0 0 0 0 0 0 0 0 0 0 0 0 0 0 0 0 0 0 0 0 0 0 0 0 0 0 0 0 0 0 0 0 0 0 0 0 0 0 0 0 0 0 0 0 0 0 0 0 0 0 0 0 0 0 0 0 0 0 0 0
				</DataArray>
				<DataArray Name="F3" type="Float32" format="ascii">