<?xml version="1.0"?>
<VTKFile type="PolyData">
	<PolyData>
		<Piece NumberOfPoints="961" NumberOfPolys="900">
			<Points>
				<DataArray type="Float32" NumberOfComponents="3" format="ascii">
 0 0 0 0.04 0 0 0.08 0 0 0.12 0 0 0.16 0 0 0.2 0 0 0.24 0 0 0.28 0 0 0.32 0 0 0.36 0 0 0.4 0 0 0.44 0 0 0.48 0 0 0.52 0 0 0.56 0 0 0.6 0 0 0.64 0 0 0.68 0 0 0.72 0 0 0.76 0 0 0.8 0 0 0.84 0 0 0.88 0 0 0.92 0 0 0.96 0 0 1 0 0 1.04 0 0 1.08 0 0 1.12 0 0 1.16 0 0 1.2 0 0 0 0.04 0 0.04 0.04 0 0.08 0.04 0 0.12 0.04 0 0.16 0.04 0 0.2 0.04 0 0.24 0.04 0 0.28 0.04 0 0.32 0.04 0 0.36 0.04 0 0.4 0.04 0 0.44 0.04 0 0.48 0.04 0 0.52 0.04 0 0.56 0.04 0 0.6 0.04 0 0.64 0.04 0 0.68 0.04 0 0.72 0.04 0 0.76 0.04 0 0.8 0.04 0 0.84 0.04 0 0.88 0.04 0 0.92 0.04 0 0.96 0.04 0 1 0.04 0 1.04 0.04 0 1.08 0.04 0 1.12 0.04 0 1.16 0.04 0 1.2 0.04 0 0 0.08 0 0.04 0.08 0 0.08 0.08 0 0.12 0.08 0 0.16 0.08 0 0.2 0.08 0 0.24 0.08 0 0.28 0.08 0 0.32 0.08 0 0.36 0.08 0 0.4 0.08 0 0.44 0.08 0 0.48 0.08 0 0.52 0.08 0 0.56 0.08 0 0.6 0.08 0 0.64 0.08 0 0.68 0.08 0 0.72 0.08 0 0.76 0.08 0 0.8 0.08 0 0.84 0.08 0 0.88 0.08 0 0.92 0.08 0 0.96 0.08 0 1 0.08 0 1.04 0.08 0 1.08 0.08 0 1.12 0.08 0 1.16 0.08 0 1.2 0.08 0 0 0.12 0 0.04 0.12 0 0.08 0.12 0 0.12 0.12 0 0.16 0.12 0 0.2 0.12 0 0.24 0.12 0 0.28 0.12 0 0.32 0.12 0 0.36 0.12 0 0.4 0.12 0 0.44 0.12 0 0.48 0.12 0 0.52 0.12 0 0.56 0.12 0 0.6 0.12 0 0.64 0.12 0 0.68 0.12 0 0.72 0.12 0 0.76 0.12 0 0.8 0.12 0 0.84 0.12 0 0.88 0.12 0 0.92 0.12 0 0.96 0.12 0 1 0.12 0 1.04 0.12 0 1.08 0.12 0 1.12 0.12 0 1.16 0.12 0 1.2 0.12 0 0 0.16 0 0.04 0.16 0 0.08 0.16 0 0.12 0.16 0 0.16 0.16 0 0.2 0.16 0 0.24 0.16 0 0.28 0.16 0 0.32 0.16 0 0.36 0.16 0 0.4 0.16 0 0.44 0.16 0 0.48 0.16 0 0.52 0.16 0 0.56 0.16 0 0.6 0.16 0 0.64 0.16 0 0.68 0.16 0 0.72 0.16 0 0.76 0.16 0 0.8 0.16 0 0.84 0.16 0 0.88 0.16 0 0.92 0.16 0 0.96 0.16 0 1 0.16 0 1.04 0.16 0 1.08 0.16 0 1.12 0.16 0 1.16 0.16 0 1.2 0.16 0 0 0.2 0 0.04 0.2 0 0.08 0.2 0 0.12 0.2 0 0.16 0.2 0 0.2 0.2 0 0.24 0.2 0 0.28 0.2 0 0.32 0.2 0 0.36 0.2 0 0.4 0.2 0 0.44 0.2 0 0.48 0.2 0 0.52 0.2 0 0.56 0.2 0 0.6 0.2 0 0.64 0.2 0 0.68 0.2 0 0.72 0.2 0 0.76 0.2 0 0.8 0.2 0 0.84 0.2 0 0.88 0.2 0 0.92 0.2 0 0.96 0.2 0 1 0.2 0 1.04 0.2 0 1.08 0.2 0 1.12 0.2 0 1.16 0.2 0 1.2 0.2 0 0 0.24 0 0.04 0.24 0 0.08 0.24 0 0.12 0.24 0 0.16 0.24 0 0.2 0.24 0 0.24 0.24 0 0.28 0.24 0 0.32 0.24 0 0.36 0.24 0 0.4 0.24 0 0.44 0.24 0 0.48 0.24 0 0.52 0.24 0 0.56 0.24 0 0.6 0.24 0 0.64 0.24 0 0.68 0.24 0 0.72 0.24 0 0.76 0.24 0 0.8 0.24 0 0.84 0.24 0 0.88 0.24 0 0.92 0.24 0 0.96 0.24 0 1 0.24 0 1.04 0.24 0 1.08 0.24 0 1.12 0.24 0 1.16 0.24 0 1.2 0.24 0 0 0.28 0 0.04 0.28 0 0.08 0.28 0 0.12 0.28 0 0.16 0.28 0 0.2 0.28 0 0.24 0.28 0 0.28 0.28 0 0.32 0.28 0 0.36 0.28 0 0.4 0.28 0 0.44 0.28 0 0.48 0.28 0 0.52 0.28 0 0.56 0.28 0 0.6 0.28 0 0.64 0.28 0 0.68 0.28 0 0.72 0.28 0 0.76 0.28 0 0.8 0.28 0 0.84 0.28 0 0.88 0.28 0 0.92 0.28 0 0.96 0.28 0 1 0.28 0 1.04 0.28 0 1.08 0.28 0 1.12 0.28 0 1.16 0.28 0 1.2 0.28 0 0 0.32 0 0.04 0.32 0 0.08 0.32 0 0.12 0.32 0 0.16 0.32 0 0.2 0.32 0 0.24 0.32 0 0.28 0.32 0 0.32 0.32 0 0.36 0.32 0 0.4 0.32 0 0.44 0.32 0 0.48 0.32 0 0.52 0.32 0 0.56 0.32 0 0.6 0.32 0 0.64 0.32 0 0.68 0.32 0 0.72 0.32 0 0.76 0.32 0 0.8 0.32 0 0.84 0.32 0 0.88 0.32 0 0.92 0.32 0 0.96 0.32 0 1 0.32 0 1.04 0.32 0 1.08 0.32 0 1.12 0.32 0 1.16 0.32 0 1.2 0.32 0 0 0.36 0 0.04 0.36 0 0.08 0.36 0 0.12 0.36 0 0.16 0.36 0 0.2 0.36 0 0.24 0.36 0 0.28 0.36 0 0.32 0.36 0 0.36 0.36 0 0.4 0.36 0 0.44 0.36 0 0.48 0.36 0 0.52 0.36 0 0.56 0.36 0 0.6 0.36 0 0.64 0.36 0 0.68 0.36 0 0.72 0.36 0 0.76 0.36 0 0.8 0.36 0 0.84 0.36 0 0.88 0.36 0 0.92 0.36 0 0.96 0.36 0 1 0.36 0 1.04 0.36 0 1.08 0.36 0 1.12 0.36 0 1.16 0.36 0 1.2 0.36 0 0 0.4 0 0.04 0.4 0 0.08 0.4 0 0.12 0.4 0 0.16 0.4 0 0.2 0.4 0 0.24 0.4 0 0.28 0.4 0 0.32 0.4 0 0.36 0.4 0 0.4 0.4 0 0.44 0.4 0 0.48 0.4 0 0.52 0.4 0 0.56 0.4 0 0.6 0.4 0 0.64 0.4 0 0.68 0.4 0 0.72 0.4 0 0.76 0.4 0 0.8 0.4 0 0.84 0.4 0 0.88 0.4 0 0.92 0.4 0 0.96 0.4 0 1 0.4 0 1.04 0.4 0 1.08 0.4 0 1.12 0.4 0 1.16 0.4 0 1.2 0.4 0 0 0.44 0 0.04 0.44 0 0.08 0.44 0 0.12 0.44 0 0.16 0.44 0 0.2 0.44 0 0.24 0.44 0 0.28 0.44 0 0.32 0.44 0 0.36 0.44 0 0.4 0.44 0 0.44 0.44 0 0.48 0.44 0 0.52 0.44 0 0.56 0.44 0 0.6 0.44 0 0.64 0.44 0 0.68 0.44 0 0.72 0.44 0 0.76 0.44 0 0.8 0.44 0 0.84 0.44 0 0.88 0.44 0 0.92 0.44 0 0.96 0.44 0 1 0.44 0 1.04 0.44 0 1.08 0.44 0 1.12 0.44 0 1.16 0.44 0 1.2 0.44 0 0 0.48 0 0.04 0.48 0 0.08 0.48 0 0.12 0.48 0 0.16 0.48 0 0.2 0.48 0 0.24 0.48 0 0.28 0.48 0 0.32 0.48 0 0.36 0.48 0 0.4 0.48 0 0.44 0.48 0 0.48 0.48 0 0.52 0.48 0 0.56 0.48 0 0.6 0.48 0 0.64 0.48 0 0.68 0.48 0 0.72 0.48 0 0.76 0.48 0 0.8 0.48 0 0.84 0.48 0 0.88 0.48 0 0.92 0.48 0 0.96 0.48 0 1 0.48 0 1.04 0.48 0 1.08 0.48 0 1.12 0.48 0 1.16 0.48 0 1.2 0.48 0 0 0.52 0 0.04 0.52 0 0.08 0.52 0 0.12 0.52 0 0.16 0.52 0 0.2 0.52 0 0.24 0.52 0 0.28 0.52 0 0.32 0.52 0 0.36 0.52 0 0.4 0.52 0 0.44 0.52 0 0.48 0.52 0 0.52 0.52 0 0.56 0.52 0 0.6 0.52 0 0.64 0.52 0 0.68 0.52 0 0.72 0.52 0 0.76 0.52 0 0.8 0.52 0 0.84 0.52 0 0.88 0.52 0 0.92 0.52 0 0.96 0.52 0 1 0.52 0 1.04 0.52 0 1.08 0.52 0 1.12 0.52 0 1.16 0.52 0 1.2 0.52 0 0 0.56 0 0.04 0.56 0 0.08 0.56 0 0.12 0.56 0 0.16 0.56 0 0.2 0.56 0 0.24 0.56 0 0.28 0.56 0 0.32 0.56 0 0.36 0.56 0 0.4 0.56 0 0.44 0.56 0 0.48 0.56 0 0.52 0.56 0 0.56 0.56 0 0.6 0.56 0 0.64 0.56 0 0.68 0.56 0 0.72 0.56 0 0.76 0.56 0 0.8 0.56 0 0.84 0.56 0 0.88 0.56 0 0.92 0.56 0 0.96 0.56 0 1 0.56 0 1.04 0.56 0 1.08 0.56 0 1.12 0.56 0 1.16 0.56 0 1.2 0.56 0 0 0.6 0 0.04 0.6 0 0.08 0.6 0 0.12 0.6 0 0.16 0.6 0 0.2 0.6 0 0.24 0.6 0 0.28 0.6 0 0.32 0.6 0 0.36 0.6 0 0.4 0.6 0 0.44 0.6 0 0.48 0.6 0 0.52 0.6 0 0.56 0.6 0 0.6 0.6 0 0.64 0.6 0 0.68 0.6 0 0.72 0.6 0 0.76 0.6 0 0.8 0.6 0 0.84 0.6 0 0.88 0.6 0 0.92 0.6 0 0.96 0.6 0 1 0.6 0 1.04 0.6 0 1.08 0.6 0 1.12 0.6 0 1.16 0.6 0 1.2 0.6 0 0 0.64 0 0.04 0.64 0 0.08 0.64 0 0.12 0.64 0 0.16 0.64 0 0.2 0.64 0 0.24 0.64 0 0.28 0.64 0 0.32 0.64 0 0.36 0.64 0 0.4 0.64 0 0.44 0.64 0 0.48 0.64 0 0.52 0.64 0 0.56 0.64 0 0.6 0.64 0 0.64 0.64 0 0.68 0.64 0 0.72 0.64 0 0.76 0.64 0 0.8 0.64 0 0.84 0.64 0 0.88 0.64 0 0.92 0.64 0 0.96 0.64 0 1 0.64 0 1.04 0.64 0 1.08 0.64 0 1.12 0.64 0 1.16 0.64 0 1.2 0.64 0 0 0.68 0 0.04 0.68 0 0.08 0.68 0 0.12 0.68 0 0.16 0.68 0 0.2 0.68 0 0.24 0.68 0 0.28 0.68 0 0.32 0.68 0 0.36 0.68 0 0.4 0.68 0 0.44 0.68 0 0.48 0.68 0 0.52 0.68 0 0.56 0.68 0 0.6 0.68 0 0.64 0.68 0 0.68 0.68 0 0.72 0.68 0 0.76 0.68 0 0.8 0.68 0 0.84 0.68 0 0.88 0.68 0 0.92 0.68 0 0.96 0.68 0 1 0.68 0 1.04 0.68 0 1.08 0.68 0 1.12 0.68 0 1.16 0.68 0 1.2 0.68 0 0 0.72 0 0.04 0.72 0 0.08 0.72 0 0.12 0.72 0 0.16 0.72 0 0.2 0.72 0 0.24 0.72 0 0.28 0.72 0 0.32 0.72 0 0.36 0.72 0 0.4 0.72 0 0.44 0.72 0 0.48 0.72 0 0.52 0.72 0 0.56 0.72 0 0.6 0.72 0 0.64 0.72 0 0.68 0.72 0 0.72 0.72 0 0.76 0.72 0 0.8 0.72 0 0.84 0.72 0 0.88 0.72 0 0.92 0.72 0 0.96 0.72 0 1 0.72 0 1.04 0.72 0 1.08 0.72 0 1.12 0.72 0 1.16 0.72 0 1.2 0.72 0 0 0.76 0 0.04 0.76 0 0.08 0.76 0 0.12 0.76 0 0.16 0.76 0 0.2 0.76 0 0.24 0.76 0 0.28 0.76 0 0.32 0.76 0 0.36 0.76 0 0.4 0.76 0 0.44 0.76 0 0.48 0.76 0 0.52 0.76 0 0.56 0.76 0 0.6 0.76 0 0.64 0.76 0 0.68 0.76 0 0.72 0.76 0 0.76 0.76 0 0.8 0.76 0 0.84 0.76 0 0.88 0.76 0 0.92 0.76 0 0.96 0.76 0 1 0.76 0 1.04 0.76 0 1.08 0.76 0 1.12 0.76 0 1.16 0.76 0 1.2 0.76 0 0 0.8 0 0.04 0.8 0 0.08 0.8 0 0.12 0.8 0 0.16 0.8 0 0.2 0.8 0 0.24 0.8 0 0.28 0.8 0 0.32 0.8 0 0.36 0.8 0 0.4 0.8 0 0.44 0.8 0 0.48 0.8 0 0.52 0.8 0 0.56 0.8 0 0.6 0.8 0 0.64 0.8 0 0.68 0.8 0 0.72 0.8 0 0.76 0.8 0 0.8 0.8 0 0.84 0.8 0 0.88 0.8 0 0.92 0.8 0 0.96 0.8 0 1 0.8 0 1.04 0.8 0 1.08 0.8 0 1.12 0.8 0 1.16 0.8 0 1.2 0.8 0 0 0.84 0 0.04 0.84 0 0.08 0.84 0 0.12 0.84 0 0.16 0.84 0 0.2 0.84 0 0.24 0.84 0 0.28 0.84 0 0.32 0.84 0 0.36 0.84 0 0.4 0.84 0 0.44 0.84 0 0.48 0.84 0 0.52 0.84 0 0.56 0.84 0 0.6 0.84 0 0.64 0.84 0 0.68 0.84 0 0.72 0.84 0 0.76 0.84 0 0.8 0.84 0 0.84 0.84 0 0.88 0.84 0 0.92 0.84 0 0.96 0.84 0 1 0.84 0 1.04 0.84 0 1.08 0.84 0 1.12 0.84 0 1.16 0.84 0 1.2 0.84 0 0 0.88 0 0.04 0.88 0 0.08 0.88 0 0.12 0.88 0 0.16 0.88 0 0.2 0.88 0 0.24 0.88 0 0.28 0.88 0 0.32 0.88 0 0.36 0.88 0 0.4 0.88 0 0.44 0.88 0 0.48 0.88 0 0.52 0.88 0 0.56 0.88 0 0.6 0.88 0 0.64 0.88 0 0.68 0.88 0 0.72 0.88 0 0.76 0.88 0 0.8 0.88 0 0.84 0.88 0 0.88 0.88 0 0.92 0.88 0 0.96 0.88 0 1 0.88 0 1.04 0.88 0 1.08 0.88 0 1.12 0.88 0 1.16 0.88 0 1.2 0.88 0 0 0.92 0 0.04 0.92 0 0.08 0.92 0 0.12 0.92 0 0.16 0.92 0 0.2 0.92 0 0.24 0.92 0 0.28 0.92 0 0.32 0.92 0 0.36 0.92 0 0.4 0.92 0 0.44 0.92 0 0.48 0.92 0 0.52 0.92 0 0.56 0.92 0 0.6 0.92 0 0.64 0.92 0 0.68 0.92 0 0.72 0.92 0 0.76 0.92 0 0.8 0.92 0 0.84 0.92 0 0.88 0.92 0 0.92 0.92 0 0.96 0.92 0 1 0.92 0 1.04 0.92 0 1.08 0.92 0 1.12 0.92 0 1.16 0.92 0 1.2 0.92 0 0 0.96 0 0.04 0.96 0 0.08 0.96 0 0.12 0.96 0 0.16 0.96 0 0.2 0.96 0 0.24 0.96 0 0.28 0.96 0 0.32 0.96 0 0.36 0.96 0 0.4 0.96 0 0.44 0.96 0 0.48 0.96 0 0.52 0.96 0 0.56 0.96 0 0.6 0.96 0 0.64 0.96 0 0.68 0.96 0 0.72 0.96 0 0.76 0.96 0 0.8 0.96 0 0.84 0.96 0 0.88 0.96 0 0.92 0.96 0 0.96 0.96 0 1 0.96 0 1.04 0.96 0 1.08 0.96 0 1.12 0.96 0 1.16 0.96 0 1.2 0.96 0 0 1 0 0.04 1 0 0.08 1 0 0.12 1 0 0.16 1 0 0.2 1 0 0.24 1 0 0.28 1 0 0.32 1 0 0.36 1 0 0.4 1 0 0.44 1 0 0.48 1 0 0.52 1 0 0.56 1 0 0.6 1 0 0.64 1 0 0.68 1 0 0.72 1 0 0.76 1 0 0.8 1 0 0.84 1 0 0.88 1 0 0.92 1 0 0.96 1 0 1 1 0 1.04 1 0 1.08 1 0 1.12 1 0 1.16 1 0 1.2 1 0 0 1.04 0 0.04 1.04 0 0.08 1.04 0 0.12 1.04 0 0.16 1.04 0 0.2 1.04 0 0.24 1.04 0 0.28 1.04 0 0.32 1.04 0 0.36 1.04 0 0.4 1.04 0 0.44 1.04 0 0.48 1.04 0 0.52 1.04 0 0.56 1.04 0 0.6 1.04 0 0.64 1.04 0 0.68 1.04 0 0.72 1.04 0 0.76 1.04 0 0.8 1.04 0 0.84 1.04 0 0.88 1.04 0 0.92 1.04 0 0.96 1.04 0 1 1.04 0 1.04 1.04 0 1.08 1.04 0 1.12 1.04 0 1.16 1.04 0 1.2 1.04 0 0 1.08 0 0.04 1.08 0 0.08 1.08 0 0.12 1.08 0 0.16 1.08 0 0.2 1.08 0 0.24 1.08 0 0.28 1.08 0 0.32 1.08 0 0.36 1.08 0 0.4 1.08 0 0.44 1.08 0 0.48 1.08 0 0.52 1.08 0 0.56 1.08 0 0.6 1.08 0 0.64 1.08 0 0.68 1.08 0 0.72 1.08 0 0.76 1.08 0 0.8 1.08 0 0.84 1.08 0 0.88 1.08 0 0.92 1.08 0 0.96 1.08 0 1 1.08 0 1.04 1.08 0 1.08 1.08 0 1.12 1.08 0 1.16 1.08 0 1.2 1.08 0 0 1.12 0 
[...]
			<CellData Scalars="Density">
				<DataArray Name="Density" type="Float32" format="ascii">
 0.00612907 0.0063003 0.00677154 0.00767216 0.00908036 0.0111636 0.0142221 0.0186324 0.0247209 0.0327086 0.0429502 0.0558353 0.072167 0.0937509 0.124747 0.17332 0.253068 0.381635 0.572983 0.833599 1.14989 1.40695 1.48316 1.33441 0.906041 0.78181 0.751462 0.763418 0.779493 0.7846 0.00629886 0.00638741 0.00671691 0.00740002 0.00842909 0.00999188 0.0124508 0.0162028 0.021609 0.0292453 0.0397107 0.0537197 0.0714807 0.0930483 0.121324 0.163584 0.23411 0.354481 0.549113 0.838882 1.20636 1.48774 1.55383 1.36759 0.928852 0.806298 0.773738 0.783463 0.799609 0.801731 0.00676665 0.00671468 0.00685391 0.00735773 0.00822067 0.00952559 0.0116612 0.015242 0.021167 0.0305788 0.0460544 0.0700273 0.098765 0.126253 0.15263 0.183266 0.231269 0.323726 0.491283 0.757648 1.12164 1.43358 1.52326 1.36009 0.938379 0.821842 0.790964 0.801481 0.819489 0.822819 0.00765995 0.00739357 0.00735512 0.00786875 0.00877934 0.0102494 0.0130514 0.0184698 0.0289536 0.0471252 0.0740774 0.108291 0.146111 0.187864 0.232864 0.278152 0.32782 0.406469 0.556631 0.810363 1.15455 1.45545 1.55464 1.39902 0.967008 0.843184 0.808465 0.814778 0.835079 0.841644 0.00905565 0.00841445 0.00821347 0.00877229 0.0097025 0.0110978 0.0147167 0.0230467 0.038465 0.0615171 0.0897022 0.122702 0.161287 0.211554 0.276358 0.350255 0.428284 0.524381 0.675389 0.913497 1.2339 1.51153 1.59095 1.40675 0.987303 0.858269 0.817833 0.816651 0.837599 0.846704 0.0111203 0.00996377 0.00950932 0.0102236 0.0110609 0.0115173 0.0139367 0.0216661 0.0368 0.059174 0.085189 0.110643 0.145884 0.205829 0.283753 0.377241 0.488619 0.613666 0.775581 1.00293 1.28665 1.52635 1.59315 1.4244 1.03262 0.877501 0.825234 0.81439 0.834266 0.845611 0.0141571 0.0124079 0.0116301 0.0129935 0.0146203 0.0138925 0.0133983 0.0170631 0.0283474 0.0448095 0.0609325 0.0776623 0.106417 0.162799 0.257046 0.376599 0.506525 0.653514 0.825614 1.03852 1.29629 1.5264 1.59918 1.4585 1.10264 0.905536 0.833573 0.811606 0.825506 0.836417 0.0185432 0.016138 0.0151883 0.018389 0.0229177 0.0215928 0.017122 0.0159976 0.0187745 0.0268967 0.0384475 0.0529953 0.0763043 0.122731 0.202335 0.321571 0.478087 0.645714 0.823017 1.02163 1.25543 1.47852 1.57677 1.48208 1.20095 0.961851 0.863234 0.825532 0.827431 0.836985 0.0246033 0.0215128 0.0210717 0.028829 0.0383051 0.0366963 0.0283771 0.0187935 0.0180934 0.0201287 0.0262085 0.0368533 0.0554082 0.0915723 0.15696 0.25888 0.407644 0.590647 0.774448 0.966707 1.17643 1.40426 1.54865 1.52621 1.33475 1.07026 0.92631 0.86379 0.848375 0.852065 0.0325698 0.029111 0.0304069 0.0468441 0.061292 0.0590964 0.0449059 0.0269557 0.0201109 0.0203275 0.0228671 0.0296019 0.043658 0.0710567 0.120892 0.20186 0.321497 0.480901 0.667989 0.862777 1.06828 1.29113 1.4854 1.55553 1.47205 1.23166 1.02966 0.933021 0.893792 0.883551 0.0428 0.039533 0.0457503 0.0737028 0.0895163 0.0852353 0.0611664 0.0384856 0.0261526 0.0228432 0.0238919 0.0282816 0.0387075 0.0605047 0.0988158 0.160466 0.253886 0.383368 0.547411 0.736227 0.949232 1.17575 1.39631 1.55845 1.58097 1.42811 1.1901 1.03883 0.96163 0.931413 0.0556806 0.0534995 0.0695892 0.107937 0.122555 0.110751 0.0777001 0.0529597 0.0367901 0.0295783 0.0282907 0.0310203 0.0398541 0.057972 0.0891272 0.136542 0.207597 0.309226 0.444077 0.609266 0.807126 1.04002 1.28492 1.51187 1.63823 1.60012 1.38399 1.16974 1.04873 0.992052 0.072018 0.0712313 0.0982263 0.145743 0.161121 0.145853 0.106379 0.0762912 0.0554487 0.0437475 0.0388067 0.0399416 0.0464034 0.0616136 0.0878717 0.127241 0.182442 0.261186 0.369841 0.510123 0.685241 0.902965 1.16366 1.42724 1.64495 1.71332 1.5762 1.34716 1.17367 1.07273 0.0936292 0.0928041 0.125657 0.18743 0.211337 0.205775 0.162891 0.12299 0.0919147 0.0714283 0.0607895 0.0581756 0.0617536 0.0719815 0.093728 0.127877 0.175181 0.238194 0.324471 0.440857 0.592416 0.787538 1.03516 1.3241 1.60465 1.77109 1.74134 1.56122 1.33953 1.18861 0.124689 0.121124 0.152029 0.232288 0.276069 0.283619 0.257231 0.202852 0.157643 0.121559 0.0993144 0.0894403 0.0881475 0.0939691 0.107846 0.13738 0.179496 0.234549 0.305904 0.401082 0.530837 0.70235 0.927403 1.21253 1.51814 1.78019 1.86411 1.76443 1.56488 1.38112 0.173385 0.163473 0.182747 0.277463 0.349839 0.377069 0.376588 0.322184 0.259841 0.202792 0.161129 0.137056 0.127622 0.128213 0.137563 0.155695 0.193259 0.242979 0.305879 0.386647 0.495048 0.64363 0.843274 1.10958 1.42638 1.74323 1.95083 1.9576 1.85207 1.66732 0.253348 0.23412 0.230929 0.327062 0.427689 0.488293 0.506377 0.478507 0.408789 0.322696 0.254888 0.208335 0.183079 0.175542 0.179664 0.193337 0.215474 0.260047 0.317283 0.389091 0.481391 0.606459 0.781313 1.02802 1.34373 1.67626 1.99493 2.13751 2.19075 2.05122 0.382204 0.354657 0.323597 0.405717 0.523681 0.613235 0.653292 0.645814 0.591431 0.482187 0.384698 0.310391 0.261958 0.238746 0.234692 0.243045 0.260117 0.284322 0.335241 0.400746 0.483637 0.592368 0.744823 0.965332 1.26749 1.63107 2.0448 2.38673 2.67015 2.5333 0.573828 0.549494 0.491291 0.556043 0.674645 0.775221 0.825447 0.823059 0.77511 0.669032 0.548588 0.445542 0.371095 0.325196 0.306352 0.306 0.317489 0.335293 0.360241 0.418388 0.493374 0.594788 0.734604 0.935407 1.22475 1.61178 2.12631 2.65308 3.14353 3.09686 0.834606 0.839401 0.757711 0.809943 0.912779 1.00284 1.0385 1.02184 0.967407 0.863878 0.737518 0.610622 0.511631 0.441992 0.401759 0.387212 0.389238 0.401011 0.418186 0.445601 0.51357 0.613112 0.744315 0.933016 1.20927 1.60122 2.16257 2.78876 3.43395 3.71715 1.15081 1.20674 1.12189 1.15412 1.23348 1.28684 1.29635 1.25586 1.1773 1.06929 0.950481 0.808389 0.686515 0.593724 0.531682 0.4958 0.481913 0.483615 0.493333 0.512967 0.555046 0.642595 0.773313 0.949635 1.20925 1.59179 2.14099 2.8183 3.60386 4.28481 1.40739 1.48764 1.43358 1.45506 1.51128 1.52641 1.52637 1.4787 1.40502 1.2921 1.17677 1.04125 0.904121 0.788819 0.703373 0.644352 0.607116 0.592565 0.594639 0.612515 0.64122 0.703749 0.824315 0.995888 1.24226 1.60173 2.1115 2.79944 3.73679 4.65198 1.48296 1.55335 1.52297 1.55403 1.59051 1.59293 1.59895 1.57675 1.549 1.48599 1.3969 1.28586 1.16452 1.03624 0.928343 0.843719 0.781613 0.745101 0.734522 0.743687 0.772327 0.821832 0.922514 1.07978 1.31222 1.64865 2.12707 2.81309 3.87105 4.84041 1.33359 1.36674 1.35935 1.39813 1.40617 1.42368 1.45791 1.48166 1.52597 1.55543 1.55848 1.51214 1.42758 1.32494 1.21323 1.10991 1.02796 0.965011 0.934968 0.932464 0.948828 0.994954 1.07806 1.22172 1.43163 1.74458 2.19924 2.9025 4.01831 4.96013 0.905394 0.928275 0.937859 0.966478 0.986801 1.03186 1.10176 1.19997 1.33379 1.47127 1.58038 1.63797 1.645 1.60498 1.5186 1.42683 1.34389 1.26758 1.22513 1.20917 1.2075 1.23991 1.31185 1.43068 1.63787 1.9287 2.37516 3.08208 4.20691 5.07216 0.781659 0.806155 0.821715 0.843074 0.858135 0.877298 0.905231 0.961368 1.0695 1.23063 1.42698 1.59942 1.713 1.77099 1.78014 1.74301 1.67611 1.63139 1.61343 1.60454 1.5965 1.60003 1.64605 1.74276 1.93072 2.22267 2.6732 3.38508 4.45857 5.22815 0.751405 0.773682 0.790914 0.808432 0.81781 0.825196 0.833487 0.863042 0.925968 1.02908 1.18928 1.38309 1.5755 1.7411 1.86394 1.95085 1.99483 2.04463 2.1254 2.16112 2.14027 2.11571 2.12438 2.1998 2.38089 2.67151 3.12129 3.87754 4.86386 5.47812 0.763418 0.78347 0.801508 0.814842 0.816743 0.814478 0.811641 0.825498 0.863656 0.9327 1.03838 1.16917 1.34659 1.56077 1.76418 1.95761 2.13754 2.38799 2.65431 2.78969 2.81673 2.80073 2.81572 2.89614 3.08145 3.38287 3.88621 4.78168 5.71006 6.04631 0.779494 0.799616 0.819515 0.835144 0.837693 0.834381 0.825615 0.827523 0.848379 0.893655 0.961389 1.0484 1.17331 1.33932 1.56467 1.85192 2.19061 2.67003 3.14282 3.43292 3.60198 3.73722 3.87229 4.02178 4.20838 4.45273 4.86941 5.73107 7.05473 7.66223 0.78461 0.801732 0.822843 0.841707 0.846794 0.845712 0.836515 0.837086 0.85212 0.883504 0.931292 0.991879 1.07255 1.18849 1.38099 1.66729 2.05118 2.5331 3.09663 3.7184 4.28274 4.65062 4.843 4.96329 5.07867 5.24502 5.47086 6.05781 7.67813 9.72476
				</DataArray>
				<DataArray Name="Energy" type="Float32" format="ascii">
 978.099 951.416 885.198 781.27 660.101 536.897 421.435 321.66 242.456 183.244 139.563 107.344 83.02 63.836 47.8935 34.3802 23.4333 15.4608 10.1803 6.85985 4.809 3.63409 2.91116 2.21307 1.62606 1.44341 1.38237 1.36364 1.35918 1.35473 951.629 938.315 892.247 809.874 710.946 599.774 481.24 369.774 277.326 204.969 150.977 111.623 83.8454 64.3372 49.2365 36.4241 25.3691 16.6026 10.562 6.79454 4.5919 3.45141 2.78427 2.13478 1.58836 1.42171 1.36472 1.34701 1.34582 1.33733 885.832 892.541 874.406 814.449 728.983 629.031 513.714 393.072 283.084 195.971 130.172 85.6098 60.6746 47.3913 39.0965 32.4657 25.5987 18.2046 11.893 7.57122 4.95413 3.59186 2.84125 2.14909 1.59271 1.42224 1.36166 1.33997 1.33631 1.33121 782.51 810.58 814.74 761.538 682.476 584.484 458.905 324.361 206.867 127.111 80.8014 55.3544 40.9663 31.8209 25.6075 21.3491 18.039 14.4347 10.4021 7.05908 4.83027 3.55716 2.8265 2.1565 1.6035 1.43096 1.36964 1.34508 1.34135 1.33458 661.9 712.18 729.612 683.025 617.421 539.654 406.935 259.764 155.584 97.2571 66.5385 48.7635 37.0076 28.2089 21.5467 16.9474 13.7884 11.2108 8.63717 6.3012 4.55866 3.49251 2.8232 2.17477 1.64571 1.46857 1.40189 1.37187 1.36719 1.36033 538.985 601.464 630.109 585.945 541.45 519.925 429.449 276.129 162.415 100.88 69.9564 53.8138 40.8171 28.9068 20.9469 15.7233 12.1004 9.57679 7.52199 5.76273 4.39536 3.47715 2.8421 2.24147 1.73282 1.52667 1.44613 1.40849 1.40066 1.39241 423.363 482.898 515.085 460.95 409.605 430.806 446.519 350.194 210.528 132.971 97.6175 76.4319 55.7923 36.4655 23.063 15.7216 11.6595 9.00558 7.08521 5.57196 4.36972 3.51515 2.91883 2.35907 1.86435 1.60797 1.50218 1.4528 1.43968 1.43353 323.208 371.261 394.461 325.787 261.229 277.051 348.971 373.341 317.486 221.136 154.499 111.899 77.6168 48.2621 29.2611 18.3736 12.334 9.07861 7.06948 5.62659 4.47161 3.60007 2.99178 2.46627 2.00226 1.68956 1.54962 1.48438 1.46115 1.45629 243.613 278.564 284.364 207.757 156.238 162.873 210.31 317.143 329.164 295.258 226.283 160.808 106.789 64.5365 37.615 22.7695 14.408 9.89585 7.47186 5.89451 4.71937 3.76716 3.07708 2.54763 2.10944 1.76169 1.57444 1.48677 1.45386 1.45082 184.023 205.913 197.076 127.877 97.6114 101.02 132.678 220.659 295.503 292.174 259.183 199.889 135.421 83.0422 48.7232 29.1027 18.1972 12.0838 8.60783 6.54503 5.13393 4.05174 3.21253 2.6162 2.17321 1.82658 1.5898 1.47694 1.43021 1.42258 140.05 151.653 131.037 81.2122 66.6808 69.919 97.2513 154.339 226.773 259.461 247.992 209.04 152.506 97.408 59.4536 36.4976 22.9396 15.057 10.4131 7.5963 5.72667 4.40978 3.42823 2.71587 2.22586 1.87748 1.61575 1.46704 1.39856 1.38071 107.64 112.08 86.1467 55.5365 48.8213 53.7634 76.3942 111.978 161.081 200.053 208.984 190.407 147.922 101.473 65.8148 42.7259 27.9351 18.5708 12.7368 9.0906 6.65899 4.94009 3.73714 2.87809 2.30448 1.93292 1.66478 1.47648 1.3835 1.35066 83.19 84.1366 61.0069 41.0694 37.0472 40.8264 55.8135 77.6284 106.717 135.144 152.115 147.606 126.859 95.2685 66.555 45.7365 31.6219 21.8681 15.1997 10.7809 7.78493 5.66098 4.14289 3.11551 2.42385 1.99133 1.72155 1.51598 1.3956 1.34015 63.9178 64.5055 47.6153 31.8943 28.2374 28.9147 36.445 48.1624 64.2929 82.6231 96.9523 101.117 95.0615 81.3371 62.1856 45.3045 32.8027 23.8157 17.2006 12.3861 8.93555 6.45619 4.66271 3.40667 2.58239 2.07058 1.78253 1.57813 1.43147 1.35345 47.9152 49.3169 39.2508 25.6707 21.5692 20.9567 23.0463 29.1868 37.4529 48.4447 59.1736 65.5811 66.3475 62.0384 53.8178 41.9518 31.8069 24.0411 18.0927 13.4861 9.90409 7.21102 5.20735 3.74585 2.78873 2.18092 1.84117 1.64006 1.48993 1.40452 34.3668 36.4495 32.5581 21.4018 16.9672 15.7304 15.7218 18.3392 22.6842 28.9697 36.3346 42.5873 45.59 45.1881 41.9127 36.7722 29.3144 22.9936 17.9554 13.8607 10.5061 7.80581 5.71166 4.11214 3.02323 2.32628 1.90949 1.70531 1.57043 1.4901 23.4077 25.367 25.6362 18.0813 13.8072 12.1083 11.663 12.323 14.3683 18.1282 22.8513 27.8204 31.5329 32.7153 31.7815 29.3182 26.0409 21.2699 17.1223 13.666 10.7369 8.24401 6.16755 4.50927 3.30146 2.52069 2.01058 1.78182 1.66997 1.594 15.438 16.5939 18.2128 14.4609 11.2269 9.58309 9.00874 9.07702 9.88267 12.0508 15.0075 18.504 21.7873 23.78 24.0025 22.995 21.274 19.2215 16.0446 13.1772 10.7063 8.51481 6.60033 4.96353 3.67358 2.77443 2.18381 1.88131 1.77882 1.72188 10.1653 10.5551 11.8926 10.4138 8.64728 7.52494 7.08664 7.06903 7.46559 8.59409 10.3891 12.699 15.1528 17.1549 18.0815 17.9276 17.1189 16.0447 14.777 12.576 10.5235 8.64773 6.966 5.45375 4.15801 3.15064 2.45376 2.05367 1.919 1.85041 6.85159 6.79035 7.56908 7.0633 6.30526 5.76296 5.57188 5.62552 5.89023 6.53693 7.58278 9.06726 10.7538 12.352 13.4613 13.8475 13.6522 13.1726 12.5826 11.7805 10.2448 8.67902 7.24814 5.90866 4.68853 3.64181 2.84589 2.35032 2.09155 1.96987 4.8051 4.58997 4.95213 4.83125 4.55926 4.39454 4.36903 4.47024 4.71621 5.12911 5.71939 6.64755 7.76936 8.91941 9.88179 10.4896 10.7273 10.7019 10.5247 10.2512 9.69611 8.58969 7.37721 6.25087 5.16369 4.13662 3.27962 2.67682 2.2625 2.06032 3.63245 3.45039 3.5908 3.55658 3.49211 3.47634 3.51428 3.59908 3.76511 4.04871 4.40595 4.9346 5.65231 6.44671 7.1992 7.7924 8.23553 8.5108 8.65039 8.68867 8.59751 8.15122 7.30912 6.34781 5.40979 4.48336 3.62851 2.93638 2.36474 2.09244 2.90995 2.78335 2.84036 2.82555 2.82251 2.84115 2.91786 2.99087 3.07594 3.21096 3.42627 3.73435 4.13892 4.65758 5.20229 5.70572 6.16232 6.5953 6.96227 7.25218 7.39341 7.30702 6.88449 6.2038 5.42355 4.61922 3.82378 3.08868 2.39419 2.0878 2.21205 2.13398 2.14823 2.15556 2.17399 2.24033 2.35794 2.4653 2.54672 2.61539 2.71504 2.87704 3.11409 3.40422 3.74353 4.10979 4.50774 4.96168 5.44993 5.90306 6.25735 6.36146 6.20117 5.75518 5.20906 4.56332 3.85386 3.10097 2.38508 2.07796 1.62555 1.58795 1.5923 1.60302 1.64514 1.73191 1.8633 2.00117 2.1086 2.17276 2.22551 2.30393 2.42311 2.58136 2.78752 3.02182 3.30021 3.67153 4.15537 4.68696 5.16169 5.41941 5.42318 5.2024 4.78196 4.30461 3.70327 3.0121 2.36206 2.07646 1.44344 1.42173 1.42224 1.43089 1.46838 1.52635 1.60754 1.68901 1.76115 1.82618 1.87729 1.93273 1.99096 2.0701 2.1806 2.32613 2.52038 2.77328 3.14943 3.64181 4.1358 4.49272 4.63058 4.55773 4.28949 3.92542 3.45089 2.88311 2.33508 2.08705 1.38247 1.3648 1.36172 1.36963 1.4018 1.44598 1.50199 1.54939 1.57428 1.58974 1.61574 1.66477 1.72138 1.78226 1.84089 1.90925 2.01046 2.18355 2.45274 2.84314 3.27898 3.62815 3.83691 3.86015 3.69015 3.44177 3.11344 2.6755 2.2704 2.09592 1.36378 1.34714 1.34009 1.34514 1.37186 1.40844 1.4527 1.48429 1.48676 1.47705 1.46721 1.47665 1.51599 1.57802 1.63986 1.70508 1.7815 1.88128 2.05438 2.3515 2.67656 2.93376 3.08089 3.1062 3.01695 2.88476 2.66508 2.3217 2.08027 2.0341 1.35933 1.34596 1.33641 1.3414 1.36719 1.40064 1.43965 1.46115 1.45393 1.4304 1.39882 1.38375 1.39577 1.4315 1.48986 1.57022 1.66971 1.77861 1.91866 2.09134 2.26246 2.36511 2.39419 2.38251 2.35753 2.34123 2.26812 2.07707 1.83787 1.748 1.35488 1.33746 1.33132 1.33465 1.36034 1.39239 1.4335 1.45628 1.45088 1.42279 1.38101 1.35096 1.34042 1.35356 1.40455 1.49001 1.59383 1.72172 1.85025 1.97027 2.06023 2.09279 2.08792 2.07785 2.07578 2.08789 2.09547 2.03502 1.74736 1.65873
				</DataArray>
				<DataArray Name="F1" type="Float32" format="ascii">
 1 1 1 1 1 1 1 1 1 1 1 1 1 1 1 1 1 1 1 1 1 1 1 1 1 1 1 1 1 1 1 1 1 1 1 1 1 1 1 1 1 1 1 1 1 1 1 1 1 1 1 1 1 1 1 1 1 1 1 1 1 1 1 1 1 1 1 1 1 1 1 1 1 1 1 1 1 1 1 1 1 1 1 1 1 1 1 1 1 1 1 1 1 1 1 1 1 1 1 1 1 1 1 1 1 1 1 1 1 1 1 1 1 1 1 1 1 1 1 1 1 1 1 1 1 1 1 1 1 1 1 1 1 1 1 1 1 1 1 1 1 1 1 1 1 1 1 1 1 1 1 1 1 1 1 1 1 1 1 1 1 1 1 1 1 1 1 1 1 1 1 1 1 1 1 1 1 1 1 1 1 1 1 1 1 1 1 1 1 1 1 1 1 1 1 1 1 1 1 1 1 1 1 1 1 1 1 1 1 1 1 1 1 1 1 1 1 1 1 1 1 1 1 1 1 1 1 1 1 1 1 1 1 1 1 1 1 1 1 1 1 1 1 1 1 1 1 1 1 1 1 1 1 1 1 1 1 1 1 1 1 1 1 1 1 1 1 1 1 1 1 1 1 1 1 1 1 1 1 1 1 1 1 1 1 1 1 1 1 1 1 1 1 1 1 1 1 1 1 1 1 1 1 1 1 1 1 1 1 1 1 1 1 1 1 1 1 1 1 1 1 1 1 1 1 1 1 1 1 1 1 1 1 1 1 1 1 1 1 1 1 1 1 1 1 1 1 1 1 1 1 1 1 1 1 1 1 1 1 1 1 1 1 1 1 1 1 1 1 1 1 1 1 1 1 1 1 1 1 1 1 1 1 1 1 1 1 1 1 1 1 1 1 1 1 1 1 1 1 1 1 1 1 1 1 1 1 1 1 1 1 1 1 1 1 1 1 1 1 1 1 1 1 1 1 1 1 1 1 1 1 1 1 1 1 1 1 1 1 1 1 1 1 1 1 1 1 1 1 1 1 1 1 1 1 1 1 1 1 1 1 1 1 1 1 1 1 1 1 1 1 1 1 1 1 1 1 1 1 1 1 1 1 1 1 1 1 1 1 1 1 1 1 1 1 1 1 1 1 1 1 1 1 1 1 1 1 1 1 1 1 1 1 1 1 1 1 1 1 1 1 1 1 1 1 1 1 1 1 1 1 1 1 1 1 1 1 1 1 1 1 1 1 1 1 1 1 1 1 1 1 1 1 1 1 1 1 1 1 1 1 1 1 1 1 1 1 1 1 1 1 1 1 1 1 1 1 1 1 1 1 1 1 1 1 1 1 1 1 1 1 1 1 1 1 1 1 1 1 1 1 1 1 1 1 1 1 1 1 1 1 1 1 1 1 1 1 1 1 1 1 1 1 1 1 1 1 1 1 1 1 1 1 1 1 1 1 1 1 1 1 1 1 1 1 1 1 1 1 1 1 1 1 1 1 1 1 1 1 1 1 1 1 1 1 1 1 1 1 1 1 1 1 1 1 1 1 1 1 1 1 1 1 1 1 1 1 1 1 1 1 1 1 1 1 1 1 1 1 1 1 1 1 1 1 1 1 1 1 1 1 1 1 1 1 1 1 1 1 1 1 1 1 1 1 1 1 1 1 1 1 1 1 1 1 1 1 1 1 1 1 1 1 1 1 1 1 1 1 1 1 1 1 1 1 1 1 1 1 1 1 1 1 1 1 1 1 1 1 1 1 1 1 1 1 1 1 1 1 1 1 1 1 1 1 1 1 1 1 1 1 1 1 1 1 1 1 1 1 1 1 1 1 1 1 1 1 1 1 1 1 1 1 1 1 1 1 1 1 1 1 1 1 1 1 1 1 1 1 1 1 1 1 1 1 1 1 1 1 1 1 1 1 1 1 1 1 1 1 1 1 1 1 1 1 1 1 1 1 1 1 1 1 1 1 1 1 1 1 1 1 1 1 1 1 1 1 1 1 1 1 1 1 1 1 1 1 1 1 1 1 1 1 1 1 1 1 1 1 1
				</DataArray>
				<DataArray Name="F2" type="Float32" format="ascii">
 0 0 0 0 0 0 0 0 0 0 0 0 0 0 0 0 0 0 0 0 0 0 0 0 0 0 0 0 0 0 0 0 0 0 0 0 0 0 0 0 0 0 0 0 0 0 0 0 0 0 0 0 0 0 0 0 0 0 0 0 0 0 0 0 0 0 0 0 0 0 0 0 0 0 0 0 0 0 0 0 0 0 0 0 0 0 0 0 0 0 0 0 0 0 0 0 0 0 0 0 0 0 0 0 0 0 0 0 0 0 0 0 0 0 0 0 0 0 0 0 0 0 0 0 0 0 0 0 0 0 0 0 0 0 0 0 0 0 0 0 0 0 0 0 0 0 0 0 0 0 0 0 0 0 0 0 0 0 0 0 0 0 0 0 0 0 0 0 0 0 0 0 0 0 0 0 0 0 0 0 0 0 0 0 0 0 0 0 0 0 0 0 0 0 0 0 0 0 0 0 0 0 0 0 0 0 0 0 0 0 0 0 0 0 0 0 0 0 0 0 0 0 0 0 0 0 0 0 0 0 0 0 0 0 0 0 0 0 0 0 0 0 0 0 0 0 0 0 0 0 0 0 0 0 0 0 0 0 0 0 0 0 0 0 0 0 0 0 0 0 0 0 0 0 0 0 0 0 0 0 0 0 0 0 0 0 0 0 0 0 0 0 0 0 0 0 0 0 0 0 0 0 0 0 0 0 0 0 0 0 0 0 0 0 0 0 0 0 0 0 0 0 0 0 0 0 0 0 0 0 0 0 0 0 0 0 0 0 0 0 0 0 0 0 0 0 0 0 0 0 0 0 0 0 0 0 0 0 0 0 0 0 0 0 0 0 0 0 0 0 0 0 0 0 0 0 0 0 0 0 0 0 0 0 0 0 0 0 0 0 0 0 0 0 0 0 0 0 0 0 0 0 0 0 0 0 0 0 0 0 0 0 0 0 0 0 0 0 0 0 0 0 0 0 0 0 0 0 0 0 0 0 0 0 0 0 0 0 0 0 0 0 0 0 0 0 0 0 0 0 0 0 0 0 0 0 0 0 0 0 0 0 0 0 0 0 0 0 0 0 0 0 0 0 0 0 0 0 0 0 0 0 0 0 0 0 0 0 0 0 0 0 0 0 0 0 0 0 0 0 0 0 0 0 0 0 0 0 0 0 0 0 0 0 0 0 0 0 0 0 0 0 0 0 0 0 0 0 0 0 0 0 0 0 0 0 0 0 0 0 0 0 0 0 0 0 0 0 0 0 0 0 0 0 0 0 0 0 0 0 0 0 0 0 0 0 0 0 0 0 0 0 0 0 0 0 0 0 0 0 0 0 0 0 0 0 0 0 0 0 0 0 0 0 0 0 0 0 0 0 0 0 0 0 0 0 0 0 0 0 0 0 0 0 0 0 0 0 0 0 0 0 0 0 0 0 0 0 0 0 0 0 0 0 0 0 0 0 0 0 0 0 0 0 0 0 0 0 0 0 0 0 0 0 0 0 0 0 0 0 0 0 0 0 0 0 0 0 0 0 0 0 0 0 0 0 0 0 0 0 0 0 0 0 0 0 0 0 0 0 0 0 0 0 0 0 0 0 0 0 0 0 0 0 0 0 0 0 0 0 0 0 0 0 0 0 0 0 0 0 0 0 0 0 0 0 0 0 0 0 0 0 0 0 0 0 0 0 0 0 0 0 0 0 0 0 0 0 0 0 0 0 0 0 0 0 0 0 0 0 0 0 0 0 0 0 0 0 0 0 0 0 0 0 0 0 0 0 0 0 0 0 0 0 0 0 0 0 0 0 0 0 0 0 0 0 0 0 0 0 0 0 0 0 0 0 0 0 0 0 0 0 0 0 0 0 0 0 0 0 0 0 0 0 0 0 0 0 0 0 0 0 0 0 0 0 0 0 0 0 0 0 0 0 0 0 0 0 0 0 0 0 0 0 0 0 0 0 0 0 0 0 0 0 0 0 0 0 0 0 0 0 0 0 0 0 0 0 0 0 0 0 0 0 0 0 0 0 0 0 0 0 0 0 0 0 0 0 0 0
				</DataArray>
				<DataArray Name="F3" type="Float32" format="ascii">