<?xml version="1.0"?>
<VTKFile type="PolyData">
	<PolyData>
		<Piece NumberOfPoints="961" NumberOfPolys="900">
			<Points>
				<DataArray type="Float32" NumberOfComponents="3" format="ascii">
 0 0 0 0.04 0 0 0.08 0 0 0.12 0 0 0.16 0 0 0.2 0 0 0.24 0 0 0.28 0 0 0.32 0 0 0.36 0 0 0.4 0 0 0.44 0 0 0.48 0 0 0.52 0 0 0.56 0 0 0.6 0 0 0.64 0 0 0.68 0 0 0.72 0 0 0.76 0 0 0.8 0 0 0.84 0 0 0.88 0 0 0.92 0 0 0.96 0 0 1 0 0 1.04 0 0 1.08 0 0 1.12 0 0 1.16 0 0 1.2 0 0 0 0.04 0 0.04 0.04 0 0.08 0.04 0 0.12 0.04 0 0.16 0.04 0 0.2 0.04 0 0.24 0.04 0 0.28 0.04 0 0.32 0.04 0 0.36 0.04 0 0.4 0.04 0 0.44 0.04 0 0.48 0.04 0 0.52 0.04 0 0.56 0.04 0 0.6 0.04 0 0.64 0.04 0 0.68 0.04 0 0.72 0.04 0 0.76 0.04 0 0.8 0.04 0 0.84 0.04 0 0.88 0.04 0 0.92 0.04 0 0.96 0.04 0 1 0.04 0 1.04 0.04 0 1.08 0.04 0 1.12 0.04 0 1.16 0.04 0 1.2 0.04 0 0 0.08 0 0.04 0.08 0 0.08 0.08 0 0.12 0.08 0 0.16 0.08 0 0.2 0.08 0 0.24 0.08 0 0.28 0.08 0 0.32 0.08 0 0.36 0.08 0 0.4 0.08 0 0.44 0.08 0 0.48 0.08 0 0.52 0.08 0 0.56 0.08 0 0.6 0.08 0 0.64 0.08 0 0.68 0.08 0 0.72 0.08 0 0.76 0.08 0 0.8 0.08 0 0.84 0.08 0 0.88 0.08 0 0.92 0.08 0 0.96 0.08 0 1 0.08 0 1.04 0.08 0 1.08 0.08 0 1.12 0.08 0 1.16 0.08 0 1.2 0.08 0 0 0.12 0 0.04 0.12 0 0.08 0.12 0 0.12 0.12 0 0.16 0.12 0 0.2 0.12 0 0.24 0.12 0 0.28 0.12 0 0.32 0.12 0 0.36 0.12 0 0.4 0.12 0 0.44 0.12 0 0.48 0.12 0 0.52 0.12 0 0.56 0.12 0 0.6 0.12 0 0.64 0.12 0 0.68 0.12 0 0.72 0.12 0 0.76 0.12 0 0.8 0.12 0 0.84 0.12 0 0.88 0.12 0 0.92 0.12 0 0.96 0.12 0 1 0.12 0 1.04 0.12 0 1.08 0.12 0 1.12 0.12 0 1.16 0.12 0 1.2 0.12 0 0 0.16 0 0.04 0.16 0 0.08 0.16 0 0.12 0.16 0 0.16 0.16 0 0.2 0.16 0 0.24 0.16 0 0.28 0.16 0 0.32 0.16 0 0.36 0.16 0 0.4 0.16 0 0.44 0.16 0 0.48 0.16 0 0.52 0.16 0 0.56 0.16 0 0.6 0.16 0 0.64 0.16 0 0.68 0.16 0 0.72 0.16 0 0.76 0.16 0 0.8 0.16 0 0.84 0.16 0 0.88 0.16 0 0.92 0.16 0 0.96 0.16 0 1 0.16 0 1.04 0.16 0 1.08 0.16 0 1.12 0.16 0 1.16 0.16 0 1.2 0.16 0 0 0.2 0 0.04 0.2 0 0.08 0.2 0 0.12 0.2 0 0.16 0.2 0 0.2 0.2 0 0.24 0.2 0 0.28 0.2 0 0.32 0.2 0 0.36 0.2 0 0.4 0.2 0 0.44 0.2 0 0.48 0.2 0 0.52 0.2 0 0.56 0.2 0 0.6 0.2 0 0.64 0.2 0 0.68 0.2 0 0.72 0.2 0 0.76 0.2 0 0.8 0.2 0 0.84 0.2 0 0.88 0.2 0 0.92 0.2 0 0.96 0.2 0 1 0.2 0 1.04 0.2 0 1.08 0.2 0 1.12 0.2 0 1.16 0.2 0 1.2 0.2 0 0 0.24 0 0.04 0.24 0 0.08 0.24 0 0.12 0.24 0 0.16 0.24 0 0.2 0.24 0 0.24 0.24 0 0.28 0.24 0 0.32 0.24 0 0.36 0.24 0 0.4 0.24 0 0.44 0.24 0 0.48 0.24 0 0.52 0.24 0 0.56 0.24 0 0.6 0.24 0 0.64 0.24 0 0.68 0.24 0 0.72 0.24 0 0.76 0.24 0 0.8 0.24 0 0.84 0.24 0 0.88 0.24 0 0.92 0.24 0 0.96 0.24 0 1 0.24 0 1.04 0.24 0 1.08 0.24 0 1.12 0.24 0 1.16 0.24 0 1.2 0.24 0 0 0.28 0 0.04 0.28 0 0.08 0.28 0 0.12 0.28 0 0.16 0.28 0 0.2 0.28 0 0.24 0.28 0 0.28 0.28 0 0.32 0.28 0 0.36 0.28 0 0.4 0.28 0 0.44 0.28 0 0.48 0.28 0 0.52 0.28 0 0.56 0.28 0 0.6 0.28 0 0.64 0.28 0 0.68 0.28 0 0.72 0.28 0 0.76 0.28 0 0.8 0.28 0 0.84 0.28 0 0.88 0.28 0 0.92 0.28 0 0.96 0.28 0 1 0.28 0 1.04 0.28 0 1.08 0.28 0 1.12 0.28 0 1.16 0.28 0 1.2 0.28 0 0 0.32 0 0.04 0.32 0 0.08 0.32 0 0.12 0.32 0 0.16 0.32 0 0.2 0.32 0 0.24 0.32 0 0.28 0.32 0 0.32 0.32 0 0.36 0.32 0 0.4 0.32 0 0.44 0.32 0 0.48 0.32 0 0.52 0.32 0 0.56 0.32 0 0.6 0.32 0 0.64 0.32 0 0.68 0.32 0 0.72 0.32 0 0.76 0.32 0 0.8 0.32 0 0.84 0.32 0 0.88 0.32 0 0.92 0.32 0 0.96 0.32 0 1 0.32 0 1.04 0.32 0 1.08 0.32 0 1.12 0.32 0 1.16 0.32 0 1.2 0.32 0 0 0.36 0 0.04 0.36 0 0.08 0.36 0 0.12 0.36 0 0.16 0.36 0 0.2 0.36 0 0.24 0.36 0 0.28 0.36 0 0.32 0.36 0 0.36 0.36 0 0.4 0.36 0 0.44 0.36 0 0.48 0.36 0 0.52 0.36 0 0.56 0.36 0 0.6 0.36 0 0.64 0.36 0 0.68 0.36 0 0.72 0.36 0 0.76 0.36 0 0.8 0.36 0 0.84 0.36 0 0.88 0.36 0 0.92 0.36 0 0.96 0.36 0 1 0.36 0 1.04 0.36 0 1.08 0.36 0 1.12 0.36 0 1.16 0.36 0 1.2 0.36 0 0 0.4 0 0.04 0.4 0 0.08 0.4 0 0.12 0.4 0 0.16 0.4 0 0.2 0.4 0 0.24 0.4 0 0.28 0.4 0 0.32 0.4 0 0.36 0.4 0 0.4 0.4 0 0.44 0.4 0 0.48 0.4 0 0.52 0.4 0 0.56 0.4 0 0.6 0.4 0 0.64 0.4 0 0.68 0.4 0 0.72 0.4 0 0.76 0.4 0 0.8 0.4 0 0.84 0.4 0 0.88 0.4 0 0.92 0.4 0 0.96 0.4 0 1 0.4 0 1.04 0.4 0 1.08 0.4 0 1.12 0.4 0 1.16 0.4 0 1.2 0.4 0 0 0.44 0 0.04 0.44 0 0.08 0.44 0 0.12 0.44 0 0.16 0.44 0 0.2 0.44 0 0.24 0.44 0 0.28 0.44 0 0.32 0.44 0 0.36 0.44 0 0.4 0.44 0 0.44 0.44 0 0.48 0.44 0 0.52 0.44 0 0.56 0.44 0 0.6 0.44 0 0.64 0.44 0 0.68 0.44 0 0.72 0.44 0 0.76 0.44 0 0.8 0.44 0 0.84 0.44 0 0.88 0.44 0 0.92 0.44 0 0.96 0.44 0 1 0.44 0 1.04 0.44 0 1.08 0.44 0 1.12 0.44 0 1.16 0.44 0 1.2 0.44 0 0 0.48 0 0.04 0.48 0 0.08 0.48 0 0.12 0.48 0 0.16 0.48 0 0.2 0.48 0 0.24 0.48 0 0.28 0.48 0 0.32 0.48 0 0.36 0.48 0 0.4 0.48 0 0.44 0.48 0 0.48 0.48 0 0.52 0.48 0 0.56 0.48 0 0.6 0.48 0 0.64 0.48 0 0.68 0.48 0 0.72 0.48 0 0.76 0.48 0 0.8 0.48 0 0.84 0.48 0 0.88 0.48 0 0.92 0.48 0 0.96 0.48 0 1 0.48 0 1.04 0.48 0 1.08 0.48 0 1.12 0.48 0 1.16 0.48 0 1.2 0.48 0 0 0.52 0 0.04 0.52 0 0.08 0.52 0 0.12 0.52 0 0.16 0.52 0 0.2 0.52 0 0.24 0.52 0 0.28 0.52 0 0.32 0.52 0 0.36 0.52 0 0.4 0.52 0 0.44 0.52 0 0.48 0.52 0 0.52 0.52 0 0.56 0.52 0 0.6 0.52 0 0.64 0.52 0 0.68 0.52 0 0.72 0.52 0 0.76 0.52 0 0.8 0.52 0 0.84 0.52 0 0.88 0.52 0 0.92 0.52 0 0.96 0.52 0 1 0.52 0 1.04 0.52 0 1.08 0.52 0 1.12 0.52 0 1.16 0.52 0 1.2 0.52 0 0 0.56 0 0.04 0.56 0 0.08 0.56 0 0.12 0.56 0 0.16 0.56 0 0.2 0.56 0 0.24 0.56 0 0.28 0.56 0 0.32 0.56 0 0.36 0.56 0 0.4 0.56 0 0.44 0.56 0 0.48 0.56 0 0.52 0.56 0 0.56 0.56 0 0.6 0.56 0 0.64 0.56 0 0.68 0.56 0 0.72 0.56 0 0.76 0.56 0 0.8 0.56 0 0.84 0.56 0 0.88 0.56 0 0.92 0.56 0 0.96 0.56 0 1 0.56 0 1.04 0.56 0 1.08 0.56 0 1.12 0.56 0 1.16 0.56 0 1.2 0.56 0 0 0.6 0 0.04 0.6 0 0.08 0.6 0 0.12 0.6 0 0.16 0.6 0 0.2 0.6 0 0.24 0.6 0 0.28 0.6 0 0.32 0.6 0 0.36 0.6 0 0.4 0.6 0 0.44 0.6 0 0.48 0.6 0 0.52 0.6 0 0.56 0.6 0 0.6 0.6 0 0.64 0.6 0 0.68 0.6 0 0.72 0.6 0 0.76 0.6 0 0.8 0.6 0 0.84 0.6 0 0.88 0.6 0 0.92 0.6 0 0.96 0.6 0 1 0.6 0 1.04 0.6 0 1.08 0.6 0 1.12 0.6 0 1.16 0.6 0 1.2 0.6 0 0 0.64 0 0.04 0.64 0 0.08 0.64 0 0.12 0.64 0 0.16 0.64 0 0.2 0.64 0 0.24 0.64 0 0.28 0.64 0 0.32 0.64 0 0.36 0.64 0 0.4 0.64 0 0.44 0.64 0 0.48 0.64 0 0.52 0.64 0 0.56 0.64 0 0.6 0.64 0 0.64 0.64 0 0.68 0.64 0 0.72 0.64 0 0.76 0.64 0 0.8 0.64 0 0.84 0.64 0 0.88 0.64 0 0.92 0.64 0 0.96 0.64 0 1 0.64 0 1.04 0.64 0 1.08 0.64 0 1.12 0.64 0 1.16 0.64 0 1.2 0.64 0 0 0.68 0 0.04 0.68 0 0.08 0.68 0 0.12 0.68 0 0.16 0.68 0 0.2 0.68 0 0.24 0.68 0 0.28 0.68 0 0.32 0.68 0 0.36 0.68 0 0.4 0.68 0 0.44 0.68 0 0.48 0.68 0 0.52 0.68 0 0.56 0.68 0 0.6 0.68 0 0.64 0.68 0 0.68 0.68 0 0.72 0.68 0 0.76 0.68 0 0.8 0.68 0 0.84 0.68 0 0.88 0.68 0 0.92 0.68 0 0.96 0.68 0 1 0.68 0 1.04 0.68 0 1.08 0.68 0 1.12 0.68 0 1.16 0.68 0 1.2 0.68 0 0 0.72 0 0.04 0.72 0 0.08 0.72 0 0.12 0.72 0 0.16 0.72 0 0.2 0.72 0 0.24 0.72 0 0.28 0.72 0 0.32 0.72 0 0.36 0.72 0 0.4 0.72 0 0.44 0.72 0 0.48 0.72 0 0.52 0.72 0 0.56 0.72 0 0.6 0.72 0 0.64 0.72 0 0.68 0.72 0 0.72 0.72 0 0.76 0.72 0 0.8 0.72 0 0.84 0.72 0 0.88 0.72 0 0.92 0.72 0 0.96 0.72 0 1 0.72 0 1.04 0.72 0 1.08 0.72 0 1.12 0.72 0 1.16 0.72 0 1.2 0.72 0 0 0.76 0 0.04 0.76 0 0.08 0.76 0 0.12 0.76 0 0.16 0.76 0 0.2 0.76 0 0.24 0.76 0 0.28 0.76 0 0.32 0.76 0 0.36 0.76 0 0.4 0.76 0 0.44 0.76 0 0.48 0.76 0 0.52 0.76 0 0.56 0.76 0 0.6 0.76 0 0.64 0.76 0 0.68 0.76 0 0.72 0.76 0 0.76 0.76 0 0.8 0.76 0 0.84 0.76 0 0.88 0.76 0 0.92 0.76 0 0.96 0.76 0 1 0.76 0 1.04 0.76 0 1.08 0.76 0 1.12 0.76 0 1.16 0.76 0 1.2 0.76 0 0 0.8 0 0.04 0.8 0 0.08 0.8 0 0.12 0.8 0 0.16 0.8 0 0.2 0.8 0 0.24 0.8 0 0.28 0.8 0 0.32 0.8 0 0.36 0.8 0 0.4 0.8 0 0.44 0.8 0 0.48 0.8 0 0.52 0.8 0 0.56 0.8 0 0.6 0.8 0 0.64 0.8 0 0.68 0.8 0 0.72 0.8 0 0.76 0.8 0 0.8 0.8 0 0.84 0.8 0 0.88 0.8 0 0.92 0.8 0 0.96 0.8 0 1 0.8 0 1.04 0.8 0 1.08 0.8 0 1.12 0.8 0 1.16 0.8 0 1.2 0.8 0 0 0.84 0 0.04 0.84 0 0.08 0.84 0 0.12 0.84 0 0.16 0.84 0 0.2 0.84 0 0.24 0.84 0 0.28 0.84 0 0.32 0.84 0 0.36 0.84 0 0.4 0.84 0 0.44 0.84 0 0.48 0.84 0 0.52 0.84 0 0.56 0.84 0 0.6 0.84 0 0.64 0.84 0 0.68 0.84 0 0.72 0.84 0 0.76 0.84 0 0.8 0.84 0 0.84 0.84 0 0.88 0.84 0 0.92 0.84 0 0.96 0.84 0 1 0.84 0 1.04 0.84 0 1.08 0.84 0 1.12 0.84 0 1.16 0.84 0 1.2 0.84 0 0 0.88 0 0.04 0.88 0 0.08 0.88 0 0.12 0.88 0 0.16 0.88 0 0.2 0.88 0 0.24 0.88 0 0.28 0.88 0 0.32 0.88 0 0.36 0.88 0 0.4 0.88 0 0.44 0.88 0 0.48 0.88 0 0.52 0.88 0 0.56 0.88 0 0.6 0.88 0 0.64 0.88 0 0.68 0.88 0 0.72 0.88 0 0.76 0.88 0 0.8 0.88 0 0.84 0.88 0 0.88 0.88 0 0.92 0.88 0 0.96 0.88 0 1 0.88 0 1.04 0.88 0 1.08 0.88 0 1.12 0.88 0 1.16 0.88 0 1.2 0.88 0 0 0.92 0 0.04 0.92 0 0.08 0.92 0 0.12 0.92 0 0.16 0.92 0 0.2 0.92 0 0.24 0.92 0 0.28 0.92 0 0.32 0.92 0 0.36 0.92 0 0.4 0.92 0 0.44 0.92 0 0.48 0.92 0 0.52 0.92 0 0.56 0.92 0 0.6 0.92 0 0.64 0.92 0 0.68 0.92 0 0.72 0.92 0 0.76 0.92 0 0.8 0.92 0 0.84 0.92 0 0.88 0.92 0 0.92 0.92 0 0.96 0.92 0 1 0.92 0 1.04 0.92 0 1.08 0.92 0 1.12 0.92 0 1.16 0.92 0 1.2 0.92 0 0 0.96 0 0.04 0.96 0 0.08 0.96 0 0.12 0.96 0 0.16 0.96 0 0.2 0.96 0 0.24 0.96 0 0.28 0.96 0 0.32 0.96 0 0.36 0.96 0 0.4 0.96 0 0.44 0.96 0 0.48 0.96 0 0.52 0.96 0 0.56 0.96 0 0.6 0.96 0 0.64 0.96 0 0.68 0.96 0 0.72 0.96 0 0.76 0.96 0 0.8 0.96 0 0.84 0.96 0 0.88 0.96 0 0.92 0.96 0 0.96 0.96 0 1 0.96 0 1.04 0.96 0 1.08 0.96 0 1.12 0.96 0 1.16 0.96 0 1.2 0.96 0 0 1 0 0.04 1 0 0.08 1 0 0.12 1 0 0.16 1 0 0.2 1 0 0.24 1 0 0.28 1 0 0.32 1 0 0.36 1 0 0.4 1 0 0.44 1 0 0.48 1 0 0.52 1 0 0.56 1 0 0.6 1 0 0.64 1 0 0.68 1 0 0.72 1 0 0.76 1 0 0.8 1 0 0.84 1 0 0.88 1 0 0.92 1 0 0.96 1 0 1 1 0 1.04 1 0 1.08 1 0 1.12 1 0 1.16 1 0 1.2 1 0 0 1.04 0 0.04 1.04 0 0.08 1.04 0 0.12 1.04 0 0.16 1.04 0 0.2 1.04 0 0.24 1.04 0 0.28 1.04 0 0.32 1.04 0 0.36 1.04 0 0.4 1.04 0 0.44 1.04 0 0.48 1.04 0 0.52 1.04 0 0.56 1.04 0 0.6 1.04 0 0.64 1.04 0 0.68 1.04 0 0.72 1.04 0 0.76 1.04 0 0.8 1.04 0 0.84 1.04 0 0.88 1.04 0 0.92 1.04 0 0.96 1.04 0 1 1.04 0 1.04 1.04 0 1.08 1.04 0 1.12 1.04 0 1.16 1.04 0 1.2 1.04 0 0 1.08 0 0.04 1.08 0 0.08 1.08 0 0.12 1.08 0 0.16 1.08 0 0.2 1.08 0 0.24 1.08 0 0.28 1.08 0 0.32 1.08 0 0.36 1.08 0 0.4 1.08 0 0.44 1.08 0 0.48 1.08 0 0.52 1.08 0 0.56 1.08 0 0.6 1.08 0 0.64 1.08 0 0.68 1.08 0 0.72 1.08 0 0.76 1.08 0 0.8 1.08 0 0.84 1.08 0 0.88 1.08 0 0.92 1.08 0 0.96 1.08 0 1 1.08 0 1.04 1.08 0 1.08 1.08 0 1.12 1.08 0 1.16 1.08 0 1.2 1.08 0 0 1.12 0 
[...]
			<CellData Scalars="Density">
				<DataArray Name="Density" type="Float32" format="ascii">
 0.0034601 0.00350447 0.00361201 0.0038162 0.00415314 0.00465583 0.00535389 0.00627432 0.00744474 0.00889435 0.0106557 0.0127656 0.0152699 0.018233 0.0217511 0.0259743 0.0311334 0.0376018 0.0462592 0.0595183 0.0828048 0.122851 0.19238 0.315548 0.536456 0.910692 1.47242 2.35299 3.60335 4.47323 0.00350456 0.00354224 0.00363642 0.00382386 0.00414323 0.00463005 0.00531679 0.00623463 0.0074168 0.0089022 0.010735 0.0129616 0.0156364 0.0188282 0.0226346 0.027203 0.0327724 0.0397571 0.0490562 0.0631159 0.0873113 0.128631 0.198986 0.321403 0.539782 0.911429 1.47402 2.35587 3.61965 4.50532 0.00361229 0.0036366 0.0037014 0.00384726 0.00410655 0.00451001 0.00509896 0.00590939 0.00697609 0.00833501 0.0100227 0.0120803 0.0145568 0.0175189 0.0210602 0.0253192 0.0305008 0.0369551 0.0455415 0.0584505 0.0807806 0.119643 0.187322 0.307933 0.526027 0.89712 1.46378 2.35425 3.66615 4.63278 0.00381671 0.00382423 0.0038474 0.0039397 0.00414262 0.00448332 0.00497726 0.00565891 0.00657312 0.00776796 0.00929426 0.0112082 0.0135751 0.0164754 0.0200033 0.0242897 0.0295214 0.0360369 0.0446765 0.057561 0.0796293 0.116667 0.179464 0.290252 0.495533 0.858309 1.42378 2.32091 3.64861 4.63548 0.00415382 0.00414364 0.00410658 0.00414255 0.00428166 0.00456189 0.00501206 0.00565927 0.00653924 0.00770364 0.00921387 0.0111373 0.0135475 0.0165273 0.020188 0.0246816 0.0302217 0.0371559 0.0462955 0.0596501 0.0820438 0.119408 0.182726 0.29215 0.490129 0.841023 1.39251 2.28357 3.6187 4.61676 0.00465663 0.00463035 0.0045097 0.00448286 0.00456157 0.00477924 0.00517728 0.00578439 0.00664059 0.00779741 0.00932134 0.0112918 0.0138038 0.0169723 0.0209323 0.0258567 0.0319749 0.0396329 0.0495911 0.0636983 0.0865869 0.124472 0.186886 0.292073 0.47884 0.810572 1.33975 2.20703 3.52008 4.50422 0.00535481 0.0053169 0.00509808 0.00497614 0.00501113 0.00517669 0.00553394 0.00611563 0.00696446 0.00813907 0.00971889 0.0118043 0.0145172 0.0180004 0.0224219 0.0279784 0.0349206 0.0435899 0.0546533 0.0696649 0.0930793 0.131801 0.194852 0.299608 0.479295 0.789746 1.28895 2.11459 3.41003 4.42067 0.00627541 0.00623455 0.00590791 0.00565698 0.00565755 0.00578297 0.00611471 0.00668952 0.00755435 0.00877504 0.0104462 0.0126895 0.0156548 0.0195145 0.0244638 0.0307203 0.0385346 0.0482424 0.06044 0.0763895 0.0997513 0.139167 0.204029 0.306614 0.477247 0.770471 1.24756 2.03976 3.32915 4.36477 0.00744603 0.00741654 0.0069742 0.00657046 0.00653687 0.00663836 0.0069625 0.00755311 0.00846079 0.009758 0.0115535 0.0139904 0.0172412 0.0215072 0.0270093 0.0339804 0.0426791 0.0534335 0.0668087 0.0838127 0.107201 0.144804 0.210162 0.315604 0.483896 0.765957 1.2234 1.99014 3.31541 4.44723 0.00889587 0.00890162 0.00833324 0.00776496 0.00770095 0.00779468 0.00813625 0.00877254 0.00975637 0.0111677 0.0131295 0.0158076 0.0194011 0.0241343 0.0302548 0.0380225 0.0477117 0.0596583 0.0743801 0.0927427 0.116862 0.152507 0.21442 0.32248 0.492486 0.766007 1.21424 1.97482 3.35928 4.66194 0.0106575 0.0107342 0.0100213 0.00929149 0.00921138 0.00931862 0.00971569 0.0104428 0.0115504 0.0131273 0.0153152 0.018305 0.0223265 0.0276387 0.0345132 0.043242 0.0541201 0.0674766 0.0838269 0.103943 0.129382 0.16436 0.220352 0.323511 0.500565 0.779216 1.22922 1.99883 3.4643 5.04481 0.0127678 0.0129609 0.0120798 0.0112063 0.0111357 0.0112896 0.0118011 0.0126856 0.0139856 0.0158023 0.0182994 0.0217066 0.0262882 0.0323411 0.0401849 0.0501321 0.0625155 0.077658 0.095989 0.118316 0.145933 0.181753 0.233867 0.324705 0.498715 0.792549 1.2595 2.05389 3.61954 5.55019 0.0152728 0.015636 0.0145576 0.0135748 0.0135474 0.0138026 0.0145142 0.0156503 0.0172345 0.0193906 0.0223121 0.0262728 0.0315906 0.0386019 0.0476698 0.0591573 0.07341 0.0908009 0.111711 0.136738 0.167175 0.205383 0.256836 0.337378 0.490769 0.790677 1.29569 2.14226 3.80758 6.12443 0.018237 0.0188287 0.0175219 0.0164779 0.0165295 0.0169725 0.0179978 0.0195089 0.021498 0.0241171 0.0276091 0.0323034 0.0385674 0.0468021 0.0574019 0.0707691 0.0873082 0.107358 0.131406 0.159936 0.193921 0.235541 0.289166 0.365245 0.49501 0.763121 1.29875 2.23955 4.00878 6.77245 0.0217568 0.0226365 0.0210665 0.0200098 0.0201936 0.0209348 0.0224201 0.024458 0.0269964 0.0302312 0.0344672 0.0401135 0.0475917 0.0573414 0.0698242 0.0854456 0.104654 0.127858 0.155479 0.188197 0.226893 0.273109 0.330558 0.407403 0.523932 0.747491 1.25835 2.26732 4.11572 7.44193 0.0259826 0.0272074 0.0253297 0.0243014 0.0246918 0.0258629 0.0279793 0.0307154 0.0339662 0.0379883 0.0431797 0.050026 0.0590179 0.0706376 0.0853521 0.103639 0.125916 0.152651 0.184402 0.221721 0.265891 0.31848 0.382076 0.463136 0.577471 0.769676 1.19472 2.19973 4.13997 8.07736 0.031145 0.0327801 0.0305164 0.0295392 0.0302383 0.0319869 0.0349276 0.038535 0.0426664 0.0476724 0.0540339 0.0623772 0.0732133 0.0870851 0.104465 0.125792 0.151597 0.182286 0.218556 0.261222 0.311379 0.371328 0.443987 0.533654 0.652627 0.832928 1.18568 2.07928 4.141 8.60476 0.0376171 0.0397686 0.0369756 0.0360607 0.0371796 0.039653 0.043607 0.0482559 0.0534322 0.0596227 0.0673844 0.077486 0.0905665 0.107066 0.127559 0.152431 0.182141 0.217328 0.258616 0.307126 0.364454 0.432516 0.515759 0.619022 0.751005 0.936151 1.25722 2.0244 4.15207 8.87631 0.0462763 0.0490695 0.0455639 0.0447036 0.0463247 0.0496189 0.0546856 0.0604733 0.066831 0.0743647 0.0837473 0.0958212 0.11145 0.131098 0.155122 0.184076 0.218345 0.258476 0.305578 0.360671 0.426085 0.504385 0.599628 0.719471 0.873593 1.08066 1.40595 2.10674 4.14855 8.85938 0.0595295 0.0631242 0.0584686 0.0575828 0.0596765 0.063729 0.0697112 0.0764447 0.0838654 0.0927652 0.103897 0.118185 0.136514 0.159634 0.187883 0.221385 0.260923 0.306966 0.360583 0.423655 0.498488 0.589142 0.700687 0.840348 1.02391 1.27266 1.63685 2.36464 4.16516 8.49045 0.0828115 0.0873132 0.0807934 0.0796449 0.0820652 0.0866158 0.0931268 0.0998201 0.107284 0.116928 0.129391 0.14586 0.167031 0.193705 0.226625 0.265674 0.311137 0.364231 0.426007 0.498472 0.585345 0.691006 0.823274 0.991703 1.21403 1.52015 1.97953 2.83341 4.1953 7.65296 0.122868 0.128645 0.119669 0.116688 0.119435 0.124508 0.131853 0.139241 0.144906 0.152611 0.164425 0.181752 0.205322 0.235453 0.272982 0.31835 0.37128 0.432441 0.504308 0.589161 0.691058 0.817134 0.976189 1.18552 1.46568 1.8582 2.50535 3.50866 4.15518 6.28553 0.192432 0.199038 0.187392 0.179509 0.182771 0.186928 0.194905 0.204099 0.210274 0.214549 0.220457 0.233927 0.256859 0.289175 0.330577 0.382098 0.444034 0.515902 0.599762 0.700785 0.823411 0.976322 1.17444 1.4377 1.80681 2.37717 3.26414 4.01638 4.07116 4.45585 0.315664 0.321522 0.308074 0.290348 0.292233 0.292132 0.29966 0.306662 0.315686 0.322604 0.323636 0.324802 0.337456 0.365329 0.407506 0.463277 0.533831 0.619248 0.719778 0.840655 0.991949 1.18575 1.43791 1.78264 2.32607 3.18586 3.84633 4.15877 3.77186 2.57353 0.536662 0.540001 0.526259 0.495716 0.490279 0.478939 0.479378 0.477286 0.48392 0.492528 0.500626 0.498797 0.490863 0.495131 0.524078 0.577656 0.652861 0.751299 0.873921 1.0243 1.21447 1.46604 1.80712 2.32641 3.12354 3.88929 4.13292 3.97386 2.6315 1.44904 0.911047 0.911816 0.897527 0.858678 0.841344 0.810832 0.789939 0.770559 0.765982 0.765975 0.77913 0.792478 0.790658 0.763211 0.747643 0.76988 0.833169 0.936441 1.08102 1.27302 1.52055 1.85872 2.37768 3.18616 3.88956 4.10666 3.9854 2.82335 1.44471 1.09819 1.47288 1.47452 1.46432 1.42431 1.39303 1.34022 1.28933 1.24782 1.22353 1.21422 1.22908 1.25921 1.29537 1.29855 1.25836 1.19492 1.18594 1.25749 1.40626 1.6372 1.97986 2.50577 3.26492 3.84659 4.13295 3.98582 2.90542 1.5095 1.10513 1.02294 2.35352 2.35644 2.3549 2.3216 2.2843 2.20771 2.11518 2.0402 1.99042 1.97486 1.99869 2.0535 2.14158 2.23881 2.26683 2.19963 2.07951 2.02471 2.10704 2.36489 2.83375 3.50894 4.01656 4.15902 3.97395 2.82292 1.50959 1.11129 1.0259 1.00233 3.60394 3.62028 3.66687 3.64943 3.61963 3.52101 3.41092 3.32984 3.3159 3.35946 3.46402 3.61887 3.8065 4.00746 4.1148 4.13967 4.14123 4.15256 4.14894 4.16533 4.19533 4.15527 4.07141 3.77155 2.63172 1.44464 1.10514 1.02589 1.0026 1.00005 4.47388 4.50605 4.63361 4.63653 4.61802 4.50557 4.42199 4.36585 4.44805 4.66222 5.04422 5.5488 6.12269 6.77089 7.44108 8.07753 8.6057 8.87716 8.85984 8.49061 7.65261 6.28505 4.45587 2.57314 1.44905 1.09818 1.02293 1.00233 1.00005 1
				</DataArray>
				<DataArray Name="Energy" type="Float32" format="ascii">
 785.059 774.623 751.612 711.453 653.787 583.257 507.277 432.942 364.977 305.615 255.252 213.263 178.557 149.919 126.196 106.409 89.7594 75.624 63.6248 53.572 44.8563 36.2573 27.5938 19.6291 13.3468 8.90732 6.06653 4.27422 3.14058 2.70631 774.6 765.782 745.916 709.35 654.696 585.896 510.266 435.202 365.898 304.929 252.977 209.668 174.011 144.806 120.866 101.144 84.7791 71.0988 59.6307 50.115 41.9644 34.1014 26.2021 18.8334 12.8608 8.58914 5.86002 4.16401 3.08391 2.66721 751.552 745.877 732.826 705.06 660.562 601.511 532.09 459.189 389.063 325.736 271.033 225.056 187.031 155.78 130.109 108.947 91.3981 76.737 64.4861 54.2833 45.472 36.8131 27.9952 19.864 13.4544 8.90542 6.0192 4.22579 3.08459 2.65332 711.358 709.28 705.034 688.533 654.835 605.104 545.107 479.507 412.89 349.471 292.196 242.464 200.426 165.487 136.76 113.248 93.9952 78.1907 65.2368 54.667 45.7649 37.2159 28.6469 20.5778 13.9368 9.13055 6.09141 4.24194 3.07838 2.63433 653.679 654.63 660.556 654.845 633.598 594.715 541.343 479.504 415.061 352.426 294.785 244.04 200.873 165.003 135.53 111.46 91.838 75.8489 62.8748 52.4408 43.8852 35.961 28.1071 20.5619 14.1905 9.42395 6.28729 4.34763 3.12689 2.66405 583.155 585.857 601.552 605.166 594.756 567.704 524.099 469.139 408.722 348.165 291.351 240.657 197.072 160.565 130.547 106.168 86.5024 70.7295 58.1755 48.3079 40.5201 33.6644 26.9074 20.2105 14.3129 9.67298 6.46937 4.44427 3.17152 2.69105 507.188 510.255 532.181 545.23 541.443 524.159 490.364 443.771 389.737 333.568 279.444 230.215 187.375 151.334 121.766 97.9526 79.0047 64.0681 52.3732 43.3112 36.4091 30.7468 25.3304 19.7948 14.4038 9.92373 6.72176 4.63899 3.28677 2.76753 432.866 435.206 459.303 479.67 479.648 469.254 443.837 405.744 359.343 309.411 259.989 214.125 173.7 139.514 111.495 89.0681 71.3893 57.6031 46.9047 38.6485 32.3815 27.6037 23.2812 18.8332 14.2778 10.1718 6.99624 4.82247 3.36978 2.80778 364.912 365.91 389.167 413.056 415.21 408.858 389.847 359.401 320.895 278.286 235.098 194.231 157.696 126.539 100.92 80.4168 64.2931 51.7617 42.0651 34.5795 28.8568 24.6206 21.2045 17.7361 14.024 10.3275 7.24638 5.00044 3.42855 2.819 305.56 304.948 325.804 349.604 352.548 348.285 333.683 309.499 278.332 243.211 206.923 171.935 140.168 112.761 90.0466 71.7874 57.3869 46.1794 37.4946 30.7709 25.5911 21.7053 18.8682 16.3204 13.44 10.3222 7.42623 5.13959 3.4731 2.80208 255.206 252.993 271.067 292.281 294.862 291.434 279.535 260.073 235.162 206.956 177.453 148.531 121.846 98.5132 78.9658 63.1227 50.5504 40.7155 33.0699 27.1337 22.5161 18.9841 16.4029 14.5432 12.5521 10.1108 7.54177 5.28034 3.53189 2.76205 213.224 209.677 225.064 242.504 244.074 240.701 230.276 214.191 194.296 171.994 148.573 125.32 103.546 84.2409 67.8829 54.4975 43.7933 35.3674 28.7751 23.6355 19.6143 16.4716 14.0906 12.4254 11.1863 9.55304 7.46674 5.39557 3.607 2.72694 178.521 174.012 187.017 200.427 200.872 197.087 187.412 173.75 157.757 140.242 121.929 103.602 86.2368 70.647 57.2883 46.2555 37.3602 30.3083 24.7525 20.386 16.9418 14.2179 12.08 10.4891 9.42613 8.56876 7.14669 5.40016 3.69242 2.71165 149.882 144.799 155.75 165.459 164.978 160.56 151.355 139.551 126.594 112.838 98.6163 84.3424 70.7059 58.346 47.6511 38.7389 31.4963 25.7083 21.1142 17.4714 14.5697 12.2432 10.3784 8.90669 7.82953 7.18642 6.50529 5.23973 3.76855 2.71489 126.159 120.852 130.067 136.712 135.488 130.529 121.773 111.521 100.965 90.1206 79.0702 68.0002 57.3843 47.6982 39.2571 32.1657 26.3563 21.6765 17.9284 14.9305 12.5153 10.5544 8.95163 7.6467 6.61996 5.90679 5.53927 4.91003 3.76502 2.71628 106.37 101.123 108.898 113.19 111.409 106.14 97.9466 89.0798 80.45 71.8491 63.2186 54.6113 46.3613 38.8118 32.1981 26.6085 21.9929 18.2426 15.2122 12.762 10.7679 9.12856 7.76716 6.63415 5.70332 4.98795 4.55646 4.31269 3.69302 2.70455 89.7195 84.7523 91.3464 93.9327 91.7835 86.4655 78.9853 71.3849 64.3104 57.4328 50.6282 43.8928 37.4591 31.5739 26.4042 22.0119 18.3625 15.3707 12.9294 10.936 9.29323 7.92839 6.77992 5.80486 4.98509 4.31614 3.82982 3.62883 3.49021 2.65557 75.5843 71.0685 76.6864 78.1298 75.7939 70.6864 64.0366 57.583 51.76 46.2055 40.7703 35.4426 30.3888 25.7766 21.7243 18.2691 15.38 12.9947 11.0284 9.40519 8.05351 6.91501 5.9471 5.11595 4.3975 3.79721 3.32924 3.04879 3.12667 2.54958 63.5855 59.5984 64.4384 65.1805 62.822 58.1294 52.3347 46.8729 42.0475 37.4997 33.1012 28.824 24.808 21.1653 17.9672 15.236 12.9416 11.0318 9.44535 8.1202 7.00452 6.05458 5.23515 4.526 3.90565 3.3676 2.93178 2.62982 2.67574 2.35426 53.5342 50.0824 54.24 54.6173 52.3925 48.2632 43.2714 38.6117 34.5519 30.7603 27.1437 23.6619 20.4183 17.5026 14.9569 12.779 10.9451 9.40901 8.1206 7.03521 6.10973 5.31396 4.62019 4.01063 3.47458 3.00443 2.5977 2.28549 2.21791 2.05636 44.8261 41.9369 45.4376 45.7278 43.8482 40.4838 36.3735 32.3467 28.8265 25.5721 22.5118 19.6231 16.957 14.5851 12.5289 10.7779 9.2983 8.05498 7.00434 6.10924 5.33902 4.66814 4.07805 3.55469 3.08868 2.67368 2.31967 1.98221 1.82204 1.67554 36.238 34.083 36.7907 37.1939 35.9389 33.6415 30.7228 27.5779 24.5944 21.6848 18.9734 16.4701 14.2216 12.2485 10.5593 9.13218 7.93041 6.91465 6.05293 5.31254 4.66733 4.10031 3.59489 3.14515 2.74131 2.37192 2.07139 1.70126 1.50881 1.21763 27.5838 26.1919 27.9828 28.6366 28.0971 26.8968 25.3192 23.2682 21.1886 18.8524 16.3917 14.0853 12.0782 10.3779 8.95192 7.76703 6.77945 5.94601 5.2332 4.61825 4.07674 3.59432 3.16239 2.77103 2.41811 2.11435 1.7796 1.46424 1.24594 0.737407 19.6246 18.8284 19.8579 20.5734 20.5582 20.2071 19.7917 18.8299 17.731 16.3132 14.5365 12.421 10.4865 8.90464 7.64506 6.63258 5.80326 5.11436 4.52429 4.00889 3.5533 3.14433 2.7707 2.43257 2.1354 1.80382 1.51874 1.27695 0.890074 0.296607 13.3452 12.8587 13.4521 13.9349 14.1893 14.3122 14.4034 14.2779 14.0242 13.4394 12.5509 11.1855 9.42558 7.82854 6.61856 5.70173 4.98346 4.39591 3.90421 3.47329 3.08761 2.74056 2.41769 2.1353 1.84653 1.51773 1.31803 0.947043 0.379604 0.0452451 8.90715 8.58868 8.90502 9.13018 9.42381 9.67294 9.92383 10.1723 10.3285 10.3235 10.1123 9.55455 8.57046 7.18747 5.90676 4.98714 4.31494 3.796 3.36651 3.00356 2.673 2.37141 2.11401 1.80364 1.51773 1.32633 0.989748 0.428999 0.0601798 0.00104511 6.06695 5.86031 6.01947 6.09161 6.28746 6.46943 6.72187 6.9965 7.24699 7.42725 7.54282 7.46853 7.14879 6.50738 5.5406 4.55655 3.82928 3.32839 2.93106 2.59716 2.31932 2.07114 1.77935 1.51866 1.31797 0.989753 0.449075 0.0738237 0.00163667 9.03955e-06 4.27484 4.16459 4.22629 4.24242 4.34802 4.44456 4.63927 4.8228 5.00086 5.14023 5.28092 5.39648 5.40167 5.24142 4.91148 4.31342 3.62863 3.04827 2.62931 2.2852 1.98208 1.7012 1.46418 1.27696 0.94703 0.428997 0.0738159 0.00194716 1.22379e-05 2.53126e-06 3.1411 3.08441 3.08503 3.07881 3.12723 3.1718 3.28705 3.37002 3.42887 3.47347 3.53231 3.60756 3.69315 3.76946 3.76581 3.69339 3.49012 3.12623 2.6753 2.21764 1.82194 1.5088 1.24591 0.890053 0.379594 0.0601717 0.00163801 1.22298e-05 2.53782e-06 2.50006e-06 2.70674 2.66762 2.6537 2.63467 2.66429 2.69125 2.76771 2.8079 2.81915 2.80236 2.76248 2.72748 2.71212 2.71518 2.71644 2.70456 2.65543 2.5494 2.35408 2.05621 1.67545 1.2176 0.737355 0.296576 0.0452548 0.00104445 9.03494e-06 2.5313e-06 2.50006e-06 2.5e-06
				</DataArray>
				<DataArray Name="F1" type="Float32" format="ascii">
 1 1 1 1 1 1 1 1 1 1 1 1 1 1 1 1 1 1 1 1 1 1 1 1 1 1 1 1 1 1 1 1 1 1 1 1 1 1 1 1 1 1 1 1 1 1 1 1 1 1 1 1 1 1 1 1 1 1 1 1 1 1 1 1 1 1 1 1 1 1 1 1 1 1 1 1 1 1 1 1 1 1 1 1 1 1 1 1 1 1 1 1 1 1 1 1 1 1 1 1 1 1 1 1 1 1 1 1 1 1 1 1 1 1 1 1 1 1 1 1 1 1 1 1 1 1 1 1 1 1 1 1 1 1 1 1 1 1 1 1 1 1 1 1 1 1 1 1 1 1 1 1 1 1 1 1 1 1 1 1 1 1 1 1 1 1 1 1 1 1 1 1 1 1 1 1 1 1 1 1 1 1 1 1 1 1 1 1 1 1 1 1 1 1 1 1 1 1 1 1 1 1 1 1 1 1 1 1 1 1 1 1 1 1 1 1 1 1 1 1 1 1 1 1 1 1 1 1 1 1 1 1 1 1 1 1 1 1 1 1 1 1 1 1 1 1 1 1 1 1 1 1 1 1 1 1 1 1 1 1 1 1 1 1 1 1 1 1 1 1 1 1 1 1 1 1 1 1 1 1 1 1 1 1 1 1 1 1 1 1 1 1 1 1 1 1 1 1 1 1 1 1 1 1 1 1 1 1 1 1 1 1 1 1 1 1 1 1 1 1 1 1 1 1 1 1 1 1 1 1 1 1 1 1 1 1 1 1 1 1 1 1 1 1 1 1 1 1 1 1 1 1 1 1 1 1 1 1 1 1 1 1 1 1 1 1 1 1 1 1 1 1 1 1 1 1 1 1 1 1 1 1 1 1 1 1 1 1 1 1 1 1 1 1 1 1 1 1 1 1 1 1 1 1 1 1 1 1 1 1 1 1 1 1 1 1 1 1 1 1 1 1 1 1 1 1 1 1 1 1 1 1 1 1 1 1 1 1 1 1 1 1 1 1 1 1 1 1 1 1 1 1 1 1 1 1 1 1 1 1 1 1 1 1 1 1 1 1 1 1 1 1 1 1 1 1 1 1 1 1 1 1 1 1 1 1 1 1 1 1 1 1 1 1 1 1 1 1 1 1 1 1 1 1 1 1 1 1 1 1 1 1 1 1 1 1 1 1 1 1 1 1 1 1 1 1 1 1 1 1 1 1 1 1 1 1 1 1 1 1 1 1 1 1 1 1 1 1 1 1 1 1 1 1 1 1 1 1 1 1 1 1 1 1 1 1 1 1 1 1 1 1 1 1 1 1 1 1 1 1 1 1 1 1 1 1 1 1 1 1 1 1 1 1 1 1 1 1 1 1 1 1 1 1 1 1 1 1 1 1 1 1 1 1 1 1 1 1 1 1 1 1 1 1 1 1 1 1 1 1 1 1 1 1 1 1 1 1 1 1 1 1 1 1 1 1 1 1 1 1 1 1 1 1 1 1 1 1 1 1 1 1 1 1 1 1 1 1 1 1 1 1 1 1 1 1 1 1 1 1 1 1 1 1 1 1 1 1 1 1 1 1 1 1 1 1 1 1 1 1 1 1 1 1 1 1 1 1 1 1 1 1 1 1 1 1 1 1 1 1 1 1 1 1 1 1 1 1 1 1 1 1 1 1 1 1 1 1 1 1 1 1 1 1 1 1 1 1 1 1 1 1 1 1 1 1 1 1 1 1 1 1 1 1 1 1 1 1 1 1 1 1 1 1 1 1 1 1 1 1 1 1 1 1 1 1 1 1 1 1 1 1 1 1 1 1 1 1 1 1 1 1 1 1 1 1 1 1 1 1 1 1 1 1 1 1 1 1 1 1 1 1 1 1 1 1 1 1 1 1 1 1 1 1 1 1 1 1 1 1 1 1 1 1 1 1 1 1 1 1 1 1 1 1 1 1 1 1 1 1 1 1 1 1 1 1 1 1 1 1 1 1 1 1 1 1 1 1 1 1 1 1 1 1 1 1 1 1 1 1 1 1 1 1 1 1 1 1 1 1
				</DataArray>
				<DataArray Name="F2" type="Float32" format="ascii">
 0 0 0 0 0 0 0 0 0 0 0 0 0 0 0 0 0 0 0 0 0 0 0 0 0 0 0 0 0 0 0 0 0 0 0 0 0 0 0 0 0 0 0 0 0 0 0 0 0 0 0 0 0 0 0 0 0 0 0 0 0 0 0 0 0 0 0 0 0 0 0 0 0 0 0 0 0 0 0 0 0 0 0 0 0 0 0 0 0 0 0 0 0 0 0 0 0 0 0 0 0 0 0 0 0 0 0 0 0 0 0 0 0 0 0 0 0 0 0 0 0 0 0 0 0 0 0 0 0 0 0 0 0 0 0 0 0 0 0 0 0 0 0 0 0 0 0 0 0 0 0 0 0 0 0 0 0 0 0 0 0 0 0 0 0 0 0 0 0 0 0 0 0 0 0 0 0 0 0 0 0 0 0 0 0 0 0 0 0 0 0 0 0 0 0 0 0 0 0 0 0 0 0 0 0 0 0 0 0 0 0 0 0 0 0 0 0 0 0 0 0 0 0 0 0 0 0 0 0 0 0 0 0 0 0 0 0 0 0 0 0 0 0 0 0 0 0 0 0 0 0 0 0 0 0 0 0 0 0 0 0 0 0 0 0 0 0 0 0 0 0 0 0 0 0 0 0 0 0 0 0 0 0 0 0 0 0 0 0 0 0 0 0 0 0 0 0 0 0 0 0 0 0 0 0 0 0 0 0 0 0 0 0 0 0 0 0 0 0 0 0 0 0 0 0 0 0 0 0 0 0 0 0 0 0 0 0 0 0 0 0 0 0 0 0 0 0 0 0 0 0 0 0 0 0 0 0 0 0 0 0 0 0 0 0 0 0 0 0 0 0 0 0 0 0 0 0 0 0 0 0 0 0 0 0 0 0 0 0 0 0 0 0 0 0 0 0 0 0 0 0 0 0 0 0 0 0 0 0 0 0 0 0 0 0 0 0 0 0 0 0 0 0 0 0 0 0 0 0 0 0 0 0 0 0 0 0 0 0 0 0 0 0 0 0 0 0 0 0 0 0 0 0 0 0 0 0 0 0 0 0 0 0 0 0 0 0 0 0 0 0 0 0 0 0 0 0 0 0 0 0 0 0 0 0 0 0 0 0 0 0 0 0 0 0 0 0 0 0 0 0 0 0 0 0 0 0 0 0 0 0 0 0 0 0 0 0 0 0 0 0 0 0 0 0 0 0 0 0 0 0 0 0 0 0 0 0 0 0 0 0 0 0 0 0 0 0 0 0 0 0 0 0 0 0 0 0 0 0 0 0 0 0 0 0 0 0 0 0 0 0 0 0 0 0 0 0 0 0 0 0 0 0 0 0 0 0 0 0 0 0 0 0 0 0 0 0 0 0 0 0 0 0 0 0 0 0 0 0 0 0 0 0 0 0 0 0 0 0 0 0 0 0 0 0 0 0 0 0 0 0 0 0 0 0 0 0 0 0 0 0 0 0 0 0 0 0 0 0 0 0 0 0 0 0 0 0 0 0 0 0 0 0 0 0 0 0 0 0 0 0 0 0 0 0 0 0 0 0 0 0 0 0 0 0 0 0 0 0 0 0 0 0 0 0 0 0 0 0 0 0 0 0 0 0 0 0 0 0 0 0 0 0 0 0 0 0 0 0 0 0 0 0 0 0 0 0 0 0 0 0 0 0 0 0 0 0 0 0 0 0 0 0 0 0 0 0 0 0 0 0 0 0 0 0 0 0 0 0 0 0 0 0 0 0 0 0 0 0 0 0 0 0 0 0 0 0 0 0 0 0 0 0 0 0 0 0 0 0 0 0 0 0 0 0 0 0 0 0 0 0 0 0 0 0 0 0 0 0 0 0 0 0 0 0 0 0 0 0 0 0 0 0 0 0 0 0 0 0 0 0 0 0 0 0 0 0 0 0 0 0 0 0 0 0 0 0 0 0 0 0 0 0 0 0 0 0 0 0 0 0 0 0 0 0 0 0 0 0 0 0 0 0 0 0 0 0 0 0 0 0 0 0 0 0 0 0 0 0 0 0 0 0 0 0 0 0 0 0 0
				</DataArray>
				<DataArray Name="F3" type="Float32" format="ascii">