<?xml version="1.0"?>
<VTKFile type="PolyData">
	<PolyData>
		<Piece NumberOfPoints="961" NumberOfPolys="900">
			<Points>
				<DataArray type="Float32" NumberOfComponents="3" format="ascii">
 0 0 0 0.04 0 0 0.08 0 0 0.12 0 0 0.16 0 0 0.2 0 0 0.24 0 0 0.28 0 0 0.32 0 0 0.36 0 0 0.4 0 0 0.44 0 0 0.48 0 0 0.52 0 0 0.56 0 0 0.6 0 0 0.64 0 0 0.68 0 0 0.72 0 0 0.76 0 0 0.8 0 0 0.84 0 0 0.88 0 0 0.92 0 0 0.96 0 0 1 0 0 1.04 0 0 1.08 0 0 1.12 0 0 1.16 0 0 1.2 0 0 0 0.04 0 0.04 0.04 0 0.08 0.04 0 0.12 0.04 0 0.16 0.04 0 0.2 0.04 0 0.24 0.04 0 0.28 0.04 0 0.32 0.04 0 0.36 0.04 0 0.4 0.04 0 0.44 0.04 0 0.48 0.04 0 0.52 0.04 0 0.56 0.04 0 0.6 0.04 0 0.64 0.04 0 0.68 0.04 0 0.72 0.04 0 0.76 0.04 0 0.8 0.04 0 0.84 0.04 0 0.88 0.04 0 0.92 0.04 0 0.96 0.04 0 1 0.04 0 1.04 0.04 0 1.08 0.04 0 1.12 0.04 0 1.16 0.04 0 1.2 0.04 0 0 0.08 0 0.04 0.08 0 0.08 0.08 0 0.12 0.08 0 0.16 0.08 0 0.2 0.08 0 0.24 0.08 0 0.28 0.08 0 0.32 0.08 0 0.36 0.08 0 0.4 0.08 0 0.44 0.08 0 0.48 0.08 0 0.52 0.08 0 0.56 0.08 0 0.6 0.08 0 0.64 0.08 0 0.68 0.08 0 0.72 0.08 0 0.76 0.08 0 0.8 0.08 0 0.84 0.08 0 0.88 0.08 0 0.92 0.08 0 0.96 0.08 0 1 0.08 0 1.04 0.08 0 1.08 0.08 0 1.12 0.08 0 1.16 0.08 0 1.2 0.08 0 0 0.12 0 0.04 0.12 0 0.08 0.12 0 0.12 0.12 0 0.16 0.12 0 0.2 0.12 0 0.24 0.12 0 0.28 0.12 0 0.32 0.12 0 0.36 0.12 0 0.4 0.12 0 0.44 0.12 0 0.48 0.12 0 0.52 0.12 0 0.56 0.12 0 0.6 0.12 0 0.64 0.12 0 0.68 0.12 0 0.72 0.12 0 0.76 0.12 0 0.8 0.12 0 0.84 0.12 0 0.88 0.12 0 0.92 0.12 0 0.96 0.12 0 1 0.12 0 1.04 0.12 0 1.08 0.12 0 1.12 0.12 0 1.16 0.12 0 1.2 0.12 0 0 0.16 0 0.04 0.16 0 0.08 0.16 0 0.12 0.16 0 0.16 0.16 0 0.2 0.16 0 0.24 0.16 0 0.28 0.16 0 0.32 0.16 0 0.36 0.16 0 0.4 0.16 0 0.44 0.16 0 0.48 0.16 0 0.52 0.16 0 0.56 0.16 0 0.6 0.16 0 0.64 0.16 0 0.68 0.16 0 0.72 0.16 0 0.76 0.16 0 0.8 0.16 0 0.84 0.16 0 0.88 0.16 0 0.92 0.16 0 0.96 0.16 0 1 0.16 0 1.04 0.16 0 1.08 0.16 0 1.12 0.16 0 1.16 0.16 0 1.2 0.16 0 0 0.2 0 0.04 0.2 0 0.08 0.2 0 0.12 0.2 0 0.16 0.2 0 0.2 0.2 0 0.24 0.2 0 0.28 0.2 0 0.32 0.2 0 0.36 0.2 0 0.4 0.2 0 0.44 0.2 0 0.48 0.2 0 0.52 0.2 0 0.56 0.2 0 0.6 0.2 0 0.64 0.2 0 0.68 0.2 0 0.72 0.2 0 0.76 0.2 0 0.8 0.2 0 0.84 0.2 0 0.88 0.2 0 0.92 0.2 0 0.96 0.2 0 1 0.2 0 1.04 0.2 0 1.08 0.2 0 1.12 0.2 0 1.16 0.2 0 1.2 0.2 0 0 0.24 0 0.04 0.24 0 0.08 0.24 0 0.12 0.24 0 0.16 0.24 0 0.2 0.24 0 0.24 0.24 0 0.28 0.24 0 0.32 0.24 0 0.36 0.24 0 0.4 0.24 0 0.44 0.24 0 0.48 0.24 0 0.52 0.24 0 0.56 0.24 0 0.6 0.24 0 0.64 0.24 0 0.68 0.24 0 0.72 0.24 0 0.76 0.24 0 0.8 0.24 0 0.84 0.24 0 0.88 0.24 0 0.92 0.24 0 0.96 0.24 0 1 0.24 0 1.04 0.24 0 1.08 0.24 0 1.12 0.24 0 1.16 0.24 0 1.2 0.24 0 0 0.28 0 0.04 0.28 0 0.08 0.28 0 0.12 0.28 0 0.16 0.28 0 0.2 0.28 0 0.24 0.28 0 0.28 0.28 0 0.32 0.28 0 0.36 0.28 0 0.4 0.28 0 0.44 0.28 0 0.48 0.28 0 0.52 0.28 0 0.56 0.28 0 0.6 0.28 0 0.64 0.28 0 0.68 0.28 0 0.72 0.28 0 0.76 0.28 0 0.8 0.28 0 0.84 0.28 0 0.88 0.28 0 0.92 0.28 0 0.96 0.28 0 1 0.28 0 1.04 0.28 0 1.08 0.28 0 1.12 0.28 0 1.16 0.28 0 1.2 0.28 0 0 0.32 0 0.04 0.32 0 0.08 0.32 0 0.12 0.32 0 0.16 0.32 0 0.2 0.32 0 0.24 0.32 0 0.28 0.32 0 0.32 0.32 0 0.36 0.32 0 0.4 0.32 0 0.44 0.32 0 0.48 0.32 0 0.52 0.32 0 0.56 0.32 0 0.6 0.32 0 0.64 0.32 0 0.68 0.32 0 0.72 0.32 0 0.76 0.32 0 0.8 0.32 0 0.84 0.32 0 0.88 0.32 0 0.92 0.32 0 0.96 0.32 0 1 0.32 0 1.04 0.32 0 1.08 0.32 0 1.12 0.32 0 1.16 0.32 0 1.2 0.32 0 0 0.36 0 0.04 0.36 0 0.08 0.36 0 0.12 0.36 0 0.16 0.36 0 0.2 0.36 0 0.24 0.36 0 0.28 0.36 0 0.32 0.36 0 0.36 0.36 0 0.4 0.36 0 0.44 0.36 0 0.48 0.36 0 0.52 0.36 0 0.56 0.36 0 0.6 0.36 0 0.64 0.36 0 0.68 0.36 0 0.72 0.36 0 0.76 0.36 0 0.8 0.36 0 0.84 0.36 0 0.88 0.36 0 0.92 0.36 0 0.96 0.36 0 1 0.36 0 1.04 0.36 0 1.08 0.36 0 1.12 0.36 0 1.16 0.36 0 1.2 0.36 0 0 0.4 0 0.04 0.4 0 0.08 0.4 0 0.12 0.4 0 0.16 0.4 0 0.2 0.4 0 0.24 0.4 0 0.28 0.4 0 0.32 0.4 0 0.36 0.4 0 0.4 0.4 0 0.44 0.4 0 0.48 0.4 0 0.52 0.4 0 0.56 0.4 0 0.6 0.4 0 0.64 0.4 0 0.68 0.4 0 0.72 0.4 0 0.76 0.4 0 0.8 0.4 0 0.84 0.4 0 0.88 0.4 0 0.92 0.4 0 0.96 0.4 0 1 0.4 0 1.04 0.4 0 1.08 0.4 0 1.12 0.4 0 1.16 0.4 0 1.2 0.4 0 0 0.44 0 0.04 0.44 0 0.08 0.44 0 0.12 0.44 0 0.16 0.44 0 0.2 0.44 0 0.24 0.44 0 0.28 0.44 0 0.32 0.44 0 0.36 0.44 0 0.4 0.44 0 0.44 0.44 0 0.48 0.44 0 0.52 0.44 0 0.56 0.44 0 0.6 0.44 0 0.64 0.44 0 0.68 0.44 0 0.72 0.44 0 0.76 0.44 0 0.8 0.44 0 0.84 0.44 0 0.88 0.44 0 0.92 0.44 0 0.96 0.44 0 1 0.44 0 1.04 0.44 0 1.08 0.44 0 1.12 0.44 0 1.16 0.44 0 1.2 0.44 0 0 0.48 0 0.04 0.48 0 0.08 0.48 0 0.12 0.48 0 0.16 0.48 0 0.2 0.48 0 0.24 0.48 0 0.28 0.48 0 0.32 0.48 0 0.36 0.48 0 0.4 0.48 0 0.44 0.48 0 0.48 0.48 0 0.52 0.48 0 0.56 0.48 0 0.6 0.48 0 0.64 0.48 0 0.68 0.48 0 0.72 0.48 0 0.76 0.48 0 0.8 0.48 0 0.84 0.48 0 0.88 0.48 0 0.92 0.48 0 0.96 0.48 0 1 0.48 0 1.04 0.48 0 1.08 0.48 0 1.12 0.48 0 1.16 0.48 0 1.2 0.48 0 0 0.52 0 0.04 0.52 0 0.08 0.52 0 0.12 0.52 0 0.16 0.52 0 0.2 0.52 0 0.24 0.52 0 0.28 0.52 0 0.32 0.52 0 0.36 0.52 0 0.4 0.52 0 0.44 0.52 0 0.48 0.52 0 0.52 0.52 0 0.56 0.52 0 0.6 0.52 0 0.64 0.52 0 0.68 0.52 0 0.72 0.52 0 0.76 0.52 0 0.8 0.52 0 0.84 0.52 0 0.88 0.52 0 0.92 0.52 0 0.96 0.52 0 1 0.52 0 1.04 0.52 0 1.08 0.52 0 1.12 0.52 0 1.16 0.52 0 1.2 0.52 0 0 0.56 0 0.04 0.56 0 0.08 0.56 0 0.12 0.56 0 0.16 0.56 0 0.2 0.56 0 0.24 0.56 0 0.28 0.56 0 0.32 0.56 0 0.36 0.56 0 0.4 0.56 0 0.44 0.56 0 0.48 0.56 0 0.52 0.56 0 0.56 0.56 0 0.6 0.56 0 0.64 0.56 0 0.68 0.56 0 0.72 0.56 0 0.76 0.56 0 0.8 0.56 0 0.84 0.56 0 0.88 0.56 0 0.92 0.56 0 0.96 0.56 0 1 0.56 0 1.04 0.56 0 1.08 0.56 0 1.12 0.56 0 1.16 0.56 0 1.2 0.56 0 0 0.6 0 0.04 0.6 0 0.08 0.6 0 0.12 0.6 0 0.16 0.6 0 0.2 0.6 0 0.24 0.6 0 0.28 0.6 0 0.32 0.6 0 0.36 0.6 0 0.4 0.6 0 0.44 0.6 0 0.48 0.6 0 0.52 0.6 0 0.56 0.6 0 0.6 0.6 0 0.64 0.6 0 0.68 0.6 0 0.72 0.6 0 0.76 0.6 0 0.8 0.6 0 0.84 0.6 0 0.88 0.6 0 0.92 0.6 0 0.96 0.6 0 1 0.6 0 1.04 0.6 0 1.08 0.6 0 1.12 0.6 0 1.16 0.6 0 1.2 0.6 0 0 0.64 0 0.04 0.64 0 0.08 0.64 0 0.12 0.64 0 0.16 0.64 0 0.2 0.64 0 0.24 0.64 0 0.28 0.64 0 0.32 0.64 0 0.36 0.64 0 0.4 0.64 0 0.44 0.64 0 0.48 0.64 0 0.52 0.64 0 0.56 0.64 0 0.6 0.64 0 0.64 0.64 0 0.68 0.64 0 0.72 0.64 0 0.76 0.64 0 0.8 0.64 0 0.84 0.64 0 0.88 0.64 0 0.92 0.64 0 0.96 0.64 0 1 0.64 0 1.04 0.64 0 1.08 0.64 0 1.12 0.64 0 1.16 0.64 0 1.2 0.64 0 0 0.68 0 0.04 0.68 0 0.08 0.68 0 0.12 0.68 0 0.16 0.68 0 0.2 0.68 0 0.24 0.68 0 0.28 0.68 0 0.32 0.68 0 0.36 0.68 0 0.4 0.68 0 0.44 0.68 0 0.48 0.68 0 0.52 0.68 0 0.56 0.68 0 0.6 0.68 0 0.64 0.68 0 0.68 0.68 0 0.72 0.68 0 0.76 0.68 0 0.8 0.68 0 0.84 0.68 0 0.88 0.68 0 0.92 0.68 0 0.96 0.68 0 1 0.68 0 1.04 0.68 0 1.08 0.68 0 1.12 0.68 0 1.16 0.68 0 1.2 0.68 0 0 0.72 0 0.04 0.72 0 0.08 0.72 0 0.12 0.72 0 0.16 0.72 0 0.2 0.72 0 0.24 0.72 0 0.28 0.72 0 0.32 0.72 0 0.36 0.72 0 0.4 0.72 0 0.44 0.72 0 0.48 0.72 0 0.52 0.72 0 0.56 0.72 0 0.6 0.72 0 0.64 0.72 0 0.68 0.72 0 0.72 0.72 0 0.76 0.72 0 0.8 0.72 0 0.84 0.72 0 0.88 0.72 0 0.92 0.72 0 0.96 0.72 0 1 0.72 0 1.04 0.72 0 1.08 0.72 0 1.12 0.72 0 1.16 0.72 0 1.2 0.72 0 0 0.76 0 0.04 0.76 0 0.08 0.76 0 0.12 0.76 0 0.16 0.76 0 0.2 0.76 0 0.24 0.76 0 0.28 0.76 0 0.32 0.76 0 0.36 0.76 0 0.4 0.76 0 0.44 0.76 0 0.48 0.76 0 0.52 0.76 0 0.56 0.76 0 0.6 0.76 0 0.64 0.76 0 0.68 0.76 0 0.72 0.76 0 0.76 0.76 0 0.8 0.76 0 0.84 0.76 0 0.88 0.76 0 0.92 0.76 0 0.96 0.76 0 1 0.76 0 1.04 0.76 0 1.08 0.76 0 1.12 0.76 0 1.16 0.76 0 1.2 0.76 0 0 0.8 0 0.04 0.8 0 0.08 0.8 0 0.12 0.8 0 0.16 0.8 0 0.2 0.8 0 0.24 0.8 0 0.28 0.8 0 0.32 0.8 0 0.36 0.8 0 0.4 0.8 0 0.44 0.8 0 0.48 0.8 0 0.52 0.8 0 0.56 0.8 0 0.6 0.8 0 0.64 0.8 0 0.68 0.8 0 0.72 0.8 0 0.76 0.8 0 0.8 0.8 0 0.84 0.8 0 0.88 0.8 0 0.92 0.8 0 0.96 0.8 0 1 0.8 0 1.04 0.8 0 1.08 0.8 0 1.12 0.8 0 1.16 0.8 0 1.2 0.8 0 0 0.84 0 0.04 0.84 0 0.08 0.84 0 0.12 0.84 0 0.16 0.84 0 0.2 0.84 0 0.24 0.84 0 0.28 0.84 0 0.32 0.84 0 0.36 0.84 0 0.4 0.84 0 0.44 0.84 0 0.48 0.84 0 0.52 0.84 0 0.56 0.84 0 0.6 0.84 0 0.64 0.84 0 0.68 0.84 0 0.72 0.84 0 0.76 0.84 0 0.8 0.84 0 0.84 0.84 0 0.88 0.84 0 0.92 0.84 0 0.96 0.84 0 1 0.84 0 1.04 0.84 0 1.08 0.84 0 1.12 0.84 0 1.16 0.84 0 1.2 0.84 0 0 0.88 0 0.04 0.88 0 0.08 0.88 0 0.12 0.88 0 0.16 0.88 0 0.2 0.88 0 0.24 0.88 0 0.28 0.88 0 0.32 0.88 0 0.36 0.88 0 0.4 0.88 0 0.44 0.88 0 0.48 0.88 0 0.52 0.88 0 0.56 0.88 0 0.6 0.88 0 0.64 0.88 0 0.68 0.88 0 0.72 0.88 0 0.76 0.88 0 0.8 0.88 0 0.84 0.88 0 0.88 0.88 0 0.92 0.88 0 0.96 0.88 0 1 0.88 0 1.04 0.88 0 1.08 0.88 0 1.12 0.88 0 1.16 0.88 0 1.2 0.88 0 0 0.92 0 0.04 0.92 0 0.08 0.92 0 0.12 0.92 0 0.16 0.92 0 0.2 0.92 0 0.24 0.92 0 0.28 0.92 0 0.32 0.92 0 0.36 0.92 0 0.4 0.92 0 0.44 0.92 0 0.48 0.92 0 0.52 0.92 0 0.56 0.92 0 0.6 0.92 0 0.64 0.92 0 0.68 0.92 0 0.72 0.92 0 0.76 0.92 0 0.8 0.92 0 0.84 0.92 0 0.88 0.92 0 0.92 0.92 0 0.96 0.92 0 1 0.92 0 1.04 0.92 0 1.08 0.92 0 1.12 0.92 0 1.16 0.92 0 1.2 0.92 0 0 0.96 0 0.04 0.96 0 0.08 0.96 0 0.12 0.96 0 0.16 0.96 0 0.2 0.96 0 0.24 0.96 0 0.28 0.96 0 0.32 0.96 0 0.36 0.96 0 0.4 0.96 0 0.44 0.96 0 0.48 0.96 0 0.52 0.96 0 0.56 0.96 0 0.6 0.96 0 0.64 0.96 0 0.68 0.96 0 0.72 0.96 0 0.76 0.96 0 0.8 0.96 0 0.84 0.96 0 0.88 0.96 0 0.92 0.96 0 0.96 0.96 0 1 0.96 0 1.04 0.96 0 1.08 0.96 0 1.12 0.96 0 1.16 0.96 0 1.2 0.96 0 0 1 0 0.04 1 0 0.08 1 0 0.12 1 0 0.16 1 0 0.2 1 0 0.24 1 0 0.28 1 0 0.32 1 0 0.36 1 0 0.4 1 0 0.44 1 0 0.48 1 0 0.52 1 0 0.56 1 0 0.6 1 0 0.64 1 0 0.68 1 0 0.72 1 0 0.76 1 0 0.8 1 0 0.84 1 0 0.88 1 0 0.92 1 0 0.96 1 0 1 1 0 1.04 1 0 1.08 1 0 1.12 1 0 1.16 1 0 1.2 1 0 0 1.04 0 0.04 1.04 0 0.08 1.04 0 0.12 1.04 0 0.16 1.04 0 0.2 1.04 0 0.24 1.04 0 0.28 1.04 0 0.32 1.04 0 0.36 1.04 0 0.4 1.04 0 0.44 1.04 0 0.48 1.04 0 0.52 1.04 0 0.56 1.04 0 0.6 1.04 0 0.64 1.04 0 0.68 1.04 0 0.72 1.04 0 0.76 1.04 0 0.8 1.04 0 0.84 1.04 0 0.88 1.04 0 0.92 1.04 0 0.96 1.04 0 1 1.04 0 1.04 1.04 0 1.08 1.04 0 1.12 1.04 0 1.16 1.04 0 1.2 1.04 0 0 1.08 0 0.04 1.08 0 0.08 1.08 0 0.12 1.08 0 0.16 1.08 0 0.2 1.08 0 0.24 1.08 0 0.28 1.08 0 0.32 1.08 0 0.36 1.08 0 0.4 1.08 0 0.44 1.08 0 0.48 1.08 0 0.52 1.08 0 0.56 1.08 0 0.6 1.08 0 0.64 1.08 0 0.68 1.08 0 0.72 1.08 0 0.76 1.08 0 0.8 1.08 0 0.84 1.08 0 0.88 1.08 0 0.92 1.08 0 0.96 1.08 0 1 1.08 0 1.04 1.08 0 1.08 1.08 0 1.12 1.08 0 1.16 1.08 0 1.2 1.08 0 0 1.12 0 
[...]
			<CellData Scalars="Density">
				<DataArray Name="Density" type="Float32" format="ascii">
 0.00564687 0.00576159 0.00604563 0.00659214 0.00749923 0.00886082 0.010773 0.013336 0.0166631 0.0208903 0.0262023 0.0328668 0.0412898 0.0520889 0.0662107 0.0851024 0.110979 0.147216 0.198952 0.273989 0.384079 0.547976 0.800931 1.20765 1.91531 2.89819 3.20311 3.24578 1.63222 1.05461 0.00576199 0.00586321 0.00611861 0.0066314 0.0075078 0.00884578 0.0107532 0.0133465 0.016763 0.0211641 0.0267558 0.0338232 0.0427735 0.0542244 0.0691223 0.0889439 0.115961 0.153679 0.207457 0.285197 0.398594 0.565795 0.819779 1.21244 1.9006 2.87341 3.14679 3.19069 1.59675 1.05535 0.00604691 0.00611945 0.00630761 0.0067276 0.00748176 0.00865244 0.0103484 0.0126951 0.0158284 0.0199059 0.0251262 0.031752 0.0401592 0.0509 0.0648163 0.0832095 0.108174 0.142996 0.193009 0.266459 0.376226 0.542571 0.803611 1.21988 1.94934 2.94157 3.17662 3.17069 1.51725 1.05195 0.00659483 0.00663338 0.00672877 0.00704028 0.00768407 0.00875948 0.0103705 0.0126419 0.0157299 0.0198212 0.0251363 0.0319587 0.040669 0.0517867 0.0660615 0.0846276 0.109362 0.143213 0.190615 0.258815 0.359906 0.514822 0.765108 1.17693 1.9232 2.9177 3.12456 3.05924 1.41602 1.04468 0.00750372 0.0075107 0.00748372 0.00768496 0.00825622 0.00929034 0.0109044 0.0132517 0.01653 0.0209799 0.0268941 0.0346118 0.0445413 0.0571736 0.0731761 0.0935285 0.119789 0.154582 0.202501 0.271129 0.372946 0.528556 0.779225 1.18715 1.92665 2.86928 3.06029 2.90972 1.32674 1.03725 0.00886778 0.00885011 0.00865491 0.00876058 0.00929012 0.0103538 0.0120826 0.0146559 0.0183329 0.0234254 0.0303127 0.0394083 0.051151 0.0660419 0.0846982 0.108009 0.137416 0.17531 0.225776 0.295971 0.397838 0.551182 0.798169 1.2059 1.94906 2.76874 2.95375 2.67728 1.25047 1.03121 0.0107834 0.0107599 0.0103521 0.0103723 0.010904 0.0120815 0.0140535 0.0170229 0.021311 0.027315 0.0355019 0.0463717 0.0604464 0.0782468 0.100437 0.127866 0.161973 0.205105 0.261365 0.337862 0.447039 0.609864 0.869359 1.30854 2.0989 2.78404 2.91997 2.34994 1.15728 1.01997 0.0133506 0.0133562 0.0127015 0.0126457 0.0132525 0.0146544 0.0170202 0.0205782 0.0257163 0.0329131 0.0427492 0.055817 0.0727312 0.0941234 0.120729 0.15357 0.194248 0.245357 0.311364 0.399689 0.523624 0.708556 0.998241 1.52527 2.37348 2.88351 2.94046 1.93842 1.10049 1.01203 0.0166822 0.0167768 0.0158389 0.015737 0.0165335 0.0183321 0.021307 0.0257079 0.0320169 0.040809 0.052771 0.0686442 0.089134 0.115029 0.147228 0.187011 0.236346 0.298669 0.379378 0.488437 0.642459 0.874584 1.25189 1.97762 2.83606 3.13579 2.86739 1.47746 1.06348 1.00619 0.0209144 0.0211827 0.019922 0.0198334 0.0209874 0.0234263 0.027309 0.0328996 0.0407845 0.0516823 0.0664054 0.0858094 0.110797 0.142236 0.181378 0.22982 0.290341 0.367447 0.468453 0.606471 0.805534 1.10729 1.64891 2.5774 3.18209 3.25392 2.295 1.18981 1.02858 1.00187 0.0262324 0.0267806 0.0251489 0.0251562 0.0269063 0.0303188 0.0354952 0.0427232 0.0527258 0.0663452 0.0845997 0.108437 0.138923 0.177161 0.224662 0.283637 0.35796 0.453786 0.581821 0.761855 1.02644 1.46204 2.26864 3.14698 3.42518 3.04706 1.54417 1.08033 1.00982 1.00028 0.0329043 0.0338557 0.0317835 0.0319873 0.0346323 0.0394159 0.0463719 0.0557759 0.0685489 0.0856847 0.108321 0.137645 0.17475 0.221107 0.278582 0.350256 0.441265 0.560429 0.723042 0.956748 1.31198 1.96281 2.92365 3.40789 3.38767 2.20469 1.18369 1.03067 1.00222 1.00001 0.041337 0.0428158 0.0402015 0.0407102 0.0445719 0.051172 0.0604477 0.0726991 0.0890054 0.110575 0.138692 0.17461 0.219764 0.275697 0.34513 0.432114 0.543748 0.692855 0.901795 1.20898 1.73452 2.64628 3.40009 3.56223 2.90638 1.42523 1.06871 1.00841 1.00023 1 0.0521489 0.0542798 0.0509551 0.0518447 0.0572188 0.0660844 0.0782805 0.0941006 0.114914 0.141955 0.176842 0.220812 0.275585 0.343245 0.427287 0.533335 0.6717 0.861477 1.13253 1.56537 2.3668 3.26137 3.56558 3.30908 1.85216 1.13397 1.0231 1.00143 1.00001 1 0.0662879 0.069196 0.0648875 0.0661366 0.0732383 0.0847589 0.100509 0.120758 0.147154 0.181121 0.224253 0.278269 0.344905 0.427251 0.530078 0.661629 0.8382 1.08437 1.46262 2.13904 3.07749 3.58875 3.5404 2.40258 1.25571 1.04742 1.00479 1.00008 1 1 0.0852031 0.089043 0.083304 0.0847228 0.0936107 0.108094 0.127967 0.153679 0.187001 0.22967 0.283368 0.349942 0.431977 0.533311 0.661786 0.830471 1.06103 1.40274 1.98664 2.93058 3.55012 3.6235 2.84061 1.44508 1.07991 1.01179 1.00048 1 1 1 0.11111 0.116095 0.108298 0.109479 0.119886 0.137527 0.1621 0.194377 0.236489 0.290286 0.35779 0.441165 0.543744 0.671732 0.838063 1.06075 1.37985 1.92515 2.81298 3.47988 3.68116 3.16072 1.68371 1.12034 1.02317 1.00156 1.00001 1 1 1 0.147386 0.153859 0.143162 0.143361 0.154692 0.175401 0.205224 0.245528 0.298761 0.367432 0.453778 0.560353 0.693094 0.861854 1.0846 1.40295 1.92512 2.75326 3.50097 3.71057 3.33524 1.90624 1.17229 1.03669 1.00351 1.00005 1 1 1 1 0.199172 0.207697 0.193238 0.190808 0.202665 0.225916 0.26143 0.311426 0.37963 0.468506 0.581748 0.723315 0.902271 1.13298 1.46261 1.98696 2.81262 3.50061 3.6837 3.39577 2.06585 1.22881 1.04955 1.00611 1.00017 1 1 1 1 1 0.274272 0.285512 0.266773 0.259063 0.271337 0.296102 0.337975 0.39973 0.488186 0.606212 0.761447 0.956458 1.20961 1.56688 2.14027 2.93212 3.48053 3.71134 3.39649 2.14158 1.25872 1.05859 1.00884 1.00037 1 1 1 1 1 1 0.384442 0.398999 0.376649 0.360246 0.373273 0.398017 0.447031 0.523585 0.642709 0.805138 1.02617 1.31221 1.7354 2.36768 3.07788 3.55075 3.68106 3.33511 2.06482 1.25864 1.06253 1.01054 1.00055 1 1 1 1 1 1 1 0.548436 0.56631 0.543131 0.515286 0.529034 0.551493 0.610093 0.708327 0.87448 1.10689 1.46119 1.96163 2.6469 3.26157 3.58887 3.62361 3.15951 1.90597 1.2286 1.05857 1.01053 1.00064 1 1 1 1 1 1 1 1 0.801541 0.820449 0.804371 0.76578 0.779947 0.798666 0.869686 0.998165 1.25196 1.64805 2.26751 2.92099 3.40046 3.56534 3.54024 2.84034 1.68288 1.17211 1.0495 1.00882 1.00055 1 1 1 1 1 1 1 1 1 1.2085 1.21335 1.22096 1.17797 1.18826 1.2068 1.30931 1.52533 1.97774 2.57632 3.14765 3.40692 3.56285 3.30903 2.40217 1.44472 1.12026 1.03665 1.00611 1.00036 1 1 1 1 1 1 1 1 1 1 1.91653 1.90191 1.9509 1.92477 1.92843 1.9505 2.10005 2.3737 2.83667 3.18066 3.42486 3.38713 2.90656 1.85159 1.25568 1.07985 1.02316 1.00351 1.00017 1 1 1 1 1 1 1 1 1 1 1 2.89938 2.87462 2.94301 2.91889 2.87082 2.76976 2.78461 2.88322 3.13601 3.2532 3.04706 2.20466 1.4253 1.13385 1.04741 1.01178 1.00155 1.00005 1 1 1 1 1 1 1 1 1 1 1 1 3.20325 3.1469 3.17701 3.12485 3.06099 2.95438 2.92042 2.94031 2.86708 2.29444 1.5443 1.18376 1.06873 1.02309 1.00479 1.00048 1.00001 1 1 1 1 1 1 1 1 1 1 1 1 1 3.24556 3.19035 3.17035 3.05853 2.90886 2.67627 2.34882 1.93742 1.47713 1.18966 1.08032 1.03067 1.00841 1.00143 1.00008 1 1 1 1 1 1 1 1 1 1 1 1 1 1 1 1.63069 1.59526 1.51592 1.41488 1.32585 1.24988 1.15705 1.10034 1.06343 1.02856 1.00982 1.00222 1.00023 1.00001 1 1 1 1 1 1 1 1 1 1 1 1 1 1 1 1 1.05448 1.05523 1.05183 1.04458 1.03716 1.03113 1.01993 1.012 1.00618 1.00187 1.00028 1.00001 1 1 1 1 1 1 1 1 1 1 1 1 1 1 1 1 1 1
				</DataArray>
				<DataArray Name="Energy" type="Float32" format="ascii">
 954.932 934.871 891.075 817.343 718.612 608.338 500.533 404.532 323.981 258.645 206.455 164.869 131.552 104.625 82.6868 64.7327 50.0631 38.1835 28.7192 21.3487 15.7526 11.6049 8.60028 6.4547 4.88258 3.51011 2.67767 1.40802 0.253492 0.00328976 934.804 917.482 879.122 811.152 716.538 608.245 500.462 403.338 321.298 254.668 201.637 159.741 126.576 100.134 78.8584 61.6135 47.5985 36.2665 27.232 20.1858 14.8438 10.914 8.0918 6.06936 4.64317 3.41629 2.60648 1.35859 0.233847 0.00303051 890.882 879.002 852.811 799.627 719.095 621.922 520.126 424.135 340.364 270.869 214.863 170.315 134.991 106.867 84.3103 66.0741 51.2619 39.237 29.5429 21.8836 16.0216 11.6946 8.58576 6.34532 4.72611 3.39948 2.5424 1.24994 0.189484 0.00221673 817.007 810.91 799.489 764.179 700.238 614.376 519.094 425.981 342.546 272.064 214.783 169.219 133.298 105.032 82.713 64.958 50.7121 39.2085 29.9534 22.5488 16.7065 12.1982 8.85267 6.44188 4.74032 3.37901 2.4702 1.15219 0.146019 0.00141207 718.181 716.26 718.904 700.161 651.819 579.373 493.75 406.48 326.046 257.117 200.841 156.335 121.807 95.2458 74.8035 58.944 46.4585 36.4621 28.344 21.7347 16.405 12.1904 8.96829 6.5573 4.79272 3.3914 2.40208 1.04806 0.10649 0.000844785 607.858 607.949 621.74 614.295 579.389 520 445.725 367.626 294.1 230.368 178.269 137.405 106.152 82.5478 64.7309 51.1636 40.6605 32.3482 25.6159 20.0755 15.4975 11.7624 8.81671 6.53894 4.765 3.40444 2.32819 0.934272 0.073981 0.000486841 500.045 500.15 519.941 518.997 493.766 445.766 383.368 316.644 253.102 197.686 152.325 116.873 89.9546 69.7999 54.729 43.3584 34.6348 27.7965 22.3066 17.8016 14.0531 10.9276 8.37819 6.33094 4.54209 3.30889 2.17898 0.766734 0.0426165 0.00019185 404.089 403.042 423.92 425.853 406.452 367.664 316.686 262.1 209.901 164.185 126.638 97.2312 74.8886 58.1699 45.6827 36.2806 29.085 23.4619 18.9684 15.2908 12.2279 9.66106 7.51332 5.78577 4.07337 3.03917 1.84414 0.481106 0.0144895 3.45837e-05 323.611 321.033 340.137 342.389 325.979 294.111 253.157 209.953 168.764 132.593 102.732 79.2241 61.2662 47.7651 37.6369 29.9811 24.0989 19.4905 15.8029 12.7916 10.2909 8.19368 6.43375 4.94076 3.49739 2.57663 1.25677 0.181637 0.00222615 4.5266e-06 258.347 254.441 270.653 271.891 257.029 230.357 197.729 164.265 132.652 104.883 81.8315 63.5505 49.4814 38.8171 30.7553 24.6121 19.853 16.0949 13.0651 10.5812 8.52283 6.7932 5.39272 3.94175 2.96354 1.96708 0.622297 0.0308958 0.000134523 2.55774e-06 206.218 201.45 214.668 214.615 200.743 178.243 152.347 126.717 102.832 81.8908 64.4399 50.496 39.6701 31.385 25.0569 20.1803 16.362 13.3116 10.8328 8.79743 7.09963 5.70454 4.47907 3.27948 2.48311 1.24555 0.193313 0.0027997 6.09174e-06 2.5011e-06 164.68 159.587 170.146 169.065 156.246 137.372 116.884 97.2986 79.3314 63.6483 50.5443 40.0161 31.7671 25.3904 20.4623 16.6162 13.5637 11.0946 9.06799 7.39166 5.99267 4.8574 3.6054 2.82405 1.84104 0.539749 0.0246317 0.000106406 2.55927e-06 2.50001e-06 131.4 126.449 134.849 133.165 121.722 106.11 89.9446 74.9305 61.352 49.5776 39.7359 31.7946 25.5286 20.6322 16.8034 13.7747 11.3342 9.33602 7.68321 6.28858 5.16648 4.03625 3.08887 2.31193 1.02878 0.126816 0.00141785 4.11518e-06 2.50079e-06 2.5e-06 104.504 100.03 106.749 104.923 95.1686 82.4993 69.7725 58.1802 47.8181 38.8904 31.4459 25.4237 20.6446 16.8751 13.8929 11.499 9.54518 7.9246 6.55819 5.43121 4.41176 3.32713 2.63721 1.52767 0.337494 0.00958648 3.18647e-05 2.51998e-06 2.50001e-06 2.5e-06 82.5895 78.7728 84.2139 82.6258 74.7392 64.6833 54.6931 45.6695 37.656 30.7977 25.0964 20.4875 16.8145 13.8942 11.5573 9.65524 8.08557 6.76305 5.63456 4.70671 3.59295 2.86886 1.95569 0.644125 0.0449949 0.000293963 2.76816e-06 2.50016e-06 2.5e-06 2.5e-06 64.6561 61.5436 65.9977 64.8896 58.894 51.1255 43.3242 36.259 29.9784 24.6279 20.2 16.6294 13.7802 11.499 9.65487 8.13978 6.85981 5.76977 4.8987 3.79534 3.03426 2.26973 0.976906 0.126794 0.0016646 5.24547e-06 2.50262e-06 2.5e-06 2.5e-06 2.5e-06 50.0044 47.5429 51.2021 50.6586 46.4204 40.6349 34.6119 29.0664 24.0923 19.8581 16.3683 13.5688 11.336 9.54343 8.08344 6.85832 5.82012 4.95154 3.95316 3.16429 2.47416 1.27327 0.239336 0.00582469 2.12803e-05 2.52187e-06 2.50001e-06 2.5e-06 2.5e-06 2.5e-06 38.1401 36.2239 39.1911 39.1679 36.4327 32.329 27.7819 23.4511 19.4843 16.0947 13.3145 11.0958 9.33594 7.92388 6.76211 5.7687 4.9521 4.0464 3.19675 2.59 1.49019 0.355506 0.0154069 7.93443e-05 2.60386e-06 2.50009e-06 2.5e-06 2.5e-06 2.5e-06 2.5e-06 28.6886 27.2009 29.5085 29.9235 28.3222 25.6035 22.2987 18.9621 15.8022 13.0676 10.8344 9.07026 7.68397 6.5573 5.63409 4.899 3.95155 3.19711 2.62916 1.60092 0.440605 0.0288384 0.000212199 2.84207e-06 2.50049e-06 2.5e-06 2.5e-06 2.5e-06 2.5e-06 2.5e-06 21.3284 20.1643 21.8593 22.5268 21.7177 20.0642 17.7978 15.2899 12.7903 10.582 8.79848 7.39169 6.28877 5.43144 4.70508 3.7956 3.16353 2.58933 1.60066 0.474799 0.0383028 0.000381432 3.30895e-06 2.50167e-06 2.5e-06 2.5e-06 2.5e-06 2.5e-06 2.5e-06 2.5e-06 15.7399 14.83 16.0056 16.6912 16.3935 15.4882 14.0491 12.2276 10.2933 8.52425 7.10044 5.99342 5.16547 4.41036 3.59212 3.0337 2.47378 1.48935 0.440329 0.0382604 0.000465136 3.74412e-06 2.50342e-06 2.5e-06 2.5e-06 2.5e-06 2.5e-06 2.5e-06 2.5e-06 2.5e-06 11.5974 10.9056 11.6848 12.1878 12.1824 11.7552 10.9255 9.6603 8.19501 6.79421 5.70452 4.856 4.03649 3.32664 2.86894 2.26916 1.27263 0.355115 0.0287844 0.000381309 3.74156e-06 2.50438e-06 2.50001e-06 2.5e-06 2.5e-06 2.5e-06 2.5e-06 2.5e-06 2.5e-06 2.5e-06 8.59614 8.08716 8.58014 8.84635 8.96313 8.81211 8.37671 7.51287 6.43549 5.39248 4.48032 3.60507 3.08878 2.63666 1.9552 0.976303 0.239037 0.0153767 0.000211532 3.30649e-06 2.50342e-06 2.50001e-06 2.5e-06 2.5e-06 2.5e-06 2.5e-06 2.5e-06 2.5e-06 2.5e-06 2.5e-06 6.45253 6.06691 6.3422 6.43832 6.55408 6.53658 6.33047 5.78585 4.94188 3.94286 3.28077 2.82422 2.31184 1.52725 0.643657 0.126637 0.00580652 7.90936e-05 2.84131e-06 2.50166e-06 2.5e-06 2.5e-06 2.5e-06 2.5e-06 2.5e-06 2.5e-06 2.5e-06 2.5e-06 2.5e-06 2.5e-06 4.88125 4.64183 4.72433 4.73811 4.79053 4.76323 4.54109 4.07355 3.49821 2.96435 2.48395 1.8413 1.02852 0.337379 0.04493 0.00166096 2.12569e-05 2.6035e-06 2.50049e-06 2.5e-06 2.5e-06 2.5e-06 2.5e-06 2.5e-06 2.5e-06 2.5e-06 2.5e-06 2.5e-06 2.5e-06 2.5e-06 3.50954 3.41567 3.39876 3.37809 3.39049 3.40366 3.30868 3.03927 2.57714 1.96747 1.24585 0.539858 0.126735 0.00957436 0.000293832 5.23843e-06 2.52181e-06 2.50009e-06 2.5e-06 2.5e-06 2.5e-06 2.5e-06 2.5e-06 2.5e-06 2.5e-06 2.5e-06 2.5e-06 2.5e-06 2.5e-06 2.5e-06 2.67705 2.60581 2.54163 2.46923 2.40108 2.32705 2.17808 1.84341 1.25659 0.622364 0.193353 0.0246505 0.00141808 3.17895e-05 2.76763e-06 2.50261e-06 2.50001e-06 2.5e-06 2.5e-06 2.5e-06 2.5e-06 2.5e-06 2.5e-06 2.5e-06 2.5e-06 2.5e-06 2.5e-06 2.5e-06 2.5e-06 2.5e-06 1.40697 1.35752 1.24887 1.15106 1.04689 0.933101 0.765771 0.480477 0.18149 0.0308925 0.00280134 0.000106364 4.11523e-06 2.51998e-06 2.50016e-06 2.5e-06 2.5e-06 2.5e-06 2.5e-06 2.5e-06 2.5e-06 2.5e-06 2.5e-06 2.5e-06 2.5e-06 2.5e-06 2.5e-06 2.5e-06 2.5e-06 2.5e-06 0.252829 0.233214 0.188934 0.145539 0.106102 0.0737163 0.0424797 0.0144498 0.00222249 0.000134339 6.09352e-06 2.55933e-06 2.50079e-06 2.50001e-06 2.5e-06 2.5e-06 2.5e-06 2.5e-06 2.5e-06 2.5e-06 2.5e-06 2.5e-06 2.5e-06 2.5e-06 2.5e-06 2.5e-06 2.5e-06 2.5e-06 2.5e-06 2.5e-06 0.00327196 0.00301391 0.00220434 0.00140383 0.000839632 0.000483925 0.000190825 3.4436e-05 4.52099e-06 2.55767e-06 2.5011e-06 2.50001e-06 2.5e-06 2.5e-06 2.5e-06 2.5e-06 2.5e-06 2.5e-06 2.5e-06 2.5e-06 2.5e-06 2.5e-06 2.5e-06 2.5e-06 2.5e-06 2.5e-06 2.5e-06 2.5e-06 2.5e-06 2.5e-06
				</DataArray>
				<DataArray Name="F1" type="Float32" format="ascii">
 1 1 1 1 1 1 1 1 1 1 1 1 1 1 1 1 1 1 1 1 1 1 1 1 1 1 1 1 1 1 1 1 1 1 1 1 1 1 1 1 1 1 1 1 1 1 1 1 1 1 1 1 1 1 1 1 1 1 1 1 1 1 1 1 1 1 1 1 1 1 1 1 1 1 1 1 1 1 1 1 1 1 1 1 1 1 1 1 1 1 1 1 1 1 1 1 1 1 1 1 1 1 1 1 1 1 1 1 1 1 1 1 1 1 1 1 1 1 1 1 1 1 1 1 1 1 1 1 1 1 1 1 1 1 1 1 1 1 1 1 1 1 1 1 1 1 1 1 1 1 1 1 1 1 1 1 1 1 1 1 1 1 1 1 1 1 1 1 1 1 1 1 1 1 1 1 1 1 1 1 1 1 1 1 1 1 1 1 1 1 1 1 1 1 1 1 1 1 1 1 1 1 1 1 1 1 1 1 1 1 1 1 1 1 1 1 1 1 1 1 1 1 1 1 1 1 1 1 1 1 1 1 1 1 1 1 1 1 1 1 1 1 1 1 1 1 1 1 1 1 1 1 1 1 1 1 1 1 1 1 1 1 1 1 1 1 1 1 1 1 1 1 1 1 1 1 1 1 1 1 1 1 1 1 1 1 1 1 1 1 1 1 1 1 1 1 1 1 1 1 1 1 1 1 1 1 1 1 1 1 1 1 1 1 1 1 1 1 1 1 1 1 1 1 1 1 1 1 1 1 1 1 1 1 1 1 1 1 1 1 1 1 1 1 1 1 1 1 1 1 1 1 1 1 1 1 1 1 1 1 1 1 1 1 1 1 1 1 1 1 1 1 1 1 1 1 1 1 1 1 1 1 1 1 1 1 1 1 1 1 1 1 1 1 1 1 1 1 1 1 1 1 1 1 1 1 1 1 1 1 1 1 1 1 1 1 1 1 1 1 1 1 1 1 1 1 1 1 1 1 1 1 1 1 1 1 1 1 1 1 1 1 1 1 1 1 1 1 1 1 1 1 1 1 1 1 1 1 1 1 1 1 1 1 1 1 1 1 1 1 1 1 1 1 1 1 1 1 1 1 1 1 1 1 1 1 1 1 1 1 1 1 1 1 1 1 1 1 1 1 1 1 1 1 1 1 1 1 1 1 1 1 1 1 1 1 1 1 1 1 1 1 1 1 1 1 1 1 1 1 1 1 1 1 1 1 1 1 1 1 1 1 1 1 1 1 1 1 1 1 1 1 1 1 1 1 1 1 1 1 1 1 1 1 1 1 1 1 1 1 1 1 1 1 1 1 1 1 1 1 1 1 1 1 1 1 1 1 1 1 1 1 1 1 1 1 1 1 1 1 1 1 1 1 1 1 1 1 1 1 1 1 1 1 1 1 1 1 1 1 1 1 1 1 1 1 1 1 1 1 1 1 1 1 1 1 1 1 1 1 1 1 1 1 1 1 1 1 1 1 1 1 1 1 1 1 1 1 1 1 1 1 1 1 1 1 1 1 1 1 1 1 1 1 1 1 1 1 1 1 1 1 1 1 1 1 1 1 1 1 1 1 1 1 1 1 1 1 1 1 1 1 1 1 1 1 1 1 1 1 1 1 1 1 1 1 1 1 1 1 1 1 1 1 1 1 1 1 1 1 1 1 1 1 1 1 1 1 1 1 1 1 1 1 1 1 1 1 1 1 1 1 1 1 1 1 1 1 1 1 1 1 1 1 1 1 1 1 1 1 1 1 1 1 1 1 1 1 1 1 1 1 1 1 1 1 1 1 1 1 1 1 1 1 1 1 1 1 1 1 1 1 1 1 1 1 1 1 1 1 1 1 1 1 1 1 1 1 1 1 1 1 1 1 1 1 1 1 1 1 1 1 1 1 1 1 1 1 1 1 1 1 1 1 1 1 1 1 1 1 1 1 1 1 1 1 1 1 1 1 1 1 1 1 1 1 1 1 1 1 1 1 1 1 1 1 1 1 1 1 1 1 1 1 1 1 1 1 1 1 1 1 1 1 1 1 1 1 1 1
				</DataArray>
				<DataArray Name="F2" type="Float32" format="ascii">
 0 0 0 0 0 0 0 0 0 0 0 0 0 0 0 0 0 0 0 0 0 0 0 0 0 0 0 0 0 0 0 0 0 0 0 0 0 0 0 0 0 0 0 0 0 0 0 0 0 0 0 0 0 0 0 0 0 0 0 0 0 0 0 0 0 0 0 0 0 0 0 0 0 0 0 0 0 0 0 0 0 0 0 0 0 0 0 0 0 0 0 0 0 0 0 0 0 0 0 0 0 0 0 0 0 0 0 0 0 0 0 0 0 0 0 0 0 0 0 0 0 0 0 0 0 0 0 0 0 0 0 0 0 0 0 0 0 0 0 0 0 0 0 0 0 0 0 0 0 0 0 0 0 0 0 0 0 0 0 0 0 0 0 0 0 0 0 0 0 0 0 0 0 0 0 0 0 0 0 0 0 0 0 0 0 0 0 0 0 0 0 0 0 0 0 0 0 0 0 0 0 0 0 0 0 0 0 0 0 0 0 0 0 0 0 0 0 0 0 0 0 0 0 0 0 0 0 0 0 0 0 0 0 0 0 0 0 0 0 0 0 0 0 0 0 0 0 0 0 0 0 0 0 0 0 0 0 0 0 0 0 0 0 0 0 0 0 0 0 0 0 0 0 0 0 0 0 0 0 0 0 0 0 0 0 0 0 0 0 0 0 0 0 0 0 0 0 0 0 0 0 0 0 0 0 0 0 0 0 0 0 0 0 0 0 0 0 0 0 0 0 0 0 0 0 0 0 0 0 0 0 0 0 0 0 0 0 0 0 0 0 0 0 0 0 0 0 0 0 0 0 0 0 0 0 0 0 0 0 0 0 0 0 0 0 0 0 0 0 0 0 0 0 0 0 0 0 0 0 0 0 0 0 0 0 0 0 0 0 0 0 0 0 0 0 0 0 0 0 0 0 0 0 0 0 0 0 0 0 0 0 0 0 0 0 0 0 0 0 0 0 0 0 0 0 0 0 0 0 0 0 0 0 0 0 0 0 0 0 0 0 0 0 0 0 0 0 0 0 0 0 0 0 0 0 0 0 0 0 0 0 0 0 0 0 0 0 0 0 0 0 0 0 0 0 0 0 0 0 0 0 0 0 0 0 0 0 0 0 0 0 0 0 0 0 0 0 0 0 0 0 0 0 0 0 0 0 0 0 0 0 0 0 0 0 0 0 0 0 0 0 0 0 0 0 0 0 0 0 0 0 0 0 0 0 0 0 0 0 0 0 0 0 0 0 0 0 0 0 0 0 0 0 0 0 0 0 0 0 0 0 0 0 0 0 0 0 0 0 0 0 0 0 0 0 0 0 0 0 0 0 0 0 0 0 0 0 0 0 0 0 0 0 0 0 0 0 0 0 0 0 0 0 0 0 0 0 0 0 0 0 0 0 0 0 0 0 0 0 0 0 0 0 0 0 0 0 0 0 0 0 0 0 0 0 0 0 0 0 0 0 0 0 0 0 0 0 0 0 0 0 0 0 0 0 0 0 0 0 0 0 0 0 0 0 0 0 0 0 0 0 0 0 0 0 0 0 0 0 0 0 0 0 0 0 0 0 0 0 0 0 0 0 0 0 0 0 0 0 0 0 0 0 0 0 0 0 0 0 0 0 0 0 0 0 0 0 0 0 0 0 0 0 0 0 0 0 0 0 0 0 0 0 0 0 0 0 0 0 0 0 0 0 0 0 0 0 0 0 0 0 0 0 0 0 0 0 0 0 0 0 0 0 0 0 0 0 0 0 0 0 0 0 0 0 0 0 0 0 0 0 0 0 0 0 0 0 0 0 0 0 0 0 0 0 0 0 0 0 0 0 0 0 0 0 0 0 0 0 0 0 0 0 0 0 0 0 0 0 0 0 0 0 0 0 0 0 0 0 0 0 0 0 0 0 0 0 0 0 0 0 0 0 0 0 0 0 0 0 0 0 0 0 0 0 0 0 0 0 0 0 0 0 0 0 0 0 0 0 0 0 0 0 0 0 0 0 0 0 0 0 0 0 0 0 0 0 0 0 0 0 0 0 0 0 0 0 0 0 0
				</DataArray>
				<DataArray Name="F3" type="Float32" format="ascii">