<?xml version="1.0"?>
<VTKFile type="PolyData">
	<PolyData>
		<Piece NumberOfPoints="961" NumberOfPolys="900">
			<Points>
				<DataArray type="Float32" NumberOfComponents="3" format="ascii">
 0 0 0 0.04 0 0 0.08 0 0 0.12 0 0 0.16 0 0 0.2 0 0 0.24 0 0 0.28 0 0 0.32 0 0 0.36 0 0 0.4 0 0 0.44 0 0 0.48 0 0 0.52 0 0 0.56 0 0 0.6 0 0 0.64 0 0 0.68 0 0 0.72 0 0 0.76 0 0 0.8 0 0 0.84 0 0 0.88 0 0 0.92 0 0 0.96 0 0 1 0 0 1.04 0 0 1.08 0 0 1.12 0 0 1.16 0 0 1.2 0 0 0 0.04 0 0.04 0.04 0 0.08 0.04 0 0.12 0.04 0 0.16 0.04 0 0.2 0.04 0 0.24 0.04 0 0.28 0.04 0 0.32 0.04 0 0.36 0.04 0 0.4 0.04 0 0.44 0.04 0 0.48 0.04 0 0.52 0.04 0 0.56 0.04 0 0.6 0.04 0 0.64 0.04 0 0.68 0.04 0 0.72 0.04 0 0.76 0.04 0 0.8 0.04 0 0.84 0.04 0 0.88 0.04 0 0.92 0.04 0 0.96 0.04 0 1 0.04 0 1.04 0.04 0 1.08 0.04 0 1.12 0.04 0 1.16 0.04 0 1.2 0.04 0 0 0.08 0 0.04 0.08 0 0.08 0.08 0 0.12 0.08 0 0.16 0.08 0 0.2 0.08 0 0.24 0.08 0 0.28 0.08 0 0.32 0.08 0 0.36 0.08 0 0.4 0.08 0 0.44 0.08 0 0.48 0.08 0 0.52 0.08 0 0.56 0.08 0 0.6 0.08 0 0.64 0.08 0 0.68 0.08 0 0.72 0.08 0 0.76 0.08 0 0.8 0.08 0 0.84 0.08 0 0.88 0.08 0 0.92 0.08 0 0.96 0.08 0 1 0.08 0 1.04 0.08 0 1.08 0.08 0 1.12 0.08 0 1.16 0.08 0 1.2 0.08 0 0 0.12 0 0.04 0.12 0 0.08 0.12 0 0.12 0.12 0 0.16 0.12 0 0.2 0.12 0 0.24 0.12 0 0.28 0.12 0 0.32 0.12 0 0.36 0.12 0 0.4 0.12 0 0.44 0.12 0 0.48 0.12 0 0.52 0.12 0 0.56 0.12 0 0.6 0.12 0 0.64 0.12 0 0.68 0.12 0 0.72 0.12 0 0.76 0.12 0 0.8 0.12 0 0.84 0.12 0 0.88 0.12 0 0.92 0.12 0 0.96 0.12 0 1 0.12 0 1.04 0.12 0 1.08 0.12 0 1.12 0.12 0 1.16 0.12 0 1.2 0.12 0 0 0.16 0 0.04 0.16 0 0.08 0.16 0 0.12 0.16 0 0.16 0.16 0 0.2 0.16 0 0.24 0.16 0 0.28 0.16 0 0.32 0.16 0 0.36 0.16 0 0.4 0.16 0 0.44 0.16 0 0.48 0.16 0 0.52 0.16 0 0.56 0.16 0 0.6 0.16 0 0.64 0.16 0 0.68 0.16 0 0.72 0.16 0 0.76 0.16 0 0.8 0.16 0 0.84 0.16 0 0.88 0.16 0 0.92 0.16 0 0.96 0.16 0 1 0.16 0 1.04 0.16 0 1.08 0.16 0 1.12 0.16 0 1.16 0.16 0 1.2 0.16 0 0 0.2 0 0.04 0.2 0 0.08 0.2 0 0.12 0.2 0 0.16 0.2 0 0.2 0.2 0 0.24 0.2 0 0.28 0.2 0 0.32 0.2 0 0.36 0.2 0 0.4 0.2 0 0.44 0.2 0 0.48 0.2 0 0.52 0.2 0 0.56 0.2 0 0.6 0.2 0 0.64 0.2 0 0.68 0.2 0 0.72 0.2 0 0.76 0.2 0 0.8 0.2 0 0.84 0.2 0 0.88 0.2 0 0.92 0.2 0 0.96 0.2 0 1 0.2 0 1.04 0.2 0 1.08 0.2 0 1.12 0.2 0 1.16 0.2 0 1.2 0.2 0 0 0.24 0 0.04 0.24 0 0.08 0.24 0 0.12 0.24 0 0.16 0.24 0 0.2 0.24 0 0.24 0.24 0 0.28 0.24 0 0.32 0.24 0 0.36 0.24 0 0.4 0.24 0 0.44 0.24 0 0.48 0.24 0 0.52 0.24 0 0.56 0.24 0 0.6 0.24 0 0.64 0.24 0 0.68 0.24 0 0.72 0.24 0 0.76 0.24 0 0.8 0.24 0 0.84 0.24 0 0.88 0.24 0 0.92 0.24 0 0.96 0.24 0 1 0.24 0 1.04 0.24 0 1.08 0.24 0 1.12 0.24 0 1.16 0.24 0 1.2 0.24 0 0 0.28 0 0.04 0.28 0 0.08 0.28 0 0.12 0.28 0 0.16 0.28 0 0.2 0.28 0 0.24 0.28 0 0.28 0.28 0 0.32 0.28 0 0.36 0.28 0 0.4 0.28 0 0.44 0.28 0 0.48 0.28 0 0.52 0.28 0 0.56 0.28 0 0.6 0.28 0 0.64 0.28 0 0.68 0.28 0 0.72 0.28 0 0.76 0.28 0 0.8 0.28 0 0.84 0.28 0 0.88 0.28 0 0.92 0.28 0 0.96 0.28 0 1 0.28 0 1.04 0.28 0 1.08 0.28 0 1.12 0.28 0 1.16 0.28 0 1.2 0.28 0 0 0.32 0 0.04 0.32 0 0.08 0.32 0 0.12 0.32 0 0.16 0.32 0 0.2 0.32 0 0.24 0.32 0 0.28 0.32 0 0.32 0.32 0 0.36 0.32 0 0.4 0.32 0 0.44 0.32 0 0.48 0.32 0 0.52 0.32 0 0.56 0.32 0 0.6 0.32 0 0.64 0.32 0 0.68 0.32 0 0.72 0.32 0 0.76 0.32 0 0.8 0.32 0 0.84 0.32 0 0.88 0.32 0 0.92 0.32 0 0.96 0.32 0 1 0.32 0 1.04 0.32 0 1.08 0.32 0 1.12 0.32 0 1.16 0.32 0 1.2 0.32 0 0 0.36 0 0.04 0.36 0 0.08 0.36 0 0.12 0.36 0 0.16 0.36 0 0.2 0.36 0 0.24 0.36 0 0.28 0.36 0 0.32 0.36 0 0.36 0.36 0 0.4 0.36 0 0.44 0.36 0 0.48 0.36 0 0.52 0.36 0 0.56 0.36 0 0.6 0.36 0 0.64 0.36 0 0.68 0.36 0 0.72 0.36 0 0.76 0.36 0 0.8 0.36 0 0.84 0.36 0 0.88 0.36 0 0.92 0.36 0 0.96 0.36 0 1 0.36 0 1.04 0.36 0 1.08 0.36 0 1.12 0.36 0 1.16 0.36 0 1.2 0.36 0 0 0.4 0 0.04 0.4 0 0.08 0.4 0 0.12 0.4 0 0.16 0.4 0 0.2 0.4 0 0.24 0.4 0 0.28 0.4 0 0.32 0.4 0 0.36 0.4 0 0.4 0.4 0 0.44 0.4 0 0.48 0.4 0 0.52 0.4 0 0.56 0.4 0 0.6 0.4 0 0.64 0.4 0 0.68 0.4 0 0.72 0.4 0 0.76 0.4 0 0.8 0.4 0 0.84 0.4 0 0.88 0.4 0 0.92 0.4 0 0.96 0.4 0 1 0.4 0 1.04 0.4 0 1.08 0.4 0 1.12 0.4 0 1.16 0.4 0 1.2 0.4 0 0 0.44 0 0.04 0.44 0 0.08 0.44 0 0.12 0.44 0 0.16 0.44 0 0.2 0.44 0 0.24 0.44 0 0.28 0.44 0 0.32 0.44 0 0.36 0.44 0 0.4 0.44 0 0.44 0.44 0 0.48 0.44 0 0.52 0.44 0 0.56 0.44 0 0.6 0.44 0 0.64 0.44 0 0.68 0.44 0 0.72 0.44 0 0.76 0.44 0 0.8 0.44 0 0.84 0.44 0 0.88 0.44 0 0.92 0.44 0 0.96 0.44 0 1 0.44 0 1.04 0.44 0 1.08 0.44 0 1.12 0.44 0 1.16 0.44 0 1.2 0.44 0 0 0.48 0 0.04 0.48 0 0.08 0.48 0 0.12 0.48 0 0.16 0.48 0 0.2 0.48 0 0.24 0.48 0 0.28 0.48 0 0.32 0.48 0 0.36 0.48 0 0.4 0.48 0 0.44 0.48 0 0.48 0.48 0 0.52 0.48 0 0.56 0.48 0 0.6 0.48 0 0.64 0.48 0 0.68 0.48 0 0.72 0.48 0 0.76 0.48 0 0.8 0.48 0 0.84 0.48 0 0.88 0.48 0 0.92 0.48 0 0.96 0.48 0 1 0.48 0 1.04 0.48 0 1.08 0.48 0 1.12 0.48 0 1.16 0.48 0 1.2 0.48 0 0 0.52 0 0.04 0.52 0 0.08 0.52 0 0.12 0.52 0 0.16 0.52 0 0.2 0.52 0 0.24 0.52 0 0.28 0.52 0 0.32 0.52 0 0.36 0.52 0 0.4 0.52 0 0.44 0.52 0 0.48 0.52 0 0.52 0.52 0 0.56 0.52 0 0.6 0.52 0 0.64 0.52 0 0.68 0.52 0 0.72 0.52 0 0.76 0.52 0 0.8 0.52 0 0.84 0.52 0 0.88 0.52 0 0.92 0.52 0 0.96 0.52 0 1 0.52 0 1.04 0.52 0 1.08 0.52 0 1.12 0.52 0 1.16 0.52 0 1.2 0.52 0 0 0.56 0 0.04 0.56 0 0.08 0.56 0 0.12 0.56 0 0.16 0.56 0 0.2 0.56 0 0.24 0.56 0 0.28 0.56 0 0.32 0.56 0 0.36 0.56 0 0.4 0.56 0 0.44 0.56 0 0.48 0.56 0 0.52 0.56 0 0.56 0.56 0 0.6 0.56 0 0.64 0.56 0 0.68 0.56 0 0.72 0.56 0 0.76 0.56 0 0.8 0.56 0 0.84 0.56 0 0.88 0.56 0 0.92 0.56 0 0.96 0.56 0 1 0.56 0 1.04 0.56 0 1.08 0.56 0 1.12 0.56 0 1.16 0.56 0 1.2 0.56 0 0 0.6 0 0.04 0.6 0 0.08 0.6 0 0.12 0.6 0 0.16 0.6 0 0.2 0.6 0 0.24 0.6 0 0.28 0.6 0 0.32 0.6 0 0.36 0.6 0 0.4 0.6 0 0.44 0.6 0 0.48 0.6 0 0.52 0.6 0 0.56 0.6 0 0.6 0.6 0 0.64 0.6 0 0.68 0.6 0 0.72 0.6 0 0.76 0.6 0 0.8 0.6 0 0.84 0.6 0 0.88 0.6 0 0.92 0.6 0 0.96 0.6 0 1 0.6 0 1.04 0.6 0 1.08 0.6 0 1.12 0.6 0 1.16 0.6 0 1.2 0.6 0 0 0.64 0 0.04 0.64 0 0.08 0.64 0 0.12 0.64 0 0.16 0.64 0 0.2 0.64 0 0.24 0.64 0 0.28 0.64 0 0.32 0.64 0 0.36 0.64 0 0.4 0.64 0 0.44 0.64 0 0.48 0.64 0 0.52 0.64 0 0.56 0.64 0 0.6 0.64 0 0.64 0.64 0 0.68 0.64 0 0.72 0.64 0 0.76 0.64 0 0.8 0.64 0 0.84 0.64 0 0.88 0.64 0 0.92 0.64 0 0.96 0.64 0 1 0.64 0 1.04 0.64 0 1.08 0.64 0 1.12 0.64 0 1.16 0.64 0 1.2 0.64 0 0 0.68 0 0.04 0.68 0 0.08 0.68 0 0.12 0.68 0 0.16 0.68 0 0.2 0.68 0 0.24 0.68 0 0.28 0.68 0 0.32 0.68 0 0.36 0.68 0 0.4 0.68 0 0.44 0.68 0 0.48 0.68 0 0.52 0.68 0 0.56 0.68 0 0.6 0.68 0 0.64 0.68 0 0.68 0.68 0 0.72 0.68 0 0.76 0.68 0 0.8 0.68 0 0.84 0.68 0 0.88 0.68 0 0.92 0.68 0 0.96 0.68 0 1 0.68 0 1.04 0.68 0 1.08 0.68 0 1.12 0.68 0 1.16 0.68 0 1.2 0.68 0 0 0.72 0 0.04 0.72 0 0.08 0.72 0 0.12 0.72 0 0.16 0.72 0 0.2 0.72 0 0.24 0.72 0 0.28 0.72 0 0.32 0.72 0 0.36 0.72 0 0.4 0.72 0 0.44 0.72 0 0.48 0.72 0 0.52 0.72 0 0.56 0.72 0 0.6 0.72 0 0.64 0.72 0 0.68 0.72 0 0.72 0.72 0 0.76 0.72 0 0.8 0.72 0 0.84 0.72 0 0.88 0.72 0 0.92 0.72 0 0.96 0.72 0 1 0.72 0 1.04 0.72 0 1.08 0.72 0 1.12 0.72 0 1.16 0.72 0 1.2 0.72 0 0 0.76 0 0.04 0.76 0 0.08 0.76 0 0.12 0.76 0 0.16 0.76 0 0.2 0.76 0 0.24 0.76 0 0.28 0.76 0 0.32 0.76 0 0.36 0.76 0 0.4 0.76 0 0.44 0.76 0 0.48 0.76 0 0.52 0.76 0 0.56 0.76 0 0.6 0.76 0 0.64 0.76 0 0.68 0.76 0 0.72 0.76 0 0.76 0.76 0 0.8 0.76 0 0.84 0.76 0 0.88 0.76 0 0.92 0.76 0 0.96 0.76 0 1 0.76 0 1.04 0.76 0 1.08 0.76 0 1.12 0.76 0 1.16 0.76 0 1.2 0.76 0 0 0.8 0 0.04 0.8 0 0.08 0.8 0 0.12 0.8 0 0.16 0.8 0 0.2 0.8 0 0.24 0.8 0 0.28 0.8 0 0.32 0.8 0 0.36 0.8 0 0.4 0.8 0 0.44 0.8 0 0.48 0.8 0 0.52 0.8 0 0.56 0.8 0 0.6 0.8 0 0.64 0.8 0 0.68 0.8 0 0.72 0.8 0 0.76 0.8 0 0.8 0.8 0 0.84 0.8 0 0.88 0.8 0 0.92 0.8 0 0.96 0.8 0 1 0.8 0 1.04 0.8 0 1.08 0.8 0 1.12 0.8 0 1.16 0.8 0 1.2 0.8 0 0 0.84 0 0.04 0.84 0 0.08 0.84 0 0.12 0.84 0 0.16 0.84 0 0.2 0.84 0 0.24 0.84 0 0.28 0.84 0 0.32 0.84 0 0.36 0.84 0 0.4 0.84 0 0.44 0.84 0 0.48 0.84 0 0.52 0.84 0 0.56 0.84 0 0.6 0.84 0 0.64 0.84 0 0.68 0.84 0 0.72 0.84 0 0.76 0.84 0 0.8 0.84 0 0.84 0.84 0 0.88 0.84 0 0.92 0.84 0 0.96 0.84 0 1 0.84 0 1.04 0.84 0 1.08 0.84 0 1.12 0.84 0 1.16 0.84 0 1.2 0.84 0 0 0.88 0 0.04 0.88 0 0.08 0.88 0 0.12 0.88 0 0.16 0.88 0 0.2 0.88 0 0.24 0.88 0 0.28 0.88 0 0.32 0.88 0 0.36 0.88 0 0.4 0.88 0 0.44 0.88 0 0.48 0.88 0 0.52 0.88 0 0.56 0.88 0 0.6 0.88 0 0.64 0.88 0 0.68 0.88 0 0.72 0.88 0 0.76 0.88 0 0.8 0.88 0 0.84 0.88 0 0.88 0.88 0 0.92 0.88 0 0.96 0.88 0 1 0.88 0 1.04 0.88 0 1.08 0.88 0 1.12 0.88 0 1.16 0.88 0 1.2 0.88 0 0 0.92 0 0.04 0.92 0 0.08 0.92 0 0.12 0.92 0 0.16 0.92 0 0.2 0.92 0 0.24 0.92 0 0.28 0.92 0 0.32 0.92 0 0.36 0.92 0 0.4 0.92 0 0.44 0.92 0 0.48 0.92 0 0.52 0.92 0 0.56 0.92 0 0.6 0.92 0 0.64 0.92 0 0.68 0.92 0 0.72 0.92 0 0.76 0.92 0 0.8 0.92 0 0.84 0.92 0 0.88 0.92 0 0.92 0.92 0 0.96 0.92 0 1 0.92 0 1.04 0.92 0 1.08 0.92 0 1.12 0.92 0 1.16 0.92 0 1.2 0.92 0 0 0.96 0 0.04 0.96 0 0.08 0.96 0 0.12 0.96 0 0.16 0.96 0 0.2 0.96 0 0.24 0.96 0 0.28 0.96 0 0.32 0.96 0 0.36 0.96 0 0.4 0.96 0 0.44 0.96 0 0.48 0.96 0 0.52 0.96 0 0.56 0.96 0 0.6 0.96 0 0.64 0.96 0 0.68 0.96 0 0.72 0.96 0 0.76 0.96 0 0.8 0.96 0 0.84 0.96 0 0.88 0.96 0 0.92 0.96 0 0.96 0.96 0 1 0.96 0 1.04 0.96 0 1.08 0.96 0 1.12 0.96 0 1.16 0.96 0 1.2 0.96 0 0 1 0 0.04 1 0 0.08 1 0 0.12 1 0 0.16 1 0 0.2 1 0 0.24 1 0 0.28 1 0 0.32 1 0 0.36 1 0 0.4 1 0 0.44 1 0 0.48 1 0 0.52 1 0 0.56 1 0 0.6 1 0 0.64 1 0 0.68 1 0 0.72 1 0 0.76 1 0 0.8 1 0 0.84 1 0 0.88 1 0 0.92 1 0 0.96 1 0 1 1 0 1.04 1 0 1.08 1 0 1.12 1 0 1.16 1 0 1.2 1 0 0 1.04 0 0.04 1.04 0 0.08 1.04 0 0.12 1.04 0 0.16 1.04 0 0.2 1.04 0 0.24 1.04 0 0.28 1.04 0 0.32 1.04 0 0.36 1.04 0 0.4 1.04 0 0.44 1.04 0 0.48 1.04 0 0.52 1.04 0 0.56 1.04 0 0.6 1.04 0 0.64 1.04 0 0.68 1.04 0 0.72 1.04 0 0.76 1.04 0 0.8 1.04 0 0.84 1.04 0 0.88 1.04 0 0.92 1.04 0 0.96 1.04 0 1 1.04 0 1.04 1.04 0 1.08 1.04 0 1.12 1.04 0 1.16 1.04 0 1.2 1.04 0 0 1.08 0 0.04 1.08 0 0.08 1.08 0 0.12 1.08 0 0.16 1.08 0 0.2 1.08 0 0.24 1.08 0 0.28 1.08 0 0.32 1.08 0 0.36 1.08 0 0.4 1.08 0 0.44 1.08 0 0.48 1.08 0 0.52 1.08 0 0.56 1.08 0 0.6 1.08 0 0.64 1.08 0 0.68 1.08 0 0.72 1.08 0 0.76 1.08 0 0.8 1.08 0 0.84 1.08 0 0.88 1.08 0 0.92 1.08 0 0.96 1.08 0 1 1.08 0 1.04 1.08 0 1.08 1.08 0 1.12 1.08 0 1.16 1.08 0 1.2 1.08 0 0 1.12 0 
[...]
			<CellData Scalars="Density">
				<DataArray Name="Density" type="Float32" format="ascii">
 0.00574851 0.00589989 0.00631835 0.00712315 0.00838743 0.0102543 0.0130044 0.017029 0.0225884 0.0296192 0.0380188 0.0478242 0.0591361 0.0722565 0.0886289 0.111632 0.147364 0.205405 0.299113 0.44208 0.642439 0.902403 1.20946 1.4674 1.61545 1.64819 1.5839 1.31782 0.875498 0.69958 0.00589825 0.00597736 0.00626881 0.00687598 0.00781706 0.00924222 0.0115291 0.015094 0.0201198 0.0270279 0.0363322 0.0498483 0.0677292 0.0847159 0.0996709 0.117441 0.144135 0.191851 0.276841 0.417094 0.630094 0.922308 1.26968 1.53852 1.68778 1.71974 1.63864 1.33937 0.886805 0.716123 0.00631249 0.00626556 0.00638915 0.00682302 0.00758161 0.00875863 0.0107545 0.0144076 0.0207134 0.0307157 0.0488958 0.0838033 0.121454 0.151997 0.173901 0.186455 0.19498 0.214684 0.269295 0.381122 0.568446 0.846339 1.20638 1.51564 1.69323 1.73774 1.65678 1.35625 0.904344 0.733 0.00710849 0.00686609 0.00681763 0.00719409 0.00795122 0.00918722 0.0114801 0.0165162 0.0277168 0.0501574 0.0859045 0.124272 0.160678 0.203333 0.251353 0.296459 0.324361 0.344147 0.384415 0.480838 0.660192 0.929885 1.27244 1.56851 1.73222 1.76104 1.67889 1.38842 0.939945 0.755356 0.00835766 0.00779534 0.00756792 0.00794097 0.00866863 0.00985132 0.0127442 0.0204763 0.0384824 0.0678342 0.101011 0.132622 0.165837 0.215771 0.28072 0.356801 0.430039 0.489398 0.562252 0.68179 0.870069 1.12638 1.418 1.63477 1.75546 1.77177 1.68286 1.40145 0.984246 0.781635 0.0102018 0.00920301 0.00873168 0.00915395 0.00980804 0.0104066 0.0123791 0.0195793 0.0367458 0.0648049 0.0919183 0.110975 0.133454 0.192047 0.278929 0.37354 0.478728 0.584934 0.699928 0.846071 1.03286 1.25685 1.48723 1.65481 1.74798 1.7582 1.67202 1.4248 1.05964 0.824078 0.0129252 0.0114701 0.0107076 0.0114056 0.0126264 0.0123135 0.0125734 0.016075 0.029105 0.0510559 0.0704819 0.0749114 0.0903803 0.13504 0.222072 0.347724 0.48182 0.613037 0.748252 0.900391 1.07698 1.27894 1.48285 1.62579 1.70904 1.72312 1.65143 1.4471 1.14184 0.883171 0.0169176 0.0150029 0.0143164 0.0163935 0.0202743 0.0194344 0.0160554 0.0158981 0.0196703 0.0307522 0.0435578 0.0496755 0.0600382 0.0905908 0.156035 0.259275 0.415661 0.585207 0.738948 0.890117 1.05209 1.23056 1.42331 1.58116 1.68457 1.71818 1.67472 1.50958 1.25198 0.988059 0.0224345 0.0199831 0.0205583 0.0275098 0.0382262 0.0365634 0.0290817 0.0197256 0.0186599 0.0208882 0.0258587 0.031782 0.0406464 0.0614619 0.107076 0.185673 0.303271 0.462035 0.632623 0.794033 0.9519 1.1187 1.30977 1.50841 1.66261 1.73394 1.71979 1.60318 1.4018 1.15404 0.0294292 0.0268368 0.0304311 0.0496764 0.067475 0.0646173 0.0510931 0.0309215 0.0209317 0.0198487 0.0208442 0.0238113 0.0301849 0.0450276 0.0765485 0.132044 0.216494 0.332129 0.473136 0.629032 0.795478 0.976174 1.17738 1.40876 1.62329 1.74511 1.771 1.72432 1.60142 1.38524 0.0378076 0.0360689 0.0483435 0.085332 0.100738 0.0919184 0.0707047 0.0438552 0.0259335 0.0208516 0.0207986 0.0221717 0.0264494 0.0370301 0.0604322 0.101317 0.162338 0.246161 0.354109 0.485124 0.639856 0.823341 1.04139 1.29889 1.583 1.7945 1.87159 1.87861 1.85992 1.68714 0.0475976 0.0494709 0.0829919 0.123827 0.13245 0.111163 0.0750339 0.0497939 0.0318106 0.0238086 0.0221735 0.023097 0.0268941 0.0362462 0.0556108 0.0898385 0.139214 0.204508 0.288477 0.394734 0.529652 0.700888 0.918262 1.18933 1.51877 1.83543 2.00569 2.08573 2.2164 2.04329 0.0589026 0.0671926 0.120661 0.160277 0.165643 0.133543 0.0904998 0.0601011 0.0406765 0.030221 0.0264839 0.0269281 0.0304615 0.0402592 0.0599482 0.0916869 0.136763 0.195293 0.268824 0.360962 0.477676 0.631398 0.836731 1.11086 1.46692 1.86616 2.17866 2.33501 2.59251 2.39877 0.0720359 0.0841519 0.151169 0.202855 0.215512 0.192215 0.135418 0.0909769 0.0617653 0.0452852 0.0372148 0.036388 0.0403699 0.0517147 0.0735593 0.107382 0.152854 0.209323 0.277522 0.362699 0.47092 0.614171 0.808395 1.07742 1.43959 1.87456 2.32108 2.54982 2.8299 2.69292 0.0884465 0.0991743 0.172858 0.250705 0.2804 0.278911 0.222777 0.156911 0.107931 0.0772254 0.0608955 0.0559511 0.0602336 0.0737558 0.0988256 0.138694 0.191898 0.254628 0.32526 0.407255 0.507895 0.639525 0.821869 1.08112 1.435 1.87352 2.36187 2.652 2.92294 2.88812 0.111523 0.117028 0.185372 0.295575 0.356309 0.37334 0.348337 0.260533 0.18703 0.133154 0.102074 0.0904009 0.092182 0.107763 0.138838 0.18538 0.249043 0.32211 0.401992 0.488785 0.587476 0.71006 0.875579 1.10998 1.43686 1.85942 2.33398 2.6654 2.94209 2.9907 0.147382 0.143857 0.194039 0.323232 0.429232 0.478401 0.4819 0.417096 0.305109 0.218043 0.163433 0.14 0.137441 0.153346 0.191979 0.248987 0.317707 0.400683 0.490415 0.580612 0.678111 0.791756 0.936791 1.13713 1.41332 1.79813 2.21737 2.56396 2.84935 2.98452 0.205624 0.191756 0.213984 0.342924 0.488309 0.584336 0.612812 0.585899 0.46407 0.334031 0.247624 0.205553 0.196118 0.209871 0.254795 0.322081 0.400698 0.484371 0.57512 0.66628 0.762877 0.867375 0.993883 1.16165 1.38578 1.7023 2.0533 2.39615 2.71866 2.90112 0.299624 0.276937 0.268832 0.38314 0.560858 0.699194 0.747965 0.739366 0.634345 0.475187 0.355912 0.289803 0.269823 0.278213 0.325673 0.402232 0.490282 0.574676 0.656186 0.744166 0.834081 0.928773 1.03904 1.17994 1.36425 1.62175 1.91966 2.27503 2.63496 2.80609 0.442921 0.417381 0.38079 0.479561 0.680135 0.845375 0.900179 0.890554 0.795586 0.631145 0.487175 0.396348 0.362155 0.36365 0.407827 0.489025 0.580141 0.665124 0.743067 0.814777 0.891528 0.974477 1.07055 1.19141 1.34921 1.57793 1.85953 2.23278 2.58648 2.73454 0.643555 0.630532 0.568173 0.65891 0.868457 1.03237 1.07692 1.05267 0.953347 0.797539 0.641994 0.531492 0.479126 0.472146 0.508711 0.587616 0.677094 0.761173 0.832343 0.890671 0.941754 1.01183 1.09435 1.20537 1.34509 1.56248 1.84283 2.22484 2.56364 2.69605 0.903655 0.922782 0.846128 0.928669 1.12516 1.25667 1.27906 1.23129 1.12013 0.977973 0.825376 0.702835 0.633057 0.615615 0.640532 0.710295 0.790675 0.865205 0.925743 0.972993 1.0128 1.06821 1.14158 1.2435 1.37683 1.57443 1.8676 2.24813 2.55917 2.68434 1.21054 1.27003 1.20634 1.27156 1.41743 1.48733 1.48314 1.42405 1.31113 1.17883 1.04322 0.920195 0.838507 0.809969 0.823067 0.876195 0.936206 0.992859 1.03741 1.06824 1.09408 1.14203 1.20642 1.31072 1.44611 1.64128 1.93757 2.30213 2.58056 2.69934 1.4679 1.53861 1.51564 1.56799 1.63466 1.65498 1.62612 1.58171 1.50932 1.40973 1.30024 1.19104 1.11259 1.07889 1.08225 1.11103 1.13799 1.1616 1.17906 1.18995 1.20301 1.24479 1.31154 1.42094 1.56863 1.77307 2.08354 2.40002 2.64576 2.75074 1.61546 1.68767 1.69299 1.73184 1.75544 1.7482 1.70934 1.68487 1.663 1.62363 1.58365 1.51998 1.46833 1.44095 1.43623 1.43808 1.41496 1.38639 1.36313 1.34845 1.34431 1.37749 1.44911 1.57311 1.73282 1.93749 2.23466 2.51314 2.72879 2.81762 1.64797 1.71945 1.73733 1.76065 1.77163 1.75827 1.72322 1.71826 1.73396 1.745 1.79455 1.83584 1.86698 1.87562 1.87451 1.86056 1.79954 1.70303 1.62093 1.57638 1.56092 1.57345 1.64352 1.779 1.94266 2.18772 2.47844 2.69657 2.86071 2.90899 1.58324 1.63788 1.65599 1.67819 1.68241 1.6718 1.65122 1.67456 1.71956 1.77068 1.8713 2.00562 2.17885 2.32122 2.36194 2.33393 2.21726 2.05346 1.92034 1.86074 1.84425 1.86906 1.93627 2.08303 2.23891 2.48376 2.80704 3.02406 3.10589 3.06422 1.31671 1.33821 1.35504 1.38729 1.40059 1.4241 1.44652 1.50909 1.6025 1.72367 1.87796 2.08532 2.33483 2.54977 2.65166 2.66482 2.56279 2.39528 2.27543 2.23422 2.22643 2.24992 2.30388 2.39985 2.51461 2.69942 3.03171 3.37749 3.59006 3.44134 0.874495 0.885828 0.903301 0.938846 0.983145 1.05851 1.14086 1.25107 1.40086 1.60027 1.85885 2.2154 2.59201 2.82968 2.92271 2.94178 2.84886 2.71805 2.63434 2.58609 2.5637 2.55962 2.58238 2.64752 2.72986 2.862 3.11138 3.59448 4.07363 4.18133 0.699261 0.715798 0.732656 0.754984 0.781207 0.823564 0.882505 0.9872 1.15302 1.384 1.68586 2.04205 2.39787 2.6924 2.88797 2.99076 2.98457 2.9008 2.80534 2.73384 2.69583 2.68476 2.70065 2.75255 2.818 2.91453 3.06362 3.44624 4.18535 4.93971
				</DataArray>
				<DataArray Name="Energy" type="Float32" format="ascii">
 953.34 928.736 867.26 769.31 653.376 534.45 421.476 321.856 242.627 184.995 144.089 114.518 92.5739 75.6907 61.5986 48.8038 36.9086 26.4034 18.0769 12.185 8.32015 5.84521 4.26303 3.39854 2.91777 2.56085 2.20085 1.82758 1.45194 1.29657 928.989 916.49 873.881 796.74 700.848 592.803 475.147 362.918 272.261 202.712 150.813 109.934 80.8948 64.6034 54.8067 46.4079 37.6929 28.253 19.5295 12.8959 8.48332 5.73378 4.06898 3.23635 2.79946 2.49069 2.16079 1.79618 1.42924 1.27976 868.059 874.335 857.466 802.962 722.679 625.581 509.443 380.312 264.521 178.375 112.081 65.4056 45.1004 35.9962 31.3965 29.1943 27.8418 25.1912 20.0186 14.1149 9.39989 6.23651 4.28655 3.31286 2.82838 2.49711 2.1493 1.77836 1.41952 1.27247 770.891 797.888 803.598 761.618 689.124 596.473 477.369 331.853 197.739 109.256 63.7506 44.0959 34.0897 26.9003 21.7225 18.3611 16.7125 15.7068 14.0163 11.1633 8.10073 5.70741 4.0985 3.23639 2.8019 2.49675 2.16833 1.81462 1.44952 1.28553 655.699 702.803 723.988 690.014 632.205 556.371 430.161 267.766 142.465 80.799 54.1915 41.272 33.0334 25.3559 19.4538 15.2524 12.6071 11.0353 9.58695 7.88819 6.15416 4.7107 3.67307 3.09974 2.77104 2.51125 2.20907 1.87268 1.51898 1.33029 537.194 595.328 627.501 598.641 558.827 526.865 443.003 280.179 149.281 84.6019 59.6088 49.3216 41.0438 28.5118 19.5929 14.6028 11.3547 9.25785 7.71446 6.36137 5.18445 4.22075 3.50096 3.05747 2.77688 2.54337 2.25691 1.94612 1.61745 1.39972 424.055 477.59 511.682 480.484 434.174 445.361 436.411 341.388 188.568 107.473 77.7949 73.2358 60.66 40.6737 24.7282 15.743 11.3278 8.8662 7.2267 5.97209 4.95597 4.12277 3.48046 3.07631 2.79715 2.55997 2.28811 2.00462 1.71514 1.4923 323.972 365.123 382.723 334.337 270.431 282.268 341.801 345.547 279.361 178.579 126.232 110.674 91.7163 60.7897 35.361 21.2581 13.2268 9.35387 7.35425 6.04335 5.054 4.25341 3.59203 3.11955 2.78229 2.52638 2.25939 2.00331 1.7728 1.58579 244.289 274.121 266.517 199.226 143.421 150.027 188.719 278.558 294.823 263.472 213.056 173.643 135.95 90.0337 51.7434 29.875 18.2768 11.9685 8.69421 6.8473 5.60994 4.65778 3.86334 3.22401 2.7686 2.45577 2.18914 1.95637 1.78128 1.66017 186.187 204.155 180.042 110.316 81.2293 84.848 107.394 177.605 262.929 277.87 264.956 232.466 183.713 123.449 72.7629 42.279 25.8519 16.8483 11.7823 8.79121 6.84718 5.44635 4.35428 3.46309 2.81649 2.41257 2.12916 1.90771 1.77125 1.71076 144.891 151.91 113.361 64.1791 54.3395 59.6094 77.5507 125.376 212.435 264.867 266.217 250.39 210.474 150.695 92.7035 55.4739 34.734 22.9974 15.9908 11.6092 8.69458 6.62348 5.07892 3.89343 2.99426 2.43552 2.11552 1.8954 1.78339 1.75881 115.06 110.77 66.0431 44.2536 41.3252 49.2386 73.1155 110.408 173.487 232.482 250.381 241.014 207.775 154.757 101.274 63.0505 40.8815 27.9754 19.9144 14.5219 10.7519 8.012 5.96597 4.42606 3.28395 2.53402 2.14045 1.91791 1.83728 1.83119 92.937 81.538 45.3957 34.1749 33.0724 41.016 60.5801 91.618 135.847 183.495 210.186 207.523 184.075 140.056 94.6244 62.2566 42.0711 29.6466 21.6659 16.1759 12.1703 9.12596 6.77309 4.96064 3.62408 2.70757 2.19571 1.9587 1.87851 1.89951 75.9189 65.0335 36.1922 26.9633 25.3861 28.4874 40.5598 60.5307 89.588 122.744 149.95 154.142 139.682 109.606 77.7202 53.7103 38.0547 28.0275 21.2664 16.3599 12.5675 9.57846 7.19938 5.31328 3.89625 2.90722 2.30022 2.01707 1.89553 1.94251 61.7225 55.0786 31.5845 21.7782 19.4749 19.594 24.6484 35.1615 51.335 72.1232 91.9991 100.663 94.1698 77.5205 58.3365 42.049 30.7026 23.3462 18.3857 14.7376 11.797 9.31229 7.18957 5.40869 4.02964 3.05268 2.4024 2.08179 1.91439 1.96377 48.8495 46.5705 29.3637 18.4153 15.2726 14.6101 15.7141 21.1535 29.6555 41.9276 55.0608 62.6599 61.9264 53.5177 42.0088 31.8319 23.9649 18.6837 15.0472 12.3717 10.2454 8.39909 6.73956 5.26462 4.03994 3.11926 2.46831 2.12969 1.93444 1.96019 36.9022 37.7638 27.976 16.7703 12.63 11.3617 11.3251 13.1799 18.1653 25.6671 34.5029 40.6522 41.8674 37.9366 30.6899 23.9723 19.0009 15.1635 12.406 10.4119 8.79334 7.40523 6.15626 4.99619 3.97364 3.13066 2.52313 2.15792 1.93762 1.92886 26.3741 28.266 25.2729 15.7621 11.0591 9.26659 8.8685 9.34155 11.9147 16.7509 22.861 27.8355 29.5235 27.9576 23.3334 18.6857 15.1626 12.5882 10.5479 8.95229 7.65821 6.56066 5.58433 4.66922 3.8308 3.12953 2.57771 2.17588 1.91195 1.87346 18.0463 19.5211 20.0529 14.062 9.61014 7.72187 7.22885 7.34906 8.66924 11.7303 15.9097 19.8242 21.5887 21.2157 18.3652 15.0402 12.4098 10.5505 9.10696 7.84446 6.77057 5.87447 5.07669 4.34006 3.65785 3.07095 2.56954 2.14183 1.87179 1.81385 12.1618 12.8858 14.1268 11.192 7.90677 6.36606 5.97302 6.03976 6.83267 8.76063 11.5595 14.4626 16.1234 16.3183 14.7168 12.365 10.4216 8.96963 7.84888 6.92583 6.05915 5.31037 4.65875 4.05289 3.48933 2.97157 2.51125 2.08337 1.8276 1.75767 8.30513 8.47669 9.4037 8.11585 6.16515 5.18652 4.95594 5.05082 5.60025 6.82817 8.66445 10.7142 12.134 12.5358 11.7788 10.2434 8.80186 7.6754 6.78539 6.06778 5.45457 4.83671 4.3078 3.80174 3.33629 2.86218 2.42536 2.02089 1.78552 1.71036 5.83648 5.73016 6.2372 5.71427 4.71551 4.22114 4.1222 4.25068 4.65108 5.43492 6.60571 7.98905 9.10214 9.55639 9.29753 8.39602 7.41472 6.57872 5.88967 5.31779 4.83795 4.37447 3.94901 3.54012 3.15016 2.75449 2.33195 1.95974 1.75383 1.67895 4.25857 4.0672 4.28607 4.10081 3.67438 3.50063 3.4797 3.59004 3.85891 4.34749 5.06878 5.95258 6.75866 7.18609 7.17957 6.73646 6.15809 5.58968 5.08791 4.66524 4.30987 3.95101 3.61592 3.26403 2.93265 2.59067 2.21393 1.89249 1.72494 1.65924 3.39667 3.23552 3.31237 3.23688 3.09982 3.05712 3.07569 3.11841 3.22179 3.45948 3.8881 4.41869 4.95282 5.30649 5.40353 5.26085 4.99506 4.66777 4.34343 4.06 3.80705 3.53654 3.26271 2.96844 2.68048 2.38835 2.06916 1.83816 1.7059 1.64906 2.91682 2.79896 2.82804 2.80165 2.77085 2.77648 2.79676 2.78186 2.76782 2.81516 2.99192 3.2803 3.6203 3.89288 4.02676 4.03692 3.97053 3.83185 3.6604 3.49271 3.33838 3.14831 2.92645 2.67327 2.44693 2.21501 1.96244 1.78669 1.69114 1.65079 2.56011 2.49015 2.49655 2.49611 2.51075 2.54277 2.55956 2.52624 2.45563 2.41223 2.43455 2.53266 2.70593 2.9058 3.05129 3.11743 3.12801 3.12822 3.07248 2.9745 2.86498 2.75582 2.58771 2.38275 2.2097 2.00569 1.81837 1.70893 1.65776 1.64664 2.20009 2.16008 2.14851 2.16749 2.20833 2.25621 2.28764 2.2592 2.18919 2.12907 2.11516 2.13976 2.19503 2.2996 2.40177 2.46775 2.52272 2.57739 2.56916 2.5106 2.4244 2.33069 2.21509 2.07091 1.96173 1.81629 1.65714 1.57592 1.57249 1.60722 1.82679 1.79536 1.77743 1.8136 1.87173 1.94527 2.00408 2.00301 1.95644 1.90775 1.89526 1.9176 1.95822 2.01656 2.08148 2.12962 2.15825 2.17603 2.14121 2.08221 2.01964 1.95868 1.89175 1.83765 1.78627 1.70967 1.57268 1.45448 1.41225 1.48666 1.45131 1.42863 1.41881 1.44867 1.51804 1.61648 1.71436 1.7723 1.78111 1.77133 1.78337 1.83714 1.8782 1.8952 1.91417 1.93433 1.93762 1.91205 1.87194 1.82778 1.78563 1.75376 1.72404 1.70508 1.69096 1.65779 1.57025 1.41151 1.30988 1.27227 1.29645 1.27963 1.27229 1.28526 1.3299 1.39921 1.49166 1.5851 1.65969 1.71062 1.75881 1.83125 1.89947 1.94234 1.96354 1.95995 1.92867 1.87336 1.81393 1.7579 1.71042 1.67891 1.65917 1.64888 1.65114 1.64598 1.60726 1.48606 1.27149 1.30525
				</DataArray>
				<DataArray Name="F1" type="Float32" format="ascii">
 1 1 1 1 1 1 1 1 1 1 1 1 1 1 1 1 1 1 1 1 1 1 1 1 1 1 1 1 1 1 1 1 1 1 1 1 1 1 1 1 1 1 1 1 1 1 1 1 1 1 1 1 1 1 1 1 1 1 1 1 1 1 1 1 1 1 1 1 1 1 1 1 1 1 1 1 1 1 1 1 1 1 1 1 1 1 1 1 1 1 1 1 1 1 1 1 1 1 1 1 1 1 1 1 1 1 1 1 1 1 1 1 1 1 1 1 1 1 1 1 1 1 1 1 1 1 1 1 1 1 1 1 1 1 1 1 1 1 1 1 1 1 1 1 1 1 1 1 1 1 1 1 1 1 1 1 1 1 1 1 1 1 1 1 1 1 1 1 1 1 1 1 1 1 1 1 1 1 1 1 1 1 1 1 1 1 1 1 1 1 1 1 1 1 1 1 1 1 1 1 1 1 1 1 1 1 1 1 1 1 1 1 1 1 1 1 1 1 1 1 1 1 1 1 1 1 1 1 1 1 1 1 1 1 1 1 1 1 1 1 1 1 1 1 1 1 1 1 1 1 1 1 1 1 1 1 1 1 1 1 1 1 1 1 1 1 1 1 1 1 1 1 1 1 1 1 1 1 1 1 1 1 1 1 1 1 1 1 1 1 1 1 1 1 1 1 1 1 1 1 1 1 1 1 1 1 1 1 1 1 1 1 1 1 1 1 1 1 1 1 1 1 1 1 1 1 1 1 1 1 1 1 1 1 1 1 1 1 1 1 1 1 1 1 1 1 1 1 1 1 1 1 1 1 1 1 1 1 1 1 1 1 1 1 1 1 1 1 1 1 1 1 1 1 1 1 1 1 1 1 1 1 1 1 1 1 1 1 1 1 1 1 1 1 1 1 1 1 1 1 1 1 1 1 1 1 1 1 1 1 1 1 1 1 1 1 1 1 1 1 1 1 1 1 1 1 1 1 1 1 1 1 1 1 1 1 1 1 1 1 1 1 1 1 1 1 1 1 1 1 1 1 1 1 1 1 1 1 1 1 1 1 1 1 1 1 1 1 1 1 1 1 1 1 1 1 1 1 1 1 1 1 1 1 1 1 1 1 1 1 1 1 1 1 1 1 1 1 1 1 1 1 1 1 1 1 1 1 1 1 1 1 1 1 1 1 1 1 1 1 1 1 1 1 1 1 1 1 1 1 1 1 1 1 1 1 1 1 1 1 1 1 1 1 1 1 1 1 1 1 1 1 1 1 1 1 1 1 1 1 1 1 1 1 1 1 1 1 1 1 1 1 1 1 1 1 1 1 1 1 1 1 1 1 1 1 1 1 1 1 1 1 1 1 1 1 1 1 1 1 1 1 1 1 1 1 1 1 1 1 1 1 1 1 1 1 1 1 1 1 1 1 1 1 1 1 1 1 1 1 1 1 1 1 1 1 1 1 1 1 1 1 1 1 1 1 1 1 1 1 1 1 1 1 1 1 1 1 1 1 1 1 1 1 1 1 1 1 1 1 1 1 1 1 1 1 1 1 1 1 1 1 1 1 1 1 1 1 1 1 1 1 1 1 1 1 1 1 1 1 1 1 1 1 1 1 1 1 1 1 1 1 1 1 1 1 1 1 1 1 1 1 1 1 1 1 1 1 1 1 1 1 1 1 1 1 1 1 1 1 1 1 1 1 1 1 1 1 1 1 1 1 1 1 1 1 1 1 1 1 1 1 1 1 1 1 1 1 1 1 1 1 1 1 1 1 1 1 1 1 1 1 1 1 1 1 1 1 1 1 1 1 1 1 1 1 1 1 1 1 1 1 1 1 1 1 1 1 1 1 1 1 1 1 1 1 1 1 1 1 1 1 1 1 1 1 1 1 1 1 1 1 1 1 1 1 1 1 1 1 1 1 1 1 1 1 1 1 1 1 1 1 1 1 1 1 1 1 1 1 1 1 1 1 1 1 1 1 1 1 1 1 1 1 1 1 1 1 1 1 1 1 1 1 1 1 1 1 1 1 1 1 1 1 1 1 1 1 1 1
				</DataArray>
				<DataArray Name="F2" type="Float32" format="ascii">
 0 0 0 0 0 0 0 0 0 0 0 0 0 0 0 0 0 0 0 0 0 0 0 0 0 0 0 0 0 0 0 0 0 0 0 0 0 0 0 0 0 0 0 0 0 0 0 0 0 0 0 0 0 0 0 0 0 0 0 0 0 0 0 0 0 0 0 0 0 0 0 0 0 0 0 0 0 0 0 0 0 0 0 0 0 0 0 0 0 0 0 0 0 0 0 0 0 0 0 0 0 0 0 0 0 0 0 0 0 0 0 0 0 0 0 0 0 0 0 0 0 0 0 0 0 0 0 0 0 0 0 0 0 0 0 0 0 0 0 0 0 0 0 0 0 0 0 0 0 0 0 0 0 0 0 0 0 0 0 0 0 0 0 0 0 0 0 0 0 0 0 0 0 0 0 0 0 0 0 0 0 0 0 0 0 0 0 0 0 0 0 0 0 0 0 0 0 0 0 0 0 0 0 0 0 0 0 0 0 0 0 0 0 0 0 0 0 0 0 0 0 0 0 0 0 0 0 0 0 0 0 0 0 0 0 0 0 0 0 0 0 0 0 0 0 0 0 0 0 0 0 0 0 0 0 0 0 0 0 0 0 0 0 0 0 0 0 0 0 0 0 0 0 0 0 0 0 0 0 0 0 0 0 0 0 0 0 0 0 0 0 0 0 0 0 0 0 0 0 0 0 0 0 0 0 0 0 0 0 0 0 0 0 0 0 0 0 0 0 0 0 0 0 0 0 0 0 0 0 0 0 0 0 0 0 0 0 0 0 0 0 0 0 0 0 0 0 0 0 0 0 0 0 0 0 0 0 0 0 0 0 0 0 0 0 0 0 0 0 0 0 0 0 0 0 0 0 0 0 0 0 0 0 0 0 0 0 0 0 0 0 0 0 0 0 0 0 0 0 0 0 0 0 0 0 0 0 0 0 0 0 0 0 0 0 0 0 0 0 0 0 0 0 0 0 0 0 0 0 0 0 0 0 0 0 0 0 0 0 0 0 0 0 0 0 0 0 0 0 0 0 0 0 0 0 0 0 0 0 0 0 0 0 0 0 0 0 0 0 0 0 0 0 0 0 0 0 0 0 0 0 0 0 0 0 0 0 0 0 0 0 0 0 0 0 0 0 0 0 0 0 0 0 0 0 0 0 0 0 0 0 0 0 0 0 0 0 0 0 0 0 0 0 0 0 0 0 0 0 0 0 0 0 0 0 0 0 0 0 0 0 0 0 0 0 0 0 0 0 0 0 0 0 0 0 0 0 0 0 0 0 0 0 0 0 0 0 0 0 0 0 0 0 0 0 0 0 0 0 0 0 0 0 0 0 0 0 0 0 0 0 0 0 0 0 0 0 0 0 0 0 0 0 0 0 0 0 0 0 0 0 0 0 0 0 0 0 0 0 0 0 0 0 0 0 0 0 0 0 0 0 0 0 0 0 0 0 0 0 0 0 0 0 0 0 0 0 0 0 0 0 0 0 0 0 0 0 0 0 0 0 0 0 0 0 0 0 0 0 0 0 0 0 0 0 0 0 0 0 0 0 0 0 0 0 0 0 0 0 0 0 0 0 0 0 0 0 0 0 0 0 0 0 0 0 0 0 0 0 0 0 0 0 0 0 0 0 0 0 0 0 0 0 0 0 0 0 0 0 0 0 0 0 0 0 0 0 0 0 0 0 0 0 0 0 0 0 0 0 0 0 0 0 0 0 0 0 0 0 0 0 0 0 0 0 0 0 0 0 0 0 0 0 0 0 0 0 0 0 0 0 0 0 0 0 0 0 0 0 0 0 0 0 0 0 0 0 0 0 0 0 0 0 0 0 0 0 0 0 0 0 0 0 0 0 0 0 0 0 0 0 0 0 0 0 0 0 0 0 0 0 0 0 0 0 0 0 0 0 0 0 0 0 0 0 0 0 0 0 0 0 0 0 0 0 0 0 0 0 0 0 0 0 0 0 0 0 0 0 0 0 0 0 0 0 0 0 0 0 0 0 0 0 0 0 0 0 0 0 0 0 0 0 0 0 0 0 0 0 0
				</DataArray>
				<DataArray Name="F3" type="Float32" format="ascii">