<?xml version="1.0"?>
<VTKFile type="PolyData">
	<PolyData>
		<Piece NumberOfPoints="2201" NumberOfPolys="2100">
			<Points>
				<DataArray type="Float32" NumberOfComponents="3" format="ascii">
 0 0 0 0.001 0 0 0.002 0 0 0.003 0 0 0.004 0 0 0.005 0 0 0.006 0 0 0.007 0 0 0.008 0 0 0.009 0 0 0.01 0 0 0.011 0 0 0.012 0 0 0.013 0 0 0.014 0 0 0.015 0 0 0.016 0 0 0.017 0 0 0.018 0 0 0.019 0 0 0.02 0 0 0.021 0 0 0.022 0 0 0.023 0 0 0.024 0 0 0.025 0 0 0.026 0 0 0.027 0 0 0.028 0 0 0.029 0 0 0.03 0 0 0.031 0 0 0.032 0 0 0.033 0 0 0.034 0 0 0.035 0 0 0.036 0 0 0.037 0 0 0.038 0 0 0.039 0 0 0.04 0 0 0.041 0 0 0.042 0 0 0.043 0 0 0.044 0 0 0.045 0 0 0.046 0 0 0.047 0 0 0.048 0 0 0.049 0 0 0.05 0 0 0.051 0 0 0.052 0 0 0.053 0 0 0.054 0 0 0.055 0 0 0.056 0 0 0.057 0 0 0.058 0 0 0.059 0 0 0.06 0 0 0.061 0 0 0.062 0 0 0.063 0 0 0.064 0 0 0.065 0 0 0.066 0 0 0.067 0 0 0.068 0 0 0.069 0 0 0.07 0 0 0 0.001 0 0.001 0.001 0 0.002 0.001 0 0.003 0.001 0 0.004 0.001 0 0.005 0.001 0 0.006 0.001 0 0.007 0.001 0 0.008 0.001 0 0.009 0.001 0 0.01 0.001 0 0.011 0.001 0 0.012 0.001 0 0.013 0.001 0 0.014 0.001 0 0.015 0.001 0 0.016 0.001 0 0.017 0.001 0 0.018 0.001 0 0.019 0.001 0 0.02 0.001 0 0.021 0.001 0 0.022 0.001 0 0.023 0.001 0 0.024 0.001 0 0.025 0.001 0 0.026 0.001 0 0.027 0.001 0 0.028 0.001 0 0.029 0.001 0 0.03 0.001 0 0.031 0.001 0 0.032 0.001 0 0.033 0.001 0 0.034 0.001 0 0.035 0.001 0 0.036 0.001 0 0.037 0.001 0 0.038 0.001 0 0.039 0.001 0 0.04 0.001 0 0.041 0.001 0 0.042 0.001 0 0.043 0.001 0 0.044 0.001 0 0.045 0.001 0 0.046 0.001 0 0.047 0.001 0 0.048 0.001 0 0.049 0.001 0 0.05 0.001 0 0.051 0.001 0 0.052 0.001 0 0.053 0.001 0 0.054 0.001 0 0.055 0.001 0 0.056 0.001 0 0.057 0.001 0 0.058 0.001 0 0.059 0.001 0 0.06 0.001 0 0.061 0.001 0 0.062 0.001 0 0.063 0.001 0 0.064 0.001 0 0.065 0.001 0 0.066 0.001 0 0.067 0.001 0 0.068 0.001 0 0.069 0.001 0 0.07 0.001 0 0 0.002 0 0.001 0.002 0 0.002 0.002 0 0.003 0.002 0 0.004 0.002 0 0.005 0.002 0 0.006 0.002 0 0.007 0.002 0 0.008 0.002 0 0.009 0.002 0 0.01 0.002 0 0.011 0.002 0 0.012 0.002 0 0.013 0.002 0 0.014 0.002 0 0.015 0.002 0 0.016 0.002 0 0.017 0.002 0 0.018 0.002 0 0.019 0.002 0 0.02 0.002 0 0.021 0.002 0 0.022 0.002 0 0.023 0.002 0 0.024 0.002 0 0.025 0.002 0 0.026 0.002 0 0.027 0.002 0 0.028 0.002 0 0.029 0.002 0 0.03 0.002 0 0.031 0.002 0 0.032 0.002 0 0.033 0.002 0 0.034 0.002 0 0.035 0.002 0 0.036 0.002 0 0.037 0.002 0 0.038 0.002 0 0.039 0.002 0 0.04 0.002 0 0.041 0.002 0 0.042 0.002 0 0.043 0.002 0 0.044 0.002 0 0.045 0.002 0 0.046 0.002 0 0.047 0.002 0 0.048 0.002 0 0.049 0.002 0 0.05 0.002 0 0.051 0.002 0 0.052 0.002 0 0.053 0.002 0 0.054 0.002 0 0.055 0.002 0 0.056 0.002 0 0.057 0.002 0 0.058 0.002 0 0.059 0.002 0 0.06 0.002 0 0.061 0.002 0 0.062 0.002 0 0.063 0.002 0 0.064 0.002 0 0.065 0.002 0 0.066 0.002 0 0.067 0.002 0 0.068 0.002 0 0.069 0.002 0 0.07 0.002 0 0 0.003 0 0.001 0.003 0 0.002 0.003 0 0.003 0.003 0 0.004 0.003 0 0.005 0.003 0 0.006 0.003 0 0.007 0.003 0 0.008 0.003 0 0.009 0.003 0 0.01 0.003 0 0.011 0.003 0 0.012 0.003 0 0.013 0.003 0 0.014 0.003 0 0.015 0.003 0 0.016 0.003 0 0.017 0.003 0 0.018 0.003 0 0.019 0.003 0 0.02 0.003 0 0.021 0.003 0 0.022 0.003 0 0.023 0.003 0 0.024 0.003 0 0.025 0.003 0 0.026 0.003 0 0.027 0.003 0 0.028 0.003 0 0.029 0.003 0 0.03 0.003 0 0.031 0.003 0 0.032 0.003 0 0.033 0.003 0 0.034 0.003 0 0.035 0.003 0 0.036 0.003 0 0.037 0.003 0 0.038 0.003 0 0.039 0.003 0 0.04 0.003 0 0.041 0.003 0 0.042 0.003 0 0.043 0.003 0 0.044 0.003 0 0.045 0.003 0 0.046 0.003 0 0.047 0.003 0 0.048 0.003 0 0.049 0.003 0 0.05 0.003 0 0.051 0.003 0 0.052 0.003 0 0.053 0.003 0 0.054 0.003 0 0.055 0.003 0 0.056 0.003 0 0.057 0.003 0 0.058 0.003 0 0.059 0.003 0 0.06 0.003 0 0.061 0.003 0 0.062 0.003 0 0.063 0.003 0 0.064 0.003 0 0.065 0.003 0 0.066 0.003 0 0.067 0.003 0 0.068 0.003 0 0.069 0.003 0 0.07 0.003 0 0 0.004 0 0.001 0.004 0 0.002 0.004 0 0.003 0.004 0 0.004 0.004 0 0.005 0.004 0 0.006 0.004 0 0.007 0.004 0 0.008 0.004 0 0.009 0.004 0 0.01 0.004 0 0.011 0.004 0 0.012 0.004 0 0.013 0.004 0 0.014 0.004 0 0.015 0.004 0 0.016 0.004 0 0.017 0.004 0 0.018 0.004 0 0.019 0.004 0 0.02 0.004 0 0.021 0.004 0 0.022 0.004 0 0.023 0.004 0 0.024 0.004 0 0.025 0.004 0 0.026 0.004 0 0.027 0.004 0 0.028 0.004 0 0.029 0.004 0 0.03 0.004 0 0.031 0.004 0 0.032 0.004 0 0.033 0.004 0 0.034 0.004 0 0.035 0.004 0 0.036 0.004 0 0.037 0.004 0 0.038 0.004 0 0.039 0.004 0 0.04 0.004 0 0.041 0.004 0 0.042 0.004 0 0.043 0.004 0 0.044 0.004 0 0.045 0.004 0 0.046 0.004 0 0.047 0.004 0 0.048 0.004 0 0.049 0.004 0 0.05 0.004 0 0.051 0.004 0 0.052 0.004 0 0.053 0.004 0 0.054 0.004 0 0.055 0.004 0 0.056 0.004 0 0.057 0.004 0 0.058 0.004 0 0.059 0.004 0 0.06 0.004 0 0.061 0.004 0 0.062 0.004 0 0.063 0.004 0 0.064 0.004 0 0.065 0.004 0 0.066 0.004 0 0.067 0.004 0 0.068 0.004 0 0.069 0.004 0 0.07 0.004 0 0 0.005 0 0.001 0.005 0 0.002 0.005 0 0.003 0.005 0 0.004 0.005 0 0.005 0.005 0 0.006 0.005 0 0.007 0.005 0 0.008 0.005 0 0.009 0.005 0 0.01 0.005 0 0.011 0.005 0 0.012 0.005 0 0.013 0.005 0 0.014 0.005 0 0.015 0.005 0 0.016 0.005 0 0.017 0.005 0 0.018 0.005 0 0.019 0.005 0 0.02 0.005 0 0.021 0.005 0 0.022 0.005 0 0.023 0.005 0 0.024 0.005 0 0.025 0.005 0 0.026 0.005 0 0.027 0.005 0 0.028 0.005 0 0.029 0.005 0 0.03 0.005 0 0.031 0.005 0 0.032 0.005 0 0.033 0.005 0 0.034 0.005 0 0.035 0.005 0 0.036 0.005 0 0.037 0.005 0 0.038 0.005 0 0.039 0.005 0 0.04 0.005 0 0.041 0.005 0 0.042 0.005 0 0.043 0.005 0 0.044 0.005 0 0.045 0.005 0 0.046 0.005 0 0.047 0.005 0 0.048 0.005 0 0.049 0.005 0 0.05 0.005 0 0.051 0.005 0 0.052 0.005 0 0.053 0.005 0 0.054 0.005 0 0.055 0.005 0 0.056 0.005 0 0.057 0.005 0 0.058 0.005 0 0.059 0.005 0 0.06 0.005 0 0.061 0.005 0 0.062 0.005 0 0.063 0.005 0 0.064 0.005 0 0.065 0.005 0 0.066 0.005 0 0.067 0.005 0 0.068 0.005 0 0.069 0.005 0 0.07 0.005 0 0 0.006 0 0.001 0.006 0 0.002 0.006 0 0.003 0.006 0 0.004 0.006 0 0.005 0.006 0 0.006 0.006 0 0.007 0.006 0 0.008 0.006 0 0.009 0.006 0 0.01 0.006 0 0.011 0.006 0 0.012 0.006 0 0.013 0.006 0 0.014 0.006 0 0.015 0.006 0 0.016 0.006 0 0.017 0.006 0 0.018 0.006 0 0.019 0.006 0 0.02 0.006 0 0.021 0.006 0 0.022 0.006 0 0.023 0.006 0 0.024 0.006 0 0.025 0.006 0 0.026 0.006 0 0.027 0.006 0 0.028 0.006 0 0.029 0.006 0 0.03 0.006 0 0.031 0.006 0 0.032 0.006 0 0.033 0.006 0 0.034 0.006 0 0.035 0.006 0 0.036 0.006 0 0.037 0.006 0 0.038 0.006 0 0.039 0.006 0 0.04 0.006 0 0.041 0.006 0 0.042 0.006 0 0.043 0.006 0 0.044 0.006 0 0.045 0.006 0 0.046 0.006 0 0.047 0.006 0 0.048 0.006 0 0.049 0.006 0 0.05 0.006 0 0.051 0.006 0 0.052 0.006 0 0.053 0.006 0 0.054 0.006 0 0.055 0.006 0 0.056 0.006 0 0.057 0.006 0 0.058 0.006 0 0.059 0.006 0 0.06 0.006 0 0.061 0.006 0 0.062 0.006 0 0.063 0.006 0 0.064 0.006 0 0.065 0.006 0 0.066 0.006 0 0.067 0.006 0 0.068 0.006 0 0.069 0.006 0 0.07 0.006 0 0 0.007 0 0.001 0.007 0 0.002 0.007 0 0.003 0.007 0 0.004 0.007 0 0.005 0.007 0 0.006 0.007 0 0.007 0.007 0 0.008 0.007 0 0.009 0.007 0 0.01 0.007 0 0.011 0.007 0 0.012 0.007 0 0.013 0.007 0 0.014 0.007 0 0.015 0.007 0 0.016 0.007 0 0.017 0.007 0 0.018 0.007 0 0.019 0.007 0 0.02 0.007 0 0.021 0.007 0 0.022 0.007 0 0.023 0.007 0 0.024 0.007 0 0.025 0.007 0 0.026 0.007 0 0.027 0.007 0 0.028 0.007 0 0.029 0.007 0 0.03 0.007 0 0.031 0.007 0 0.032 0.007 0 0.033 0.007 0 0.034 0.007 0 0.035 0.007 0 0.036 0.007 0 0.037 0.007 0 0.038 0.007 0 0.039 0.007 0 0.04 0.007 0 0.041 0.007 0 0.042 0.007 0 0.043 0.007 0 0.044 0.007 0 0.045 0.007 0 0.046 0.007 0 0.047 0.007 0 0.048 0.007 0 0.049 0.007 0 0.05 0.007 0 0.051 0.007 0 0.052 0.007 0 0.053 0.007 0 0.054 0.007 0 0.055 0.007 0 0.056 0.007 0 0.057 0.007 0 0.058 0.007 0 0.059 0.007 0 0.06 0.007 0 0.061 0.007 0 0.062 0.007 0 0.063 0.007 0 0.064 0.007 0 0.065 0.007 0 0.066 0.007 0 0.067 0.007 0 0.068 0.007 0 0.069 0.007 0 0.07 0.007 0 0 0.008 0 0.001 0.008 0 0.002 0.008 0 0.003 0.008 0 0.004 0.008 0 0.005 0.008 0 0.006 0.008 0 0.007 0.008 0 0.008 0.008 0 0.009 0.008 0 0.01 0.008 0 0.011 0.008 0 0.012 0.008 0 0.013 0.008 0 0.014 0.008 0 0.015 0.008 0 0.016 0.008 0 0.017 0.008 0 0.018 0.008 0 0.019 0.008 0 0.02 0.008 0 0.021 0.008 0 0.022 0.008 0 0.023 0.008 0 0.024 0.008 0 0.025 0.008 0 0.026 0.008 0 0.027 0.008 0 0.028 0.008 0 0.029 0.008 0 0.03 0.008 0 0.031 0.008 0 0.032 0.008 0 0.033 0.008 0 0.034 0.008 0 0.035 0.008 0 0.036 0.008 0 0.037 0.008 0 0.038 0.008 0 0.039 0.008 0 0.04 0.008 0 0.041 0.008 0 0.042 0.008 0 0.043 0.008 0 0.044 0.008 0 0.045 0.008 0 0.046 0.008 0 0.047 0.008 0 0.048 0.008 0 0.049 0.008 0 0.05 0.008 0 0.051 0.008 0 0.052 0.008 0 0.053 0.008 0 0.054 0.008 0 0.055 0.008 0 0.056 0.008 0 0.057 0.008 0 0.058 0.008 0 0.059 0.008 0 0.06 0.008 0 0.061 0.008 0 0.062 0.008 0 0.063 0.008 0 0.064 0.008 0 0.065 0.008 0 0.066 0.008 0 0.067 0.008 0 0.068 0.008 0 0.069 0.008 0 0.07 0.008 0 0 0.009 0 0.001 0.009 0 0.002 0.009 0 0.003 0.009 0 0.004 0.009 0 0.005 0.009 0 0.006 0.009 0 0.007 0.009 0 0.008 0.009 0 0.009 0.009 0 0.01 0.009 0 0.011 0.009 0 0.012 0.009 0 0.013 0.009 0 0.014 0.009 0 0.015 0.009 0 0.016 0.009 0 0.017 0.009 0 0.018 0.009 0 0.019 0.009 0 0.02 0.009 0 0.021 0.009 0 0.022 0.009 0 0.023 0.009 0 0.024 0.009 0 0.025 0.009 0 0.026 0.009 0 0.027 0.009 0 0.028 0.009 0 0.029 0.009 0 0.03 0.009 0 0.031 0.009 0 0.032 0.009 0 0.033 0.009 0 0.034 0.009 0 0.035 0.009 0 0.036 0.009 0 0.037 0.009 0 0.038 0.009 0 0.039 0.009 0 0.04 0.009 0 0.041 0.009 0 0.042 0.009 0 0.043 0.009 0 0.044 0.009 0 0.045 0.009 0 0.046 0.009 0 0.047 0.009 0 0.048 0.009 0 0.049 0.009 0 0.05 0.009 0 0.051 0.009 0 0.052 0.009 0 0.053 0.009 0 0.054 0.009 0 0.055 0.009 0 0.056 0.009 0 0.057 0.009 0 0.058 0.009 0 0.059 0.009 0 0.06 0.009 0 0.061 0.009 0 0.062 0.009 0 0.063 0.009 0 0.064 0.009 0 0.065 0.009 0 0.066 0.009 0 0.067 0.009 0 0.068 0.009 0 0.069 0.009 0 0.07 0.009 0 0 0.01 0 0.001 0.01 0 0.002 0.01 0 0.003 0.01 0 0.004 0.01 0 0.005 0.01 0 0.006 0.01 0 0.007 0.01 0 0.008 0.01 0 0.009 0.01 0 0.01 0.01 0 0.011 0.01 0 0.012 0.01 0 0.013 0.01 0 0.014 0.01 0 0.015 0.01 0 0.016 0.01 0 0.017 0.01 0 0.018 0.01 0 0.019 0.01 0 0.02
[...]
			<CellData Scalars="Density">
				<DataArray Name="Density" type="Float32" format="ascii">
 0.390275 0.390291 0.393835 0.397758 0.402996 0.409196 0.416403 0.424496 0.433452 0.4432 0.453619 0.464571 0.47577 0.486838 0.497199 0.506475 0.514506 0.522231 0.528267 0.534696 1.29476 2.39703 2.74847 2.77604 2.73375 2.53594 2.10556 1.57453 1.11624 1.01604 1.00201 1.00024 1.00003 1 1 1 1 1 1 1 1 1 1 1 1 1 1 1 1 1 1 1 1 1 1 1 1 1 1 1 1 1 1 1 1 1 1 1 1 1 0.389092 0.389163 0.391872 0.39556 0.400226 0.406004 0.41277 0.420416 0.428976 0.438374 0.448543 0.459324 0.470441 0.481422 0.491791 0.501076 0.509232 0.517188 0.524768 0.531325 1.30118 2.39393 2.73942 2.76766 2.7268 2.53223 2.10494 1.57517 1.11639 1.01604 1.002 1.00024 1.00003 1.00001 1 1 1 1 1 1 1 1 1 1 1 1 1 1 1 1 1 1 1 1 1 1 1 1 1 1 1 1 1 1 1 1 1 1 1 1 0.388078 0.387832 0.391102 0.395378 0.400468 0.406675 0.413921 0.422093 0.431226 0.441157 0.4517 0.462689 0.473997 0.485116 0.495566 0.50467 0.513626 0.519877 0.526207 0.533457 1.30941 2.39892 2.73529 2.76362 2.72171 2.5266 2.10069 1.57276 1.11605 1.01605 1.00201 1.00027 1.00005 1.00001 1 1 1 1 1 1 1 1 1 1 1 1 1 1 1 1 1 1 1 1 1 1 1 1 1 1 1 1 1 1 1 1 1 1 1 1 0.386748 0.386288 0.389615 0.393527 0.398243 0.404066 0.41111 0.419274 0.428129 0.437618 0.447785 0.458471 0.469461 0.480385 0.490681 0.499929 0.508281 0.516367 0.523205 0.531151 1.32119 2.40275 2.73153 2.76 2.71785 2.52139 2.09618 1.57111 1.11551 1.01597 1.00227 1.00042 1.00011 1.00004 1.00002 1.00001 1 1 1 1 1 1 1 1 1 1 1 1 1 1 1 1 1 1 1 1 1 1 1 1 1 1 1 1 1 1 1 1 1 1 0.384619 0.384154 0.387489 0.391556 0.396565 0.403081 0.410524 0.418633 0.427466 0.437304 0.447798 0.458909 0.470342 0.481526 0.492098 0.501412 0.509495 0.516833 0.52446 0.532993 1.35237 2.43424 2.75348 2.78305 2.73173 2.5316 2.10603 1.56059 1.11406 1.01869 1.0038 1.00106 1.00042 1.0002 1.0001 1.00005 1.00002 1.00001 1.00001 1 1 1 1 1 1 1 1 1 1 1 1 1 1 1 1 1 1 1 1 1 1 1 1 1 1 1 1 1 1 1 0.382546 0.381618 0.385044 0.389084 0.394384 0.400562 0.407448 0.415411 0.424309 0.433913 0.444342 0.455309 0.466479 0.477611 0.488191 0.497484 0.505789 0.513736 0.522447 0.531834 1.40543 2.48279 2.80409 2.85763 2.8168 2.60797 2.14966 1.58925 1.14958 1.0338 1.00965 1.00372 1.00183 1.00093 1.00048 1.00024 1.00011 1.00006 1.00003 1.00001 1.00001 1 1 1 1 1 1 1 1 1 1 1 1 1 1 1 1 1 1 1 1 1 1 1 1 1 1 1 1 1 0.379771 0.378861 0.382237 0.386598 0.3915 0.397458 0.404674 0.412757 0.421523 0.431351 0.441805 0.452514 0.463651 0.474581 0.484553 0.493742 0.502107 0.509731 0.518371 0.528006 1.48742 2.54125 2.84972 2.93228 2.9207 2.73075 2.32949 1.80193 1.27824 1.0792 1.03053 1.01489 1.00812 1.0043 1.00231 1.00116 1.00057 1.00029 1.00014 1.00006 1.00003 1.00001 1.00001 1 1 1 1 1 1 1 1 1 1 1 1 1 1 1 1 1 1 1 1 1 1 1 1 1 1 1 0.377089 0.375972 0.379559 0.383263 0.388261 0.394553 0.40148 0.409206 0.418124 0.42777 0.437694 0.448469 0.459439 0.469761 0.479887 0.489077 0.496797 0.504277 0.513409 0.553836 1.59778 2.60174 2.86599 2.96822 2.9719 2.84934 2.52322 2.02898 1.49329 1.21893 1.11069 1.06298 1.03651 1.02002 1.01082 1.0055 1.00288 1.00147 1.00069 1.00033 1.00015 1.00007 1.00003 1.00001 1.00001 1 1 1 1 1 1 1 1 1 1 1 1 1 1 1 1 1 1 1 1 1 1 1 1 1 0.374082 0.37289 0.375987 0.380106 0.385333 0.390983 0.397728 0.405789 0.414472 0.423555 0.433671 0.444224 0.454447 0.46492 0.474739 0.482922 0.490467 0.498139 0.506225 0.6305 1.70013 2.61057 2.79795 2.92193 2.9593 2.89189 2.62059 2.19514 1.73561 1.46663 1.3286 1.24156 1.15559 1.08929 1.04919 1.02615 1.01399 1.0071 1.00347 1.0017 1.0008 1.00036 1.00017 1.00007 1.00003 1.00001 1 1 1 1 1 1 1 1 1 1 1 1 1 1 1 1 1 1 1 1 1 1 1 1 0.370979 0.369587 0.372987 0.377053 0.381527 0.387237 0.394329 0.401905 0.410084 0.419445 0.429309 0.439106 0.449556 0.459661 0.4684 0.476608 0.484192 0.490355 0.497106 0.716624 1.80306 2.57672 2.71554 2.85233 2.85693 2.77007 2.55077 2.21103 1.88807 1.69348 1.58237 1.51236 1.42002 1.31605 1.20997 1.12229 1.06656 1.0346 1.01736 1.0087 1.00422 1.00192 1.0009 1.00039 1.00016 1.00007 1.00003 1.00001 1 1 1 1 1 1 1 1 1 1 1 1 1 1 1 1 1 1 1 1 1 1 0.367815 0.366403 0.369634 0.373195 0.377917 0.383934 0.390355 0.39754 0.406061 0.41508 0.424183 0.434258 0.444367 0.453374 0.46226 0.470295 0.476503 0.48158 0.486752 0.801513 1.89307 2.48642 2.58389 2.6762 2.65353 2.53468 2.33502 2.09431 1.9001 1.79642 1.74131 1.70576 1.64592 1.57192 1.48109 1.37228 1.25624 1.15327 1.0827 1.04333 1.02126 1.01003 1.00479 1.00209 1.00091 1.0004 1.00014 1.00005 1.00002 1.00001 1 1 1 1 1 1 1 1 1 1 1 1 1 1 1 1 1 1 1 1 0.364501 0.362889 0.366075 0.369781 0.374673 0.379937 0.38605 0.393644 0.401747 0.410006 0.419451 0.429262 0.438325 0.447639 0.456251 0.462844 0.46836 0.472436 0.475286 0.869813 1.93241 2.36648 2.39457 2.40717 2.33575 2.08563 1.81262 1.65742 1.62739 1.6687 1.7379 1.78765 1.78928 1.76473 1.71715 1.6421 1.54856 1.43585 1.30743 1.18781 1.10015 1.05018 1.02487 1.01144 1.00521 1.00215 1.00079 1.0003 1.00012 1.00003 1.00001 1 1 1 1 1 1 1 1 1 1 1 1 1 1 1 1 1 1 1 0.361225 0.359509 0.362816 0.366476 0.37075 0.375811 0.38238 0.389482 0.396816 0.40547 0.414715 0.423456 0.432854 0.442013 0.449442 0.455637 0.460416 0.463366 0.461618 0.89258 1.90174 2.22614 2.17999 2.04225 1.53889 1.09414 0.779228 0.675665 0.69589 0.788343 0.933532 1.11212 1.24067 1.39167 1.54991 1.65375 1.70056 1.69707 1.62079 1.50217 1.36472 1.22605 1.12231 1.06146 1.0287 1.01178 1.00456 1.00184 1.00059 1.00016 1.00005 1.00001 1 1 1 1 1 1 1 1 1 1 1 1 1 1 1 1 1 1 0.357916 0.356179 0.359322 0.362664 0.366825 0.372313 0.378354 0.384686 0.392482 0.400999 0.409154 0.418129 0.427489 0.435497 0.442714 0.448645 0.452316 0.453524 0.450117 0.798764 1.73293 2.05284 1.8815 1.39556 0.852287 0.338612 0.168393 0.167996 0.170279 0.173392 0.177645 0.197737 0.272492 0.390002 0.556992 0.723397 0.888025 1.06505 1.26001 1.36221 1.4156 1.41357 1.35467 1.24973 1.13589 1.06175 1.02789 1.01076 1.00353 1.00104 1.00027 1.00007 1.00002 1.00001 1 1 1 1 1 1 1 1 1 1 1 1 1 1 1 1 0.354612 0.352754 0.355815 0.359164 0.363478 0.368521 0.37382 0.380633 0.388304 0.395731 0.404067 0.413122 0.421305 0.429259 0.436451 0.441569 0.444137 0.444313 0.439154 0.729607 1.62373 1.90512 1.63911 1.06148 0.517515 0.182128 0.185281 0.212601 0.223919 0.221477 0.202519 0.185237 0.184488 0.187266 0.189389 0.191273 0.193461 0.196257 0.223171 0.36534 0.504681 0.633709 0.764795 0.885887 0.976186 1.01856 1.02263 1.01686 1.00836 1.00265 1.00073 1.0002 1.00007 1.00001 1 1 1 1 1 1 1 1 1 1 1 1 1 1 1 1 0.351323 0.349338 0.352524 0.355753 0.359851 0.364204 0.369958 0.376674 0.383248 0.390849 0.399356 0.407262 0.415439 0.423494 0.430119 0.434932 0.436446 0.436196 0.429196 0.425399 1.06302 1.67023 1.5886 1.21292 0.859178 0.592191 0.462727 0.32076 0.30536 0.323238 0.309047 0.236754 0.187178 0.187874 0.190184 0.192072 0.193876 0.194702 0.195221 0.194454 0.193682 0.192081 0.188387 0.181428 0.170942 0.155667 0.136853 0.11952 0.107133 0.101948 0.100523 0.100135 0.100034 0.100008 0.100002 0.1 0.1 0.1 0.1 0.1 0.1 0.1 0.1 0.1 0.1 0.1 0.1 0.1 0.1 0.1 0.348031 0.346038 0.34914 0.352261 0.355841 0.360608 0.366339 0.371925 0.378646 0.386442 0.393807 0.401696 0.410078 0.417408 0.423784 0.428484 0.430685 0.428163 0.421768 0.412161 0.444103 0.809941 1.07242 1.02094 0.8262 0.656312 0.495054 0.382932 0.330882 0.334899 0.339294 0.269018 0.197729 0.188937 0.191007 0.192814 0.194597 0.195912 0.19634 0.19615 0.19503 0.192887 0.18947 0.183824 0.174505 0.161478 0.145229 0.126811 0.110666 0.103158 0.100854 0.100223 0.100055 0.100013 0.100003 0.100001 0.1 0.1 0.1 0.1 0.1 0.1 0.1 0.1 0.1 0.1 0.1 0.1 0.1 0.1 0.344805 0.342711 0.345642 0.348621 0.352442 0.357178 0.361784 0.367583 0.374521 0.381153 0.388497 0.396629 0.404043 0.411267 0.417948 0.422638 0.424701 0.423019 0.417073 0.407868 0.397092 0.385048 0.44848 0.450441 0.425617 0.379345 0.3421 0.337494 0.339314 0.341674 0.34495 0.271906 0.197866 0.189941 0.191496 0.192976 0.194296 0.195416 0.195668 0.195445 0.194199 0.191931 0.188503 0.183584 0.176401 0.16621 0.152073 0.134021 0.115772 0.104815 0.101288 0.100329 0.10008 0.100019 0.100004 0.100001 0.1 0.1 0.1 0.1 0.1 0.1 0.1 0.1 0.1 0.1 0.1 0.1 0.1 0.1 0.341564 0.339357 0.342258 0.345463 0.349112 0.352855 0.357781 0.363815 0.369541 0.376151 0.383736 0.390804 0.398136 0.405513 0.412045 0.4165 0.418866 0.418639 0.414467 0.408221 0.39998 0.389425 0.37895 0.368375 0.359999 0.353557 0.349686 0.346992 0.347317 0.348431 0.343127 0.258232 0.193631 0.190831 0.19206 0.193226 0.194371 0.195062 0.195163 0.194819 0.193903 0.192119 0.189208 0.185157 0.17924 0.170494 0.157795 0.140216 0.120861 0.10657 0.101739 0.100426 0.100099 0.100022 0.100005 0.100001 0.1 0.1 0.1 0.1 0.1 0.1 0.1 0.1 0.1 0.1 0.1 0.1 0.1 0.1 0.338362 0.336081 0.339147 0.341968 0.345089 0.349206 0.354266 0.359099 0.36487 0.371726 0.378188 0.385204 0.392681 0.399519 0.405835 0.41055 0.413037 0.413978 0.411501 0.407159 0.400709 0.393055 0.385052 0.376886 0.369522 0.363476 0.359054 0.355539 0.354307 0.353932 0.330281 0.238731 0.190697 0.191722 0.192625 0.193756 0.194515 0.194775 0.194718 0.194198 0.193274 0.191766 0.189394 0.186145 0.181276 0.173743 0.162128 0.144982 0.125482 0.108598 0.102197 0.100521 0.100117 0.100025 0.100005 0.100001 0.1 0.1 0.1 0.1 0.1 0.1 0.1 0.1 0.1 0.1 0.1 0.1 0.1 0.1 0.335199 0.332847 0.33577 0.338316 0.341779 0.345794 0.349836 0.354775 0.360809 0.366521 0.372941 0.380118 0.386737 0.393405 0.399633 0.405114 0.407366 0.408741 0.408167 0.405793 0.401479 0.396112 0.389994 0.383656 0.377274 0.371641 0.366667 0.36256 0.360096 0.358174 0.315885 0.225549 0.191735 0.192551 0.193279 0.194128 0.194713 0.194903 0.194837 0.19434 0.193402 0.191957 0.189865 0.187143 0.183032 0.176623 0.16617 0.149613 0.129658 0.110555 0.102624 0.100606 0.100133 0.100028 0.100006 0.100001 0.1 0.1 0.1 0.1 0.1 0.1 0.1 0.1 0.1 0.1 0.1 0.1 0.1 0.1 0.332059 0.329621 0.33226 0.335109 0.338373 0.341713 0.345901 0.351048 0.355991 0.361659 0.36826 0.374494 0.381069 0.387763 0.393807 0.398977 0.402037 0.403857 0.404539 0.403739 0.401422 0.397766 0.393332 0.388238 0.382797 0.37745 0.372412 0.367868 0.364431 0.361689 0.299569 0.214239 0.192642 0.193249 0.193845 0.194466 0.194874 0.194911 0.194676 0.19409 0.193161 0.191871 0.190166 0.188047 0.184545 0.17892 0.169174 0.153283 0.133161 0.112609 0.103102 0.100702 0.100151 0.100031 0.100006 0.100001 0.1 0.1 0.1 0.1 0.1 0.1 0.1 0.1 0.1 0.1 0.1 0.1 0.1 0.1 0.328906 0.326357 0.329094 0.332005 0.334621 0.338062 0.342293 0.346616 0.351472 0.357414 0.363092 0.369314 0.375966 0.381949 0.388411 0.393212 0.397057 0.39953 0.401346 0.401708 0.400922 0.398692 0.395344 0.391154 0.386463 0.381607 0.376612 0.37019 0.366671 0.361385 0.27888 0.204366 0.193447 0.193848 0.194261 0.194633 0.194802 0.194706 0.19439 0.193783 0.192951 0.191929 0.190587 0.18891 0.185917 0.181101 0.171959 0.15674 0.136423 0.114681 0.103568 0.100788 0.100165 0.100034 0.100007 0.100001 0.1 0.1 0.1 0.1 0.1 0.1 0.1 0.1 0.1 0.1 0.1 0.1 0.1 0.1 0.325855 0.323257 0.326129 0.328442 0.331161 0.334718 0.338413 0.342522 0.347655 0.352782 0.358333 0.364728 0.370711 0.377316 0.38383 0.388448 0.392758 0.396252 0.398931 0.400249 0.400352 0.399217 0.3967 0.393385 0.389445 0.384819 0.378402 0.37199 0.367293 0.352769 0.268079 0.199816 0.194101 0.194311 0.194551 0.19468 0.194681 0.1944 0.19401 0.193427 0.192755 0.191985 0.190945 0.189631 0.186953 0.182658 0.174047 0.159627 0.139179 0.116583 0.104011 0.10087 0.100179 0.100036 0.100007 0.100001 0.1 0.1 0.1 0.1 0.1 0.1 0.1 0.1 0.1 0.1 0.1 0.1 0.1 0.1 0.322895 0.320312 0.32291 0.325181 0.328197 0.331255 0.334674 0.339014 0.343647 0.348472 0.354292 0.360086 0.366204 0.373657 0.378938 0.384621 0.389555 0.3937 0.39695 0.399086 0.399973 0.39968 0.397896 0.395316 0.391621 0.385786 0.379854 0.373819 0.368918 0.343404 0.256968 0.196789 0.194736 0.194781 0.194849 0.194842 0.194711 0.194368 0.193941 0.193359 0.192769 0.192124 0.19125 0.190196 0.187876 0.184175 0.175976 0.162057 0.141448 0.118311 0.104423 0.10094 0.100189 0.100037 0.100007 0.100001 0.1 0.1 0.1 0.1 0.1 0.1 0.1 0.1 0.1 0.1 0.1 0.1 0.1 0.1 0.32012 0.317468 0.319896 0.322419 0.325033 0.327907 0.331519 0.33565 0.339884 0.345047 0.35039 0.356073 0.362526 0.368899 0.375152 0.381446 0.387042 0.391646 0.39532 0.397929 0.399361 0.399632 0.398608 0.39633 0.392361 0.387062 0.381405 0.37585 0.371083 0.335444 0.247641 0.19585 0.195325 0.195241 0.195189 0.195041 0.194784 0.194339 0.193869 0.193289 0.192769 0.192228 0.191511 0.190665 0.188546 0.185156 0.177315 0.164089 0.143531 0.119894 0.104771 0.100997 0.100198 0.100038 0.100007 0.100001 0.1 0.1 0.1 0.1 0.1 0.1 0.1 0.1 0.1 0.1 0.1 0.1 0.1 0.1 0.317576 0.314955 0.317415 0.319764 0.322181 0.325195 0.328747 0.33251 0.336915 0.341802 0.346927 0.352865 0.358966 0.365313 0.372022 0.378473 0.385088 0.389864 0.393989 0.397114 0.399711 0.400388 0.399582 0.397579 0.393687 0.388687 0.383257 0.377844 0.373193 0.327683 0.238762 0.196155 0.195874 0.195706 0.195507 0.195247 0.194926 0.194452 0.193952 0.193365 0.192875 0.192336 0.191661 0.190967 0.189144 0.186229 0.178779 0.165873 0.145066 0.121032 0.105028 0.101034 0.100202 0.100039 0.100007 0.100001 0.1 0.1 0.1 0.1 0.1 0.1 0.1 0.1 0.1 0.1 0.1 0.1 0.1 0.1 0.315355 0.312906 0.315244 0.317511 0.319943 0.322946 0.326336 0.329988 0.334406 0.339041 0.34438 0.350008 0.356022 0.362507 0.369032 0.375619 0.382065 0.387749 0.392593 0.396573 0.399671 0.401096 0.400449 0.398639 0.3951 0.390242 0.384971 0.379827 0.375065 0.322772 0.233884 0.196689 0.196334 0.196084 0.195835 0.195536 0.195124 0.194548 0.19395 0.193291 0.192773 0.192293 0.191805 0.191325 0.189621 0.186809 0.179429 0.166855 0.146191 0.121964 0.10522 0.101058 0.100204 0.100039 0.100007 0.100001 0.1 0.1 0.1 0.1 0.1 0.1 0.1 0.1 0.1 0.1 0.1 0.1 0.1 0.1 0.313992 0.311629 0.313729 0.315852 0.318348 0.321345 0.324559 0.328369 0.332728 0.33756 0.343047 0.348979 0.355517 0.362307 0.369429 0.376719 0.383651 0.390034 0.395293 0.399337 0.401799 0.402497 0.401796 0.399709 0.396428 0.391795 0.386702 0.381516 0.376766 0.318671 0.230172 0.197125 0.196697 0.196442 0.196104 0.195677 0.195169 0.194568 0.193977 0.193353 0.192849 0.192397 0.191898 0.191328 0.189726 0.187175 0.180215 0.168019 0.1472 0.122533 0.105289 0.101065 0.100205 0.100039 0.100007 0.100001 0.1 0.1 0.1 0.1 0.1 0.1 0.1 0.1 0.1 0.1 0.1 0.1 0.1 0.1 0.312475 0.310257 0.311997 0.314079 0.316466 0.319131 0.322243 0.325849 0.330001 0.334691 0.339896 0.345588 0.351704 0.358179 0.364971 0.371895 0.378723 0.385134 0.390773 0.395276 0.398355 0.399811 0.3997 0.398013 0.395536 0.391618 0.386954 0.382003 0.37786 0.314668 0.227252 0.197511 0.197126 0.196658 0.196235 0.195785 0.195271 0.194679 0.194066 0.193421 0.19283 0.192316 0.19192 0.191472 0.190105 0.187677 0.180737 0.168435 0.147389 0.122591 0.105303 0.101067 0.100205 0.100039 0.100007 0.100001 0.1 0.1 0.1 0.1 0.1 0.1 0.1 0.1 0.1 0.1 0.1 0.1 0.1 0.1
				</DataArray>
				<DataArray Name="Energy" type="Float32" format="ascii">