<?xml version="1.0"?>
<VTKFile type="PolyData">
	<PolyData>
		<Piece NumberOfPoints="2201" NumberOfPolys="2100">
			<Points>
				<DataArray type="Float32" NumberOfComponents="3" format="ascii">
 0 0 0 0.001 0 0 0.002 0 0 0.003 0 0 0.004 0 0 0.005 0 0 0.006 0 0 0.007 0 0 0.008 0 0 0.009 0 0 0.01 0 0 0.011 0 0 0.012 0 0 0.013 0 0 0.014 0 0 0.015 0 0 0.016 0 0 0.017 0 0 0.018 0 0 0.019 0 0 0.02 0 0 0.021 0 0 0.022 0 0 0.023 0 0 0.024 0 0 0.025 0 0 0.026 0 0 0.027 0 0 0.028 0 0 0.029 0 0 0.03 0 0 0.031 0 0 0.032 0 0 0.033 0 0 0.034 0 0 0.035 0 0 0.036 0 0 0.037 0 0 0.038 0 0 0.039 0 0 0.04 0 0 0.041 0 0 0.042 0 0 0.043 0 0 0.044 0 0 0.045 0 0 0.046 0 0 0.047 0 0 0.048 0 0 0.049 0 0 0.05 0 0 0.051 0 0 0.052 0 0 0.053 0 0 0.054 0 0 0.055 0 0 0.056 0 0 0.057 0 0 0.058 0 0 0.059 0 0 0.06 0 0 0.061 0 0 0.062 0 0 0.063 0 0 0.064 0 0 0.065 0 0 0.066 0 0 0.067 0 0 0.068 0 0 0.069 0 0 0.07 0 0 0 0.001 0 0.001 0.001 0 0.002 0.001 0 0.003 0.001 0 0.004 0.001 0 0.005 0.001 0 0.006 0.001 0 0.007 0.001 0 0.008 0.001 0 0.009 0.001 0 0.01 0.001 0 0.011 0.001 0 0.012 0.001 0 0.013 0.001 0 0.014 0.001 0 0.015 0.001 0 0.016 0.001 0 0.017 0.001 0 0.018 0.001 0 0.019 0.001 0 0.02 0.001 0 0.021 0.001 0 0.022 0.001 0 0.023 0.001 0 0.024 0.001 0 0.025 0.001 0 0.026 0.001 0 0.027 0.001 0 0.028 0.001 0 0.029 0.001 0 0.03 0.001 0 0.031 0.001 0 0.032 0.001 0 0.033 0.001 0 0.034 0.001 0 0.035 0.001 0 0.036 0.001 0 0.037 0.001 0 0.038 0.001 0 0.039 0.001 0 0.04 0.001 0 0.041 0.001 0 0.042 0.001 0 0.043 0.001 0 0.044 0.001 0 0.045 0.001 0 0.046 0.001 0 0.047 0.001 0 0.048 0.001 0 0.049 0.001 0 0.05 0.001 0 0.051 0.001 0 0.052 0.001 0 0.053 0.001 0 0.054 0.001 0 0.055 0.001 0 0.056 0.001 0 0.057 0.001 0 0.058 0.001 0 0.059 0.001 0 0.06 0.001 0 0.061 0.001 0 0.062 0.001 0 0.063 0.001 0 0.064 0.001 0 0.065 0.001 0 0.066 0.001 0 0.067 0.001 0 0.068 0.001 0 0.069 0.001 0 0.07 0.001 0 0 0.002 0 0.001 0.002 0 0.002 0.002 0 0.003 0.002 0 0.004 0.002 0 0.005 0.002 0 0.006 0.002 0 0.007 0.002 0 0.008 0.002 0 0.009 0.002 0 0.01 0.002 0 0.011 0.002 0 0.012 0.002 0 0.013 0.002 0 0.014 0.002 0 0.015 0.002 0 0.016 0.002 0 0.017 0.002 0 0.018 0.002 0 0.019 0.002 0 0.02 0.002 0 0.021 0.002 0 0.022 0.002 0 0.023 0.002 0 0.024 0.002 0 0.025 0.002 0 0.026 0.002 0 0.027 0.002 0 0.028 0.002 0 0.029 0.002 0 0.03 0.002 0 0.031 0.002 0 0.032 0.002 0 0.033 0.002 0 0.034 0.002 0 0.035 0.002 0 0.036 0.002 0 0.037 0.002 0 0.038 0.002 0 0.039 0.002 0 0.04 0.002 0 0.041 0.002 0 0.042 0.002 0 0.043 0.002 0 0.044 0.002 0 0.045 0.002 0 0.046 0.002 0 0.047 0.002 0 0.048 0.002 0 0.049 0.002 0 0.05 0.002 0 0.051 0.002 0 0.052 0.002 0 0.053 0.002 0 0.054 0.002 0 0.055 0.002 0 0.056 0.002 0 0.057 0.002 0 0.058 0.002 0 0.059 0.002 0 0.06 0.002 0 0.061 0.002 0 0.062 0.002 0 0.063 0.002 0 0.064 0.002 0 0.065 0.002 0 0.066 0.002 0 0.067 0.002 0 0.068 0.002 0 0.069 0.002 0 0.07 0.002 0 0 0.003 0 0.001 0.003 0 0.002 0.003 0 0.003 0.003 0 0.004 0.003 0 0.005 0.003 0 0.006 0.003 0 0.007 0.003 0 0.008 0.003 0 0.009 0.003 0 0.01 0.003 0 0.011 0.003 0 0.012 0.003 0 0.013 0.003 0 0.014 0.003 0 0.015 0.003 0 0.016 0.003 0 0.017 0.003 0 0.018 0.003 0 0.019 0.003 0 0.02 0.003 0 0.021 0.003 0 0.022 0.003 0 0.023 0.003 0 0.024 0.003 0 0.025 0.003 0 0.026 0.003 0 0.027 0.003 0 0.028 0.003 0 0.029 0.003 0 0.03 0.003 0 0.031 0.003 0 0.032 0.003 0 0.033 0.003 0 0.034 0.003 0 0.035 0.003 0 0.036 0.003 0 0.037 0.003 0 0.038 0.003 0 0.039 0.003 0 0.04 0.003 0 0.041 0.003 0 0.042 0.003 0 0.043 0.003 0 0.044 0.003 0 0.045 0.003 0 0.046 0.003 0 0.047 0.003 0 0.048 0.003 0 0.049 0.003 0 0.05 0.003 0 0.051 0.003 0 0.052 0.003 0 0.053 0.003 0 0.054 0.003 0 0.055 0.003 0 0.056 0.003 0 0.057 0.003 0 0.058 0.003 0 0.059 0.003 0 0.06 0.003 0 0.061 0.003 0 0.062 0.003 0 0.063 0.003 0 0.064 0.003 0 0.065 0.003 0 0.066 0.003 0 0.067 0.003 0 0.068 0.003 0 0.069 0.003 0 0.07 0.003 0 0 0.004 0 0.001 0.004 0 0.002 0.004 0 0.003 0.004 0 0.004 0.004 0 0.005 0.004 0 0.006 0.004 0 0.007 0.004 0 0.008 0.004 0 0.009 0.004 0 0.01 0.004 0 0.011 0.004 0 0.012 0.004 0 0.013 0.004 0 0.014 0.004 0 0.015 0.004 0 0.016 0.004 0 0.017 0.004 0 0.018 0.004 0 0.019 0.004 0 0.02 0.004 0 0.021 0.004 0 0.022 0.004 0 0.023 0.004 0 0.024 0.004 0 0.025 0.004 0 0.026 0.004 0 0.027 0.004 0 0.028 0.004 0 0.029 0.004 0 0.03 0.004 0 0.031 0.004 0 0.032 0.004 0 0.033 0.004 0 0.034 0.004 0 0.035 0.004 0 0.036 0.004 0 0.037 0.004 0 0.038 0.004 0 0.039 0.004 0 0.04 0.004 0 0.041 0.004 0 0.042 0.004 0 0.043 0.004 0 0.044 0.004 0 0.045 0.004 0 0.046 0.004 0 0.047 0.004 0 0.048 0.004 0 0.049 0.004 0 0.05 0.004 0 0.051 0.004 0 0.052 0.004 0 0.053 0.004 0 0.054 0.004 0 0.055 0.004 0 0.056 0.004 0 0.057 0.004 0 0.058 0.004 0 0.059 0.004 0 0.06 0.004 0 0.061 0.004 0 0.062 0.004 0 0.063 0.004 0 0.064 0.004 0 0.065 0.004 0 0.066 0.004 0 0.067 0.004 0 0.068 0.004 0 0.069 0.004 0 0.07 0.004 0 0 0.005 0 0.001 0.005 0 0.002 0.005 0 0.003 0.005 0 0.004 0.005 0 0.005 0.005 0 0.006 0.005 0 0.007 0.005 0 0.008 0.005 0 0.009 0.005 0 0.01 0.005 0 0.011 0.005 0 0.012 0.005 0 0.013 0.005 0 0.014 0.005 0 0.015 0.005 0 0.016 0.005 0 0.017 0.005 0 0.018 0.005 0 0.019 0.005 0 0.02 0.005 0 0.021 0.005 0 0.022 0.005 0 0.023 0.005 0 0.024 0.005 0 0.025 0.005 0 0.026 0.005 0 0.027 0.005 0 0.028 0.005 0 0.029 0.005 0 0.03 0.005 0 0.031 0.005 0 0.032 0.005 0 0.033 0.005 0 0.034 0.005 0 0.035 0.005 0 0.036 0.005 0 0.037 0.005 0 0.038 0.005 0 0.039 0.005 0 0.04 0.005 0 0.041 0.005 0 0.042 0.005 0 0.043 0.005 0 0.044 0.005 0 0.045 0.005 0 0.046 0.005 0 0.047 0.005 0 0.048 0.005 0 0.049 0.005 0 0.05 0.005 0 0.051 0.005 0 0.052 0.005 0 0.053 0.005 0 0.054 0.005 0 0.055 0.005 0 0.056 0.005 0 0.057 0.005 0 0.058 0.005 0 0.059 0.005 0 0.06 0.005 0 0.061 0.005 0 0.062 0.005 0 0.063 0.005 0 0.064 0.005 0 0.065 0.005 0 0.066 0.005 0 0.067 0.005 0 0.068 0.005 0 0.069 0.005 0 0.07 0.005 0 0 0.006 0 0.001 0.006 0 0.002 0.006 0 0.003 0.006 0 0.004 0.006 0 0.005 0.006 0 0.006 0.006 0 0.007 0.006 0 0.008 0.006 0 0.009 0.006 0 0.01 0.006 0 0.011 0.006 0 0.012 0.006 0 0.013 0.006 0 0.014 0.006 0 0.015 0.006 0 0.016 0.006 0 0.017 0.006 0 0.018 0.006 0 0.019 0.006 0 0.02 0.006 0 0.021 0.006 0 0.022 0.006 0 0.023 0.006 0 0.024 0.006 0 0.025 0.006 0 0.026 0.006 0 0.027 0.006 0 0.028 0.006 0 0.029 0.006 0 0.03 0.006 0 0.031 0.006 0 0.032 0.006 0 0.033 0.006 0 0.034 0.006 0 0.035 0.006 0 0.036 0.006 0 0.037 0.006 0 0.038 0.006 0 0.039 0.006 0 0.04 0.006 0 0.041 0.006 0 0.042 0.006 0 0.043 0.006 0 0.044 0.006 0 0.045 0.006 0 0.046 0.006 0 0.047 0.006 0 0.048 0.006 0 0.049 0.006 0 0.05 0.006 0 0.051 0.006 0 0.052 0.006 0 0.053 0.006 0 0.054 0.006 0 0.055 0.006 0 0.056 0.006 0 0.057 0.006 0 0.058 0.006 0 0.059 0.006 0 0.06 0.006 0 0.061 0.006 0 0.062 0.006 0 0.063 0.006 0 0.064 0.006 0 0.065 0.006 0 0.066 0.006 0 0.067 0.006 0 0.068 0.006 0 0.069 0.006 0 0.07 0.006 0 0 0.007 0 0.001 0.007 0 0.002 0.007 0 0.003 0.007 0 0.004 0.007 0 0.005 0.007 0 0.006 0.007 0 0.007 0.007 0 0.008 0.007 0 0.009 0.007 0 0.01 0.007 0 0.011 0.007 0 0.012 0.007 0 0.013 0.007 0 0.014 0.007 0 0.015 0.007 0 0.016 0.007 0 0.017 0.007 0 0.018 0.007 0 0.019 0.007 0 0.02 0.007 0 0.021 0.007 0 0.022 0.007 0 0.023 0.007 0 0.024 0.007 0 0.025 0.007 0 0.026 0.007 0 0.027 0.007 0 0.028 0.007 0 0.029 0.007 0 0.03 0.007 0 0.031 0.007 0 0.032 0.007 0 0.033 0.007 0 0.034 0.007 0 0.035 0.007 0 0.036 0.007 0 0.037 0.007 0 0.038 0.007 0 0.039 0.007 0 0.04 0.007 0 0.041 0.007 0 0.042 0.007 0 0.043 0.007 0 0.044 0.007 0 0.045 0.007 0 0.046 0.007 0 0.047 0.007 0 0.048 0.007 0 0.049 0.007 0 0.05 0.007 0 0.051 0.007 0 0.052 0.007 0 0.053 0.007 0 0.054 0.007 0 0.055 0.007 0 0.056 0.007 0 0.057 0.007 0 0.058 0.007 0 0.059 0.007 0 0.06 0.007 0 0.061 0.007 0 0.062 0.007 0 0.063 0.007 0 0.064 0.007 0 0.065 0.007 0 0.066 0.007 0 0.067 0.007 0 0.068 0.007 0 0.069 0.007 0 0.07 0.007 0 0 0.008 0 0.001 0.008 0 0.002 0.008 0 0.003 0.008 0 0.004 0.008 0 0.005 0.008 0 0.006 0.008 0 0.007 0.008 0 0.008 0.008 0 0.009 0.008 0 0.01 0.008 0 0.011 0.008 0 0.012 0.008 0 0.013 0.008 0 0.014 0.008 0 0.015 0.008 0 0.016 0.008 0 0.017 0.008 0 0.018 0.008 0 0.019 0.008 0 0.02 0.008 0 0.021 0.008 0 0.022 0.008 0 0.023 0.008 0 0.024 0.008 0 0.025 0.008 0 0.026 0.008 0 0.027 0.008 0 0.028 0.008 0 0.029 0.008 0 0.03 0.008 0 0.031 0.008 0 0.032 0.008 0 0.033 0.008 0 0.034 0.008 0 0.035 0.008 0 0.036 0.008 0 0.037 0.008 0 0.038 0.008 0 0.039 0.008 0 0.04 0.008 0 0.041 0.008 0 0.042 0.008 0 0.043 0.008 0 0.044 0.008 0 0.045 0.008 0 0.046 0.008 0 0.047 0.008 0 0.048 0.008 0 0.049 0.008 0 0.05 0.008 0 0.051 0.008 0 0.052 0.008 0 0.053 0.008 0 0.054 0.008 0 0.055 0.008 0 0.056 0.008 0 0.057 0.008 0 0.058 0.008 0 0.059 0.008 0 0.06 0.008 0 0.061 0.008 0 0.062 0.008 0 0.063 0.008 0 0.064 0.008 0 0.065 0.008 0 0.066 0.008 0 0.067 0.008 0 0.068 0.008 0 0.069 0.008 0 0.07 0.008 0 0 0.009 0 0.001 0.009 0 0.002 0.009 0 0.003 0.009 0 0.004 0.009 0 0.005 0.009 0 0.006 0.009 0 0.007 0.009 0 0.008 0.009 0 0.009 0.009 0 0.01 0.009 0 0.011 0.009 0 0.012 0.009 0 0.013 0.009 0 0.014 0.009 0 0.015 0.009 0 0.016 0.009 0 0.017 0.009 0 0.018 0.009 0 0.019 0.009 0 0.02 0.009 0 0.021 0.009 0 0.022 0.009 0 0.023 0.009 0 0.024 0.009 0 0.025 0.009 0 0.026 0.009 0 0.027 0.009 0 0.028 0.009 0 0.029 0.009 0 0.03 0.009 0 0.031 0.009 0 0.032 0.009 0 0.033 0.009 0 0.034 0.009 0 0.035 0.009 0 0.036 0.009 0 0.037 0.009 0 0.038 0.009 0 0.039 0.009 0 0.04 0.009 0 0.041 0.009 0 0.042 0.009 0 0.043 0.009 0 0.044 0.009 0 0.045 0.009 0 0.046 0.009 0 0.047 0.009 0 0.048 0.009 0 0.049 0.009 0 0.05 0.009 0 0.051 0.009 0 0.052 0.009 0 0.053 0.009 0 0.054 0.009 0 0.055 0.009 0 0.056 0.009 0 0.057 0.009 0 0.058 0.009 0 0.059 0.009 0 0.06 0.009 0 0.061 0.009 0 0.062 0.009 0 0.063 0.009 0 0.064 0.009 0 0.065 0.009 0 0.066 0.009 0 0.067 0.009 0 0.068 0.009 0 0.069 0.009 0 0.07 0.009 0 0 0.01 0 0.001 0.01 0 0.002 0.01 0 0.003 0.01 0 0.004 0.01 0 0.005 0.01 0 0.006 0.01 0 0.007 0.01 0 0.008 0.01 0 0.009 0.01 0 0.01 0.01 0 0.011 0.01 0 0.012 0.01 0 0.013 0.01 0 0.014 0.01 0 0.015 0.01 0 0.016 0.01 0 0.017 0.01 0 0.018 0.01 0 0.019 0.01 0 0.02
[...]
			<CellData Scalars="Density">
				<DataArray Name="Density" type="Float32" format="ascii">
 0.250308 0.251112 0.251052 0.250838 0.250489 0.250071 0.249641 0.249201 0.248839 0.248544 0.248424 0.248461 0.248674 0.249082 0.249645 0.250368 0.25123 0.252218 0.25337 0.254746 0.256391 0.258597 0.261334 0.2653 0.270412 0.314088 0.692072 1.09286 1.52434 1.74781 1.88376 2.07362 2.27262 2.47758 2.68409 2.88711 3.0902 3.29151 3.4524 3.58985 3.57991 3.42723 3.0384 2.38873 1.67887 1.30875 1.17112 1.1024 1.06453 1.03962 1.02383 1.01411 1.00843 1.00496 1.00287 1.00169 1.00097 1.00055 1.00032 1.00017 1.0001 1.00005 1.00003 1.00002 1.00001 1 1 1 1 1 0.249328 0.250101 0.250072 0.249829 0.249511 0.249086 0.24867 0.248249 0.247931 0.247655 0.247501 0.247468 0.247603 0.247885 0.248349 0.248916 0.249623 0.250443 0.251406 0.252558 0.254157 0.256201 0.25885 0.262483 0.266982 0.369353 0.748212 1.14559 1.53571 1.71146 1.85247 2.03223 2.22449 2.42068 2.61189 2.80544 2.99134 3.17031 3.32155 3.46003 3.40753 3.23095 2.89916 2.40237 1.83631 1.49354 1.3405 1.25401 1.1849 1.12138 1.0752 1.0458 1.02783 1.01633 1.0097 1.00571 1.00328 1.00191 1.00109 1.00061 1.00035 1.00019 1.00011 1.00006 1.00003 1.00002 1.00001 1.00001 1 1 0.249219 0.250007 0.249936 0.249736 0.249393 0.248982 0.24856 0.248127 0.247782 0.247469 0.247333 0.247323 0.247494 0.247863 0.248361 0.248947 0.249653 0.250463 0.251395 0.252589 0.253984 0.255675 0.257931 0.261095 0.26512 0.378748 0.758424 1.15697 1.52862 1.67705 1.80242 1.97082 2.15287 2.33098 2.51171 2.69296 2.85606 3.01928 3.15227 3.26537 3.20008 3.04863 2.77033 2.36431 1.92598 1.66075 1.52641 1.44901 1.38311 1.30861 1.23492 1.16445 1.10545 1.06407 1.03908 1.02313 1.01353 1.00797 1.00455 1.00263 1.0015 1.00083 1.00047 1.00026 1.00014 1.00008 1.00004 1.00002 1.00001 1.00001 0.249123 0.249893 0.249832 0.249617 0.249312 0.248905 0.248512 0.248091 0.247771 0.247451 0.247327 0.247293 0.247443 0.247724 0.248156 0.248735 0.249334 0.25004 0.250926 0.251793 0.253009 0.254621 0.256438 0.25943 0.262754 0.420872 0.802479 1.18956 1.49947 1.61904 1.74137 1.89694 2.05944 2.22407 2.39129 2.55519 2.7073 2.8619 2.98667 3.0761 3.00577 2.8569 2.60879 2.28341 1.95225 1.7648 1.67641 1.62295 1.57448 1.51217 1.44378 1.36967 1.29329 1.21675 1.14676 1.09092 1.05492 1.03281 1.0191 1.01122 1.0064 1.00366 1.00205 1.00115 1.00065 1.00036 1.0002 1.00011 1.00007 1.00004 0.24898 0.249746 0.249673 0.249483 0.249168 0.24878 0.248392 0.247986 0.24767 0.247342 0.247252 0.247232 0.247299 0.247588 0.248019 0.248467 0.249037 0.249691 0.250235 0.251045 0.252122 0.253228 0.254957 0.257241 0.260031 0.44524 0.830129 1.2161 1.46471 1.56762 1.67609 1.81553 1.9639 2.11662 2.26541 2.42155 2.56899 2.71369 2.83911 2.89011 2.82082 2.65922 2.41223 2.13888 1.91563 1.80115 1.75586 1.72894 1.70714 1.67302 1.62728 1.5705 1.50445 1.43083 1.35351 1.27352 1.19568 1.12716 1.07712 1.04616 1.02699 1.01564 1.00881 1.00506 1.00286 1.00161 1.00092 1.00053 1.0003 1.00017 0.24881 0.249556 0.249499 0.249301 0.249006 0.248623 0.248247 0.247839 0.247526 0.247203 0.247136 0.247071 0.247174 0.247427 0.247728 0.248205 0.248649 0.249025 0.249595 0.250189 0.250812 0.251762 0.253006 0.254648 0.257034 0.490762 0.875105 1.24572 1.42538 1.51723 1.61578 1.74367 1.88323 2.01841 2.15609 2.30166 2.43927 2.56936 2.69609 2.69662 2.60805 2.44226 2.20819 1.98093 1.84312 1.78979 1.7766 1.77222 1.76992 1.76081 1.74209 1.71456 1.67512 1.62283 1.56111 1.48993 1.41318 1.33253 1.25015 1.1721 1.10758 1.06394 1.03733 1.02177 1.01229 1.00709 1.00414 1.00243 1.00141 1.00086 0.248605 0.249355 0.249287 0.249115 0.248833 0.24846 0.248076 0.247662 0.247355 0.247044 0.246953 0.24691 0.246961 0.247142 0.247516 0.247833 0.24815 0.248553 0.248789 0.249091 0.249527 0.250102 0.2511 0.252317 0.253969 0.525659 0.907031 1.25859 1.39027 1.4676 1.56618 1.68598 1.81035 1.92883 2.06103 2.18222 2.30517 2.41377 2.52172 2.49135 2.38195 2.223 2.02093 1.84698 1.75554 1.73958 1.75212 1.76848 1.78049 1.78828 1.79022 1.78378 1.77072 1.74584 1.71416 1.66964 1.61371 1.54774 1.47334 1.393 1.30839 1.22372 1.14694 1.08849 1.05162 1.03072 1.01831 1.0109 1.00666 1.00464 0.248397 0.249145 0.249101 0.248944 0.248676 0.248308 0.247919 0.247514 0.247202 0.246876 0.24677 0.246714 0.246739 0.24695 0.247146 0.247433 0.247781 0.247865 0.24798 0.248057 0.248112 0.248558 0.249293 0.249972 0.250888 0.551234 0.936078 1.26246 1.35518 1.42498 1.52582 1.65096 1.74684 1.85463 1.93956 2.0491 2.15473 2.24568 2.31342 2.26193 2.15315 1.99914 1.83081 1.7132 1.66839 1.67209 1.69688 1.72452 1.75136 1.77419 1.7897 1.79783 1.80206 1.79963 1.79111 1.77486 1.74931 1.71419 1.66694 1.60532 1.53357 1.45493 1.37151 1.28361 1.19908 1.12713 1.07742 1.04826 1.03587 1.02986 0.248248 0.248997 0.24897 0.248823 0.248561 0.248203 0.247813 0.247413 0.247064 0.246762 0.246608 0.246539 0.24656 0.246625 0.246853 0.247165 0.247246 0.247338 0.247292 0.247052 0.247015 0.247104 0.247384 0.247692 0.248397 0.562306 0.956171 1.25498 1.32884 1.39545 1.48244 1.58734 1.67954 1.76235 1.83596 1.91754 1.99184 2.03679 2.05583 1.99115 1.85667 1.70625 1.59628 1.54364 1.54883 1.58513 1.62586 1.66003 1.68923 1.71768 1.74478 1.76812 1.78849 1.79928 1.80592 1.808 1.80632 1.79936 1.78191 1.75279 1.71219 1.6579 1.59761 1.52238 1.44349 1.36451 1.3039 1.24872 1.24674 1.21147 0.248139 0.248885 0.248867 0.248729 0.248479 0.248125 0.247746 0.247328 0.246989 0.246684 0.246469 0.246404 0.246342 0.24642 0.24664 0.246762 0.246913 0.246951 0.246691 0.246422 0.246045 0.245772 0.245715 0.245778 0.246542 0.554383 0.96415 1.24207 1.30458 1.3679 1.43588 1.524 1.60884 1.67834 1.72937 1.765 1.78453 1.79635 1.65857 1.34339 1.0941 0.966105 0.920188 0.92372 0.97243 1.04356 1.1287 1.22676 1.33233 1.43649 1.5326 1.61632 1.68373 1.73632 1.77268 1.79189 1.80285 1.81023 1.81161 1.80673 1.79779 1.78224 1.75118 1.71726 1.68376 1.66054 1.67637 1.71707 1.72282 1.72436 0.248217 0.248931 0.248898 0.248747 0.248463 0.248109 0.247692 0.2473 0.246961 0.246662 0.246445 0.246322 0.24624 0.246272 0.246349 0.246519 0.246674 0.24661 0.246436 0.246023 0.245405 0.244826 0.244464 0.244328 0.244692 0.538353 0.964711 1.22552 1.27846 1.33291 1.39587 1.46629 1.53047 1.58339 1.59651 1.60357 1.58808 1.28255 0.941216 0.603843 0.350269 0.254933 0.231448 0.241541 0.276199 0.322699 0.38212 0.45636 0.545507 0.651266 0.772927 0.914581 1.02223 1.13217 1.25217 1.37467 1.48683 1.59719 1.7004 1.76844 1.8015 1.81453 1.82446 1.845 1.88723 1.97593 2.06868 2.17192 2.21637 2.22909 0.248442 0.249132 0.249134 0.24899 0.248735 0.248361 0.247948 0.247541 0.247159 0.246858 0.246626 0.246543 0.246516 0.246544 0.246667 0.246809 0.246868 0.246834 0.246576 0.246065 0.245314 0.244425 0.243834 0.243474 0.24345 0.479404 0.94105 1.20635 1.25148 1.29532 1.3551 1.40858 1.45809 1.48178 1.48104 1.43176 1.1032 0.731029 0.335387 0.153176 0.14542 0.145015 0.144945 0.145469 0.147597 0.149826 0.152556 0.155195 0.157722 0.160544 0.163133 0.165173 0.230003 0.311486 0.407513 0.505904 0.603921 0.73696 0.913333 1.08562 1.21202 1.32766 1.46608 1.64739 1.8474 2.02705 2.13101 2.11455 2.00664 2.06535 0.248918 0.249547 0.249546 0.249417 0.249142 0.248759 0.248353 0.24793 0.247582 0.247294 0.247138 0.24707 0.247097 0.247186 0.24734 0.24753 0.247658 0.247655 0.247413 0.24686 0.245997 0.244772 0.244011 0.243345 0.24283 0.450987 0.872903 1.1823 1.22784 1.26695 1.30695 1.35485 1.38908 1.40006 1.37099 1.07337 0.708313 0.29292 0.141264 0.142808 0.161139 0.175317 0.18238 0.18386 0.17544 0.168959 0.161438 0.155237 0.157482 0.160206 0.162419 0.164382 0.166149 0.167735 0.169092 0.170424 0.17182 0.173394 0.175294 0.222778 0.313614 0.392289 0.49095 0.644236 0.809568 0.922664 0.917262 0.787541 0.648536 0.705413 0.249655 0.250166 0.250258 0.250076 0.249793 0.249422 0.249042 0.248663 0.248394 0.248153 0.248139 0.24809 0.2482 0.248377 0.248583 0.248801 0.248994 0.24902 0.248795 0.248297 0.247383 0.246097 0.245341 0.244416 0.243654 0.353499 0.853608 1.17415 1.2079 1.23984 1.27046 1.30385 1.33108 1.35583 1.12351 0.781222 0.388225 0.139726 0.148644 0.177711 0.207419 0.236432 0.259627 0.266142 0.269642 0.26008 0.242668 0.2124 0.174143 0.159365 0.161635 0.163697 0.165352 0.167205 0.168922 0.17051 0.172005 0.173437 0.174898 0.176999 0.181066 0.190219 0.206086 0.2265 0.245885 0.261802 0.275843 0.285391 0.290723 0.294642 0.250751 0.251128 0.251426 0.251039 0.250914 0.250518 0.250241 0.249918 0.24979 0.24958 0.249663 0.249693 0.249876 0.2501 0.250415 0.25068 0.250903 0.251058 0.250884 0.250552 0.249627 0.248518 0.247277 0.246456 0.245641 0.251541 0.705794 1.14504 1.19655 1.22125 1.24504 1.27639 1.30171 1.23838 0.89978 0.530408 0.176412 0.136684 0.148716 0.174711 0.201964 0.244388 0.286561 0.292823 0.278898 0.27767 0.284447 0.290279 0.273455 0.207053 0.163294 0.162656 0.164413 0.166388 0.168275 0.169967 0.171539 0.173111 0.174938 0.17788 0.183816 0.194888 0.213784 0.235655 0.254488 0.269197 0.281016 0.28815 0.293772 0.296073 0.252142 0.252345 0.252903 0.252349 0.252573 0.252055 0.252036 0.251715 0.251731 0.251563 0.251761 0.251862 0.252178 0.252468 0.252849 0.253265 0.253566 0.253866 0.25378 0.253606 0.252809 0.251981 0.250244 0.249643 0.248551 0.248979 0.498022 0.898346 1.18292 1.21285 1.23424 1.26034 1.28435 1.01412 0.701941 0.358133 0.138146 0.135177 0.135476 0.145944 0.179268 0.292452 0.354364 0.340006 0.287205 0.279141 0.283477 0.288934 0.295046 0.28321 0.204968 0.162852 0.164198 0.165764 0.167611 0.169355 0.170997 0.172619 0.174599 0.177677 0.184107 0.197208 0.218481 0.242442 0.263227 0.278025 0.287624 0.292385 0.297654 0.299309 0.253925 0.253923 0.254809 0.254262 0.254747 0.254175 0.254364 0.253969 0.254288 0.254111 0.254478 0.254659 0.255058 0.255504 0.255964 0.256494 0.256965 0.25738 0.257502 0.257394 0.256914 0.256191 0.254928 0.253722 0.253169 0.253314 0.255555 0.825303 1.1989 1.21975 1.23466 1.25222 1.25621 0.978526 0.683433 0.352363 0.138481 0.135877 0.136262 0.144832 0.396291 0.502886 0.498224 0.343191 0.277427 0.28136 0.285941 0.290454 0.295055 0.296408 0.227341 0.169109 0.163958 0.165279 0.167028 0.168814 0.17048 0.172135 0.174255 0.177928 0.185798 0.202489 0.226462 0.251263 0.271164 0.284788 0.293241 0.297965 0.302281 0.301976 0.256152 0.256093 0.257351 0.256677 0.257464 0.25679 0.257317 0.256777 0.257392 0.257251 0.257698 0.258022 0.2585 0.259053 0.25968 0.260316 0.260984 0.261474 0.261924 0.261861 0.261615 0.261254 0.259781 0.259861 0.258682 0.25849 0.259332 0.309207 1.10909 1.23241 1.24117 1.25169 1.26562 1.02733 0.743466 0.474675 0.250546 0.235349 0.305376 0.532035 0.627283 0.557397 0.364076 0.274605 0.278315 0.2822 0.286344 0.29065 0.294987 0.299461 0.240819 0.175537 0.16352 0.164865 0.166586 0.168282 0.169903 0.17157 0.173729 0.177604 0.186142 0.20429 0.230218 0.256849 0.27709 0.289726 0.296819 0.301658 0.305974 0.304036 0.258849 0.2587 0.260423 0.259489 0.260631 0.259797 0.260686 0.260078 0.260864 0.260874 0.261376 0.261808 0.262412 0.263083 0.26382 0.264627 0.265413 0.266243 0.266421 0.267551 0.267037 0.267261 0.266228 0.265508 0.264885 0.264657 0.264806 0.266718 0.416978 0.876437 1.26289 1.26825 1.26518 1.23104 1.05416 0.875042 0.804334 0.804641 0.785182 0.711872 0.562054 0.381043 0.27494 0.277742 0.281004 0.284092 0.28768 0.291551 0.29578 0.300197 0.258142 0.184815 0.163488 0.164712 0.166015 0.167723 0.169388 0.171088 0.173354 0.177701 0.188053 0.209506 0.237152 0.262695 0.281119 0.293201 0.300262 0.304204 0.308028 0.305871 0.261957 0.261726 0.263746 0.262631 0.26414 0.263172 0.26436 0.263835 0.264664 0.264831 0.265411 0.26597 0.266644 0.26745 0.268322 0.269263 0.270145 0.271198 0.271807 0.272356 0.272894 0.272597 0.272519 0.27173 0.271213 0.271064 0.271069 0.272427 0.274667 0.300499 0.658258 0.947925 1.16843 1.2271 1.19686 1.113 1.00207 0.859562 0.703065 0.514851 0.336173 0.276391 0.27861 0.280736 0.283014 0.285674 0.288797 0.292057 0.295619 0.299447 0.259714 0.186133 0.163055 0.164303 0.165637 0.167358 0.168968 0.170615 0.172913 0.177533 0.18822 0.210728 0.240798 0.26867 0.286623 0.296461 0.302707 0.306538 0.310281 0.308133 0.265378 0.265187 0.267288 0.266093 0.267813 0.266893 0.268242 0.267907 0.268683 0.269018 0.269625 0.270302 0.271106 0.271962 0.272934 0.274036 0.27504 0.276153 0.277164 0.277754 0.27825 0.278346 0.278236 0.277923 0.277489 0.277386 0.277264 0.278172 0.279483 0.281037 0.283835 0.382807 0.508658 0.60252 0.654588 0.64386 0.567741 0.448827 0.353237 0.286123 0.279997 0.280124 0.281243 0.282679 0.284679 0.286956 0.289667 0.292566 0.295891 0.299511 0.256371 0.183627 0.162825 0.164088 0.165406 0.167029 0.168573 0.170221 0.172645 0.177698 0.190383 0.214216 0.243869 0.270797 0.289403 0.299666 0.305183 0.308643 0.312265 0.310558 0.269018 0.268903 0.271009 0.269894 0.271647 0.270843 0.272222 0.272143 0.272794 0.273268 0.273976 0.274668 0.275536 0.276574 0.277533 0.278703 0.279847 0.281074 0.282298 0.283005 0.283668 0.283965 0.28396 0.283868 0.283555 0.283477 0.283312 0.283778 0.284562 0.28557 0.286525 0.287408 0.287898 0.288551 0.290335 0.292144 0.287572 0.284023 0.282385 0.281441 0.281797 0.282266 0.28315 0.284292 0.285886 0.287823 0.290353 0.292757 0.295754 0.299235 0.251266 0.180355 0.162565 0.163737 0.165004 0.166662 0.168216 0.16985 0.172311 0.17748 0.190809 0.217005 0.248932 0.275725 0.292626 0.302106 0.30742 0.310719 0.314123 0.313023 0.272679 0.272679 0.274739 0.273745 0.275502 0.274918 0.276074 0.276275 0.276918 0.277401 0.278161 0.279049 0.279829 0.2809 0.282055 0.283139 0.284383 0.285597 0.287334 0.288509 0.28888 0.289305 0.289384 0.289392 0.289164 0.289058 0.288857 0.288913 0.289246 0.289698 0.290018 0.290341 0.290192 0.289935 0.289201 0.288247 0.287186 0.285894 0.284697 0.28412 0.284175 0.284365 0.284892 0.285594 0.286737 0.288038 0.289785 0.29317 0.295752 0.299016 0.243762 0.176158 0.16219 0.163396 0.164805 0.166378 0.167826 0.169443 0.171987 0.177594 0.191499 0.21724 0.248814 0.276587 0.294646 0.304089 0.3091 0.312247 0.315539 0.314865 0.276274 0.276351 0.278361 0.277529 0.279169 0.278928 0.279837 0.280129 0.2808 0.281453 0.282055 0.283007 0.283995 0.284901 0.28603 0.287302 0.288503 0.290028 0.291466 0.292683 0.293457 0.294019 0.294229 0.294292 0.294108 0.29394 0.293668 0.293444 0.293315 0.2933 0.293201 0.293074 0.292575 0.291829 0.290844 0.289809 0.288754 0.287689 0.286627 0.286069 0.285856 0.285798 0.286024 0.28639 0.28707 0.288499 0.290414 0.2925 0.29537 0.298221 0.233466 0.171438 0.161943 0.163097 0.164491 0.166043 0.16754 0.169225 0.171856 0.177661 0.193436 0.221057 0.25261 0.278306 0.295232 0.305216 0.310556 0.313505 0.316602 0.316118 0.279632 0.279815 0.281673 0.281122 0.282512 0.282579 0.283307 0.283757 0.284251 0.285022 0.285789 0.286509 0.28753 0.28869 0.289712 0.290807 0.292223 0.293891 0.295136 0.296442 0.297372 0.298043 0.298409 0.298505 0.298306 0.29807 0.297689 0.297226 0.296764 0.296339 0.295865 0.2953 0.294488 0.293526 0.292433 0.291291 0.290172 0.289127 0.288088 0.287497 0.287055 0.286793 0.286763 0.286936 0.287357 0.288225 0.290115 0.292841 0.294911 0.293629 0.225179 0.167299 0.161664 0.162833 0.164388 0.165913 0.167335 0.168971 0.171583 0.177389 0.193063 0.221264 0.254283 0.280662 0.296431 0.305112 0.310533 0.314013 0.31725 0.316861 0.282629 0.282938 0.284638 0.284346 0.285438 0.285758 0.286258 0.286851 0.287403 0.28797 0.288838 0.289785 0.290589 0.29165 0.292955 0.294049 0.295204 0.296936 0.29827 0.29948 0.300644 0.301449 0.301905 0.302088 0.301835 0.301495 0.300964 0.300273 0.299574 0.298859 0.298046 0.297136 0.296081 0.295001 0.29379 0.292569 0.291393 0.290249 0.289184 0.288423 0.287769 0.287338 0.287121 0.287111 0.287493 0.288314 0.289765 0.292083 0.294949 0.287982 0.217973 0.164273 0.161516 0.162671 0.164121 0.165546 0.166982 0.168691 0.171388 0.177561 0.194231 0.222428 0.254271 0.280121 0.296614 0.305622 0.310486 0.313677 0.316999 0.31679 0.285162 0.285493 0.287102 0.287106 0.287861 0.288337 0.288784 0.289267 0.289919 0.290608 0.291266 0.292249 0.293315 0.294256 0.295366 0.296709 0.297887 0.299172 0.300642 0.301985 0.303115 0.304114 0.30474 0.304869 0.304667 0.304216 0.303536 0.302739 0.301863 0.300874 0.299779 0.298591 0.29736 0.296094 0.294737 0.293432 0.29213 0.290864 0.289723 0.288764 0.288063 0.287401 0.286721 0.286606 0.286906 0.287784 0.289395 0.292143 0.294538 0.282248 0.211509 0.1622 0.161303 0.16246 0.163975 0.165461 0.166938 0.168654 0.171334 0.177513 0.194957 0.22447 0.257052 0.281967 0.296942 0.305611 0.310759 0.313776 0.3169 0.316425 0.287035 0.2875 0.2889 0.289205 0.289711 0.29017 0.290667 0.291181 0.291713 0.292468 0.293289 0.294123 0.295144 0.296286 0.297375 0.298552 0.299877 0.301106 0.302425 0.303833 0.305044 0.306001 0.306522 0.306822 0.306741 0.30622 0.305495 0.304623 0.303575 0.302413 0.301104 0.29971 0.298274 0.296796 0.295299 0.293805 0.292413 0.291112 0.289967 0.289026 0.287933 0.287095 0.286596 0.286524 0.286787 0.28771 0.289333 0.291988 0.294221 0.277997 0.207286 0.161181 0.161099 0.162291 0.163817 0.165281 0.166731 0.168441 0.171148 0.177427 0.194809 0.224017 0.256533 0.281961 0.297111 0.305267 0.309991 0.313171 0.316398 0.316019 0.288531 0.28936 0.290415 0.290819 0.291291 0.291718 0.292193 0.29277 0.293356 0.294037 0.294903 0.295831 0.29683 0.297964 0.299152 0.30032 0.301553 0.302813 0.303973 0.305142 0.30626 0.307057 0.307528 0.307881 0.307886 0.307513 0.306901 0.306011 0.304933 0.30364 0.302208 0.300677 0.299063 0.297449 0.295846 0.294361 0.292764 0.291152 0.289766 0.288486 0.287309 0.286447 0.285957 0.285946 0.286382 0.287368 0.289012 0.29132 0.294525 0.272304 0.201018 0.160191 0.160927 0.162229 0.16371 0.16519 0.166668 0.168373 0.171093 0.177484 0.195604 0.225322 0.257664 0.282372 0.297095 0.305099 0.309851 0.312782 0.315979 0.315689 0.28727 0.288486 0.289284 0.289714 0.290178 0.290622 0.291028 0.291557 0.292145 0.292784 0.293572 0.294478 0.295449 0.296492 0.297639 0.298796 0.299945 0.301122 0.302245 0.303277 0.304257 0.305 0.305568 0.305891 0.306026 0.305744 0.305191 0.304406 0.303388 0.30205 0.300692 0.29925 0.297751 0.296216 0.294734 0.293325 0.291821 0.290307 0.288974 0.28782 0.286921 0.286218 0.285818 0.285821 0.286292 0.287244 0.288919 0.291404 0.294323 0.266781 0.195685 0.159878 0.16082 0.162166 0.163682 0.165153 0.166617 0.168333 0.171074 0.177452 0.195491 0.22527 0.257803 0.28259 0.297125 0.304976 0.309822 0.312723 0.316128 0.31554
				</DataArray>
				<DataArray Name="Energy" type="Float32" format="ascii">