<?xml version="1.0"?>
<VTKFile type="PolyData">
	<PolyData>
		<Piece NumberOfPoints="2201" NumberOfPolys="2100">
			<Points>
				<DataArray type="Float32" NumberOfComponents="3" format="ascii">
 0 0 0 0.001 0 0 0.002 0 0 0.003 0 0 0.004 0 0 0.005 0 0 0.006 0 0 0.007 0 0 0.008 0 0 0.009 0 0 0.01 0 0 0.011 0 0 0.012 0 0 0.013 0 0 0.014 0 0 0.015 0 0 0.016 0 0 0.017 0 0 0.018 0 0 0.019 0 0 0.02 0 0 0.021 0 0 0.022 0 0 0.023 0 0 0.024 0 0 0.025 0 0 0.026 0 0 0.027 0 0 0.028 0 0 0.029 0 0 0.03 0 0 0.031 0 0 0.032 0 0 0.033 0 0 0.034 0 0 0.035 0 0 0.036 0 0 0.037 0 0 0.038 0 0 0.039 0 0 0.04 0 0 0.041 0 0 0.042 0 0 0.043 0 0 0.044 0 0 0.045 0 0 0.046 0 0 0.047 0 0 0.048 0 0 0.049 0 0 0.05 0 0 0.051 0 0 0.052 0 0 0.053 0 0 0.054 0 0 0.055 0 0 0.056 0 0 0.057 0 0 0.058 0 0 0.059 0 0 0.06 0 0 0.061 0 0 0.062 0 0 0.063 0 0 0.064 0 0 0.065 0 0 0.066 0 0 0.067 0 0 0.068 0 0 0.069 0 0 0.07 0 0 0 0.001 0 0.001 0.001 0 0.002 0.001 0 0.003 0.001 0 0.004 0.001 0 0.005 0.001 0 0.006 0.001 0 0.007 0.001 0 0.008 0.001 0 0.009 0.001 0 0.01 0.001 0 0.011 0.001 0 0.012 0.001 0 0.013 0.001 0 0.014 0.001 0 0.015 0.001 0 0.016 0.001 0 0.017 0.001 0 0.018 0.001 0 0.019 0.001 0 0.02 0.001 0 0.021 0.001 0 0.022 0.001 0 0.023 0.001 0 0.024 0.001 0 0.025 0.001 0 0.026 0.001 0 0.027 0.001 0 0.028 0.001 0 0.029 0.001 0 0.03 0.001 0 0.031 0.001 0 0.032 0.001 0 0.033 0.001 0 0.034 0.001 0 0.035 0.001 0 0.036 0.001 0 0.037 0.001 0 0.038 0.001 0 0.039 0.001 0 0.04 0.001 0 0.041 0.001 0 0.042 0.001 0 0.043 0.001 0 0.044 0.001 0 0.045 0.001 0 0.046 0.001 0 0.047 0.001 0 0.048 0.001 0 0.049 0.001 0 0.05 0.001 0 0.051 0.001 0 0.052 0.001 0 0.053 0.001 0 0.054 0.001 0 0.055 0.001 0 0.056 0.001 0 0.057 0.001 0 0.058 0.001 0 0.059 0.001 0 0.06 0.001 0 0.061 0.001 0 0.062 0.001 0 0.063 0.001 0 0.064 0.001 0 0.065 0.001 0 0.066 0.001 0 0.067 0.001 0 0.068 0.001 0 0.069 0.001 0 0.07 0.001 0 0 0.002 0 0.001 0.002 0 0.002 0.002 0 0.003 0.002 0 0.004 0.002 0 0.005 0.002 0 0.006 0.002 0 0.007 0.002 0 0.008 0.002 0 0.009 0.002 0 0.01 0.002 0 0.011 0.002 0 0.012 0.002 0 0.013 0.002 0 0.014 0.002 0 0.015 0.002 0 0.016 0.002 0 0.017 0.002 0 0.018 0.002 0 0.019 0.002 0 0.02 0.002 0 0.021 0.002 0 0.022 0.002 0 0.023 0.002 0 0.024 0.002 0 0.025 0.002 0 0.026 0.002 0 0.027 0.002 0 0.028 0.002 0 0.029 0.002 0 0.03 0.002 0 0.031 0.002 0 0.032 0.002 0 0.033 0.002 0 0.034 0.002 0 0.035 0.002 0 0.036 0.002 0 0.037 0.002 0 0.038 0.002 0 0.039 0.002 0 0.04 0.002 0 0.041 0.002 0 0.042 0.002 0 0.043 0.002 0 0.044 0.002 0 0.045 0.002 0 0.046 0.002 0 0.047 0.002 0 0.048 0.002 0 0.049 0.002 0 0.05 0.002 0 0.051 0.002 0 0.052 0.002 0 0.053 0.002 0 0.054 0.002 0 0.055 0.002 0 0.056 0.002 0 0.057 0.002 0 0.058 0.002 0 0.059 0.002 0 0.06 0.002 0 0.061 0.002 0 0.062 0.002 0 0.063 0.002 0 0.064 0.002 0 0.065 0.002 0 0.066 0.002 0 0.067 0.002 0 0.068 0.002 0 0.069 0.002 0 0.07 0.002 0 0 0.003 0 0.001 0.003 0 0.002 0.003 0 0.003 0.003 0 0.004 0.003 0 0.005 0.003 0 0.006 0.003 0 0.007 0.003 0 0.008 0.003 0 0.009 0.003 0 0.01 0.003 0 0.011 0.003 0 0.012 0.003 0 0.013 0.003 0 0.014 0.003 0 0.015 0.003 0 0.016 0.003 0 0.017 0.003 0 0.018 0.003 0 0.019 0.003 0 0.02 0.003 0 0.021 0.003 0 0.022 0.003 0 0.023 0.003 0 0.024 0.003 0 0.025 0.003 0 0.026 0.003 0 0.027 0.003 0 0.028 0.003 0 0.029 0.003 0 0.03 0.003 0 0.031 0.003 0 0.032 0.003 0 0.033 0.003 0 0.034 0.003 0 0.035 0.003 0 0.036 0.003 0 0.037 0.003 0 0.038 0.003 0 0.039 0.003 0 0.04 0.003 0 0.041 0.003 0 0.042 0.003 0 0.043 0.003 0 0.044 0.003 0 0.045 0.003 0 0.046 0.003 0 0.047 0.003 0 0.048 0.003 0 0.049 0.003 0 0.05 0.003 0 0.051 0.003 0 0.052 0.003 0 0.053 0.003 0 0.054 0.003 0 0.055 0.003 0 0.056 0.003 0 0.057 0.003 0 0.058 0.003 0 0.059 0.003 0 0.06 0.003 0 0.061 0.003 0 0.062 0.003 0 0.063 0.003 0 0.064 0.003 0 0.065 0.003 0 0.066 0.003 0 0.067 0.003 0 0.068 0.003 0 0.069 0.003 0 0.07 0.003 0 0 0.004 0 0.001 0.004 0 0.002 0.004 0 0.003 0.004 0 0.004 0.004 0 0.005 0.004 0 0.006 0.004 0 0.007 0.004 0 0.008 0.004 0 0.009 0.004 0 0.01 0.004 0 0.011 0.004 0 0.012 0.004 0 0.013 0.004 0 0.014 0.004 0 0.015 0.004 0 0.016 0.004 0 0.017 0.004 0 0.018 0.004 0 0.019 0.004 0 0.02 0.004 0 0.021 0.004 0 0.022 0.004 0 0.023 0.004 0 0.024 0.004 0 0.025 0.004 0 0.026 0.004 0 0.027 0.004 0 0.028 0.004 0 0.029 0.004 0 0.03 0.004 0 0.031 0.004 0 0.032 0.004 0 0.033 0.004 0 0.034 0.004 0 0.035 0.004 0 0.036 0.004 0 0.037 0.004 0 0.038 0.004 0 0.039 0.004 0 0.04 0.004 0 0.041 0.004 0 0.042 0.004 0 0.043 0.004 0 0.044 0.004 0 0.045 0.004 0 0.046 0.004 0 0.047 0.004 0 0.048 0.004 0 0.049 0.004 0 0.05 0.004 0 0.051 0.004 0 0.052 0.004 0 0.053 0.004 0 0.054 0.004 0 0.055 0.004 0 0.056 0.004 0 0.057 0.004 0 0.058 0.004 0 0.059 0.004 0 0.06 0.004 0 0.061 0.004 0 0.062 0.004 0 0.063 0.004 0 0.064 0.004 0 0.065 0.004 0 0.066 0.004 0 0.067 0.004 0 0.068 0.004 0 0.069 0.004 0 0.07 0.004 0 0 0.005 0 0.001 0.005 0 0.002 0.005 0 0.003 0.005 0 0.004 0.005 0 0.005 0.005 0 0.006 0.005 0 0.007 0.005 0 0.008 0.005 0 0.009 0.005 0 0.01 0.005 0 0.011 0.005 0 0.012 0.005 0 0.013 0.005 0 0.014 0.005 0 0.015 0.005 0 0.016 0.005 0 0.017 0.005 0 0.018 0.005 0 0.019 0.005 0 0.02 0.005 0 0.021 0.005 0 0.022 0.005 0 0.023 0.005 0 0.024 0.005 0 0.025 0.005 0 0.026 0.005 0 0.027 0.005 0 0.028 0.005 0 0.029 0.005 0 0.03 0.005 0 0.031 0.005 0 0.032 0.005 0 0.033 0.005 0 0.034 0.005 0 0.035 0.005 0 0.036 0.005 0 0.037 0.005 0 0.038 0.005 0 0.039 0.005 0 0.04 0.005 0 0.041 0.005 0 0.042 0.005 0 0.043 0.005 0 0.044 0.005 0 0.045 0.005 0 0.046 0.005 0 0.047 0.005 0 0.048 0.005 0 0.049 0.005 0 0.05 0.005 0 0.051 0.005 0 0.052 0.005 0 0.053 0.005 0 0.054 0.005 0 0.055 0.005 0 0.056 0.005 0 0.057 0.005 0 0.058 0.005 0 0.059 0.005 0 0.06 0.005 0 0.061 0.005 0 0.062 0.005 0 0.063 0.005 0 0.064 0.005 0 0.065 0.005 0 0.066 0.005 0 0.067 0.005 0 0.068 0.005 0 0.069 0.005 0 0.07 0.005 0 0 0.006 0 0.001 0.006 0 0.002 0.006 0 0.003 0.006 0 0.004 0.006 0 0.005 0.006 0 0.006 0.006 0 0.007 0.006 0 0.008 0.006 0 0.009 0.006 0 0.01 0.006 0 0.011 0.006 0 0.012 0.006 0 0.013 0.006 0 0.014 0.006 0 0.015 0.006 0 0.016 0.006 0 0.017 0.006 0 0.018 0.006 0 0.019 0.006 0 0.02 0.006 0 0.021 0.006 0 0.022 0.006 0 0.023 0.006 0 0.024 0.006 0 0.025 0.006 0 0.026 0.006 0 0.027 0.006 0 0.028 0.006 0 0.029 0.006 0 0.03 0.006 0 0.031 0.006 0 0.032 0.006 0 0.033 0.006 0 0.034 0.006 0 0.035 0.006 0 0.036 0.006 0 0.037 0.006 0 0.038 0.006 0 0.039 0.006 0 0.04 0.006 0 0.041 0.006 0 0.042 0.006 0 0.043 0.006 0 0.044 0.006 0 0.045 0.006 0 0.046 0.006 0 0.047 0.006 0 0.048 0.006 0 0.049 0.006 0 0.05 0.006 0 0.051 0.006 0 0.052 0.006 0 0.053 0.006 0 0.054 0.006 0 0.055 0.006 0 0.056 0.006 0 0.057 0.006 0 0.058 0.006 0 0.059 0.006 0 0.06 0.006 0 0.061 0.006 0 0.062 0.006 0 0.063 0.006 0 0.064 0.006 0 0.065 0.006 0 0.066 0.006 0 0.067 0.006 0 0.068 0.006 0 0.069 0.006 0 0.07 0.006 0 0 0.007 0 0.001 0.007 0 0.002 0.007 0 0.003 0.007 0 0.004 0.007 0 0.005 0.007 0 0.006 0.007 0 0.007 0.007 0 0.008 0.007 0 0.009 0.007 0 0.01 0.007 0 0.011 0.007 0 0.012 0.007 0 0.013 0.007 0 0.014 0.007 0 0.015 0.007 0 0.016 0.007 0 0.017 0.007 0 0.018 0.007 0 0.019 0.007 0 0.02 0.007 0 0.021 0.007 0 0.022 0.007 0 0.023 0.007 0 0.024 0.007 0 0.025 0.007 0 0.026 0.007 0 0.027 0.007 0 0.028 0.007 0 0.029 0.007 0 0.03 0.007 0 0.031 0.007 0 0.032 0.007 0 0.033 0.007 0 0.034 0.007 0 0.035 0.007 0 0.036 0.007 0 0.037 0.007 0 0.038 0.007 0 0.039 0.007 0 0.04 0.007 0 0.041 0.007 0 0.042 0.007 0 0.043 0.007 0 0.044 0.007 0 0.045 0.007 0 0.046 0.007 0 0.047 0.007 0 0.048 0.007 0 0.049 0.007 0 0.05 0.007 0 0.051 0.007 0 0.052 0.007 0 0.053 0.007 0 0.054 0.007 0 0.055 0.007 0 0.056 0.007 0 0.057 0.007 0 0.058 0.007 0 0.059 0.007 0 0.06 0.007 0 0.061 0.007 0 0.062 0.007 0 0.063 0.007 0 0.064 0.007 0 0.065 0.007 0 0.066 0.007 0 0.067 0.007 0 0.068 0.007 0 0.069 0.007 0 0.07 0.007 0 0 0.008 0 0.001 0.008 0 0.002 0.008 0 0.003 0.008 0 0.004 0.008 0 0.005 0.008 0 0.006 0.008 0 0.007 0.008 0 0.008 0.008 0 0.009 0.008 0 0.01 0.008 0 0.011 0.008 0 0.012 0.008 0 0.013 0.008 0 0.014 0.008 0 0.015 0.008 0 0.016 0.008 0 0.017 0.008 0 0.018 0.008 0 0.019 0.008 0 0.02 0.008 0 0.021 0.008 0 0.022 0.008 0 0.023 0.008 0 0.024 0.008 0 0.025 0.008 0 0.026 0.008 0 0.027 0.008 0 0.028 0.008 0 0.029 0.008 0 0.03 0.008 0 0.031 0.008 0 0.032 0.008 0 0.033 0.008 0 0.034 0.008 0 0.035 0.008 0 0.036 0.008 0 0.037 0.008 0 0.038 0.008 0 0.039 0.008 0 0.04 0.008 0 0.041 0.008 0 0.042 0.008 0 0.043 0.008 0 0.044 0.008 0 0.045 0.008 0 0.046 0.008 0 0.047 0.008 0 0.048 0.008 0 0.049 0.008 0 0.05 0.008 0 0.051 0.008 0 0.052 0.008 0 0.053 0.008 0 0.054 0.008 0 0.055 0.008 0 0.056 0.008 0 0.057 0.008 0 0.058 0.008 0 0.059 0.008 0 0.06 0.008 0 0.061 0.008 0 0.062 0.008 0 0.063 0.008 0 0.064 0.008 0 0.065 0.008 0 0.066 0.008 0 0.067 0.008 0 0.068 0.008 0 0.069 0.008 0 0.07 0.008 0 0 0.009 0 0.001 0.009 0 0.002 0.009 0 0.003 0.009 0 0.004 0.009 0 0.005 0.009 0 0.006 0.009 0 0.007 0.009 0 0.008 0.009 0 0.009 0.009 0 0.01 0.009 0 0.011 0.009 0 0.012 0.009 0 0.013 0.009 0 0.014 0.009 0 0.015 0.009 0 0.016 0.009 0 0.017 0.009 0 0.018 0.009 0 0.019 0.009 0 0.02 0.009 0 0.021 0.009 0 0.022 0.009 0 0.023 0.009 0 0.024 0.009 0 0.025 0.009 0 0.026 0.009 0 0.027 0.009 0 0.028 0.009 0 0.029 0.009 0 0.03 0.009 0 0.031 0.009 0 0.032 0.009 0 0.033 0.009 0 0.034 0.009 0 0.035 0.009 0 0.036 0.009 0 0.037 0.009 0 0.038 0.009 0 0.039 0.009 0 0.04 0.009 0 0.041 0.009 0 0.042 0.009 0 0.043 0.009 0 0.044 0.009 0 0.045 0.009 0 0.046 0.009 0 0.047 0.009 0 0.048 0.009 0 0.049 0.009 0 0.05 0.009 0 0.051 0.009 0 0.052 0.009 0 0.053 0.009 0 0.054 0.009 0 0.055 0.009 0 0.056 0.009 0 0.057 0.009 0 0.058 0.009 0 0.059 0.009 0 0.06 0.009 0 0.061 0.009 0 0.062 0.009 0 0.063 0.009 0 0.064 0.009 0 0.065 0.009 0 0.066 0.009 0 0.067 0.009 0 0.068 0.009 0 0.069 0.009 0 0.07 0.009 0 0 0.01 0 0.001 0.01 0 0.002 0.01 0 0.003 0.01 0 0.004 0.01 0 0.005 0.01 0 0.006 0.01 0 0.007 0.01 0 0.008 0.01 0 0.009 0.01 0 0.01 0.01 0 0.011 0.01 0 0.012 0.01 0 0.013 0.01 0 0.014 0.01 0 0.015 0.01 0 0.016 0.01 0 0.017 0.01 0 0.018 0.01 0 0.019 0.01 0 0.02
[...]
			<CellData Scalars="Density">
				<DataArray Name="Density" type="Float32" format="ascii">
 0.299182 0.300481 0.301448 0.30257 0.304162 0.30608 0.308304 0.310897 0.313777 0.316977 0.320485 0.324305 0.328463 0.332865 0.337473 0.342155 0.346857 0.351702 0.356615 0.362036 0.368047 0.374132 0.38166 0.38989 0.99243 1.71886 2.21026 2.33743 2.48713 2.64676 2.76843 2.78728 2.69873 2.46882 2.04416 1.5137 1.10662 1.01815 1.00364 1.00103 1.00041 1.00022 1.00012 1.00007 1.00004 1.00002 1.00001 1.00001 1 1 1 1 1 1 1 1 1 1 1 1 1 1 1 1 1 1 1 1 1 1 0.297951 0.299223 0.300119 0.301158 0.302603 0.304355 0.306488 0.308954 0.311705 0.314771 0.318155 0.321828 0.325857 0.330089 0.334522 0.339028 0.343656 0.348295 0.353082 0.358406 0.364504 0.371037 0.378617 0.415704 1.07159 1.78599 2.22938 2.3804 2.53324 2.69875 2.83681 2.87574 2.80312 2.58205 2.13831 1.58863 1.14681 1.03123 1.00823 1.00293 1.00142 1.0008 1.00044 1.00024 1.00013 1.00007 1.00004 1.00002 1.00001 1.00001 1 1 1 1 1 1 1 1 1 1 1 1 1 1 1 1 1 1 1 1 0.297636 0.298911 0.299844 0.301127 0.302678 0.304531 0.306722 0.309228 0.312056 0.315196 0.318625 0.322305 0.326251 0.33041 0.334727 0.339177 0.343724 0.34827 0.352779 0.358127 0.363764 0.36966 0.377084 0.427755 1.09238 1.81553 2.24892 2.40717 2.58032 2.75304 2.89647 2.9692 2.9163 2.70969 2.29918 1.7697 1.25724 1.0662 1.02275 1.01038 1.00582 1.00331 1.00186 1.00106 1.00059 1.00033 1.00018 1.0001 1.00005 1.00003 1.00001 1.00001 1 1 1 1 1 1 1 1 1 1 1 1 1 1 1 1 1 1 0.297233 0.29846 0.299417 0.30057 0.302138 0.30386 0.305898 0.308267 0.310954 0.313972 0.317323 0.321018 0.324894 0.32907 0.33337 0.337669 0.341969 0.346252 0.350695 0.355451 0.360933 0.367036 0.374201 0.461307 1.13051 1.85185 2.2488 2.41706 2.61378 2.79565 2.94262 3.02406 2.9842 2.81993 2.48451 1.99835 1.44974 1.16193 1.07266 1.03994 1.02431 1.01392 1.00811 1.00468 1.00262 1.00149 1.00083 1.00044 1.00024 1.00013 1.00007 1.00003 1.00002 1.00001 1 1 1 1 1 1 1 1 1 1 1 1 1 1 1 1 0.296658 0.297858 0.298791 0.300059 0.301432 0.303237 0.305412 0.307882 0.310685 0.313736 0.316958 0.320411 0.324108 0.328005 0.332038 0.336115 0.34023 0.344328 0.348385 0.352994 0.358277 0.363853 0.370489 0.522896 1.19857 1.90379 2.22847 2.39497 2.59617 2.79149 2.93791 3.03275 3.03499 2.93023 2.65418 2.20985 1.69767 1.36519 1.22679 1.15418 1.09785 1.05795 1.03492 1.02014 1.01148 1.00662 1.00368 1.00202 1.00114 1.0006 1.00031 1.00017 1.00008 1.00004 1.00002 1.00001 1 1 1 1 1 1 1 1 1 1 1 1 1 1 0.296052 0.297012 0.298096 0.299188 0.300693 0.302467 0.304489 0.306855 0.309565 0.312516 0.315698 0.319091 0.322741 0.326526 0.33045 0.334506 0.338338 0.342028 0.34596 0.350248 0.354793 0.360438 0.366302 0.611003 1.2863 1.94225 2.18429 2.34524 2.53941 2.72882 2.87406 3.00002 3.014 2.94059 2.71712 2.32128 1.88103 1.59098 1.44676 1.37286 1.29338 1.21172 1.13873 1.08329 1.04927 1.02881 1.01619 1.0092 1.00515 1.00275 1.00149 1.00081 1.0004 1.00021 1.0001 1.00005 1.00002 1.00001 1 1 1 1 1 1 1 1 1 1 1 1 0.295149 0.296143 0.297075 0.298298 0.299786 0.301399 0.303415 0.30583 0.308457 0.311263 0.314401 0.317788 0.321235 0.324952 0.328871 0.332592 0.33622 0.339915 0.343193 0.346663 0.351125 0.356313 0.361422 0.689562 1.36967 1.95637 2.13802 2.28667 2.47408 2.66125 2.81204 2.95369 2.93893 2.83294 2.6331 2.2969 1.95705 1.75199 1.64471 1.58921 1.52201 1.44595 1.36255 1.27522 1.19025 1.11848 1.06939 1.04058 1.02282 1.01254 1.00702 1.00376 1.00192 1.00102 1.00053 1.00026 1.00012 1.00006 1.00003 1.00001 1.00001 1 1 1 1 1 1 1 1 1 0.294193 0.294921 0.296015 0.297181 0.298532 0.300284 0.302404 0.304627 0.3071 0.309993 0.313105 0.316244 0.319715 0.323413 0.326913 0.330535 0.3342 0.337149 0.340052 0.343143 0.346778 0.351152 0.356231 0.77816 1.46395 1.9438 2.08236 2.22684 2.40149 2.57105 2.71746 2.84314 2.79255 2.66061 2.43867 2.17136 1.94078 1.82478 1.76914 1.74443 1.70894 1.66133 1.59605 1.52013 1.43536 1.34434 1.25065 1.16432 1.09698 1.05581 1.03174 1.01708 1.00917 1.00497 1.00257 1.00128 1.00061 1.0003 1.00015 1.00007 1.00003 1.00001 1.00001 1 1 1 1 1 1 1 0.292837 0.293637 0.294696 0.295917 0.297314 0.299173 0.300993 0.303198 0.30587 0.308674 0.311493 0.314762 0.318199 0.321441 0.324985 0.328589 0.331506 0.334402 0.336975 0.339201 0.342133 0.345678 0.350734 0.857128 1.54164 1.90074 2.03005 2.15855 2.29755 2.4545 2.58263 2.63946 2.5655 2.42203 2.21617 2.0127 1.87303 1.82055 1.80797 1.81329 1.80919 1.79749 1.76944 1.72714 1.67011 1.59528 1.50857 1.41699 1.31861 1.22129 1.13591 1.07672 1.04281 1.02331 1.01222 1.00626 1.00309 1.00154 1.00077 1.00034 1.00015 1.00007 1.00003 1.00001 1 1 1 1 1 1 0.291461 0.291979 0.293342 0.294429 0.295993 0.297533 0.299505 0.301975 0.304424 0.306979 0.310038 0.313207 0.316231 0.319659 0.323068 0.325957 0.329032 0.331599 0.333575 0.335455 0.337195 0.339814 0.344725 0.916025 1.58239 1.8497 1.96071 2.06719 2.1857 2.30116 2.36002 2.3546 2.25668 2.11827 1.94505 1.82286 1.77063 1.76609 1.7853 1.80877 1.82531 1.83626 1.83568 1.83111 1.80973 1.77752 1.73216 1.66739 1.58786 1.49706 1.39507 1.28821 1.18691 1.10731 1.05834 1.03079 1.01548 1.00801 1.00391 1.00174 1.00081 1.00037 1.00015 1.00006 1.00003 1.00001 1 1 1 1 0.289692 0.290354 0.291536 0.292794 0.2942 0.295937 0.298201 0.300314 0.302652 0.30555 0.308458 0.311293 0.314582 0.31777 0.320658 0.323826 0.326531 0.328523 0.330332 0.331541 0.332641 0.334526 0.338574 0.946364 1.585 1.7878 1.8862 1.9687 2.05994 2.07709 2.06992 1.96578 1.60213 1.30752 1.17582 1.15296 1.20682 1.29852 1.39869 1.49893 1.60479 1.70923 1.78692 1.83239 1.85019 1.8433 1.82993 1.80385 1.76223 1.70576 1.63408 1.54958 1.45192 1.34282 1.2318 1.13674 1.07422 1.03917 1.0191 1.00901 1.00431 1.00199 1.00085 1.00035 1.00013 1.00005 1.00002 1 1 1 0.28782 0.288262 0.289622 0.291003 0.292423 0.294388 0.296241 0.298434 0.301222 0.303875 0.306531 0.309699 0.312741 0.315643 0.318811 0.321506 0.323783 0.325755 0.327148 0.328068 0.328542 0.329167 0.332458 0.93758 1.56038 1.72056 1.79033 1.84384 1.86529 1.86127 1.6087 1.16593 0.750045 0.441304 0.336617 0.335092 0.386073 0.454412 0.526586 0.613542 0.733342 0.887128 1.05956 1.19214 1.32963 1.46699 1.59365 1.70314 1.78359 1.81416 1.79791 1.75168 1.68959 1.61135 1.51676 1.40436 1.28158 1.16839 1.08898 1.04485 1.02243 1.01059 1.00465 1.00192 1.00077 1.00028 1.00009 1.00003 1.00001 1 0.28575 0.286043 0.287644 0.288886 0.290428 0.292234 0.294279 0.296959 0.299369 0.301888 0.304979 0.307896 0.310741 0.313938 0.31668 0.319164 0.321489 0.323132 0.3243 0.324774 0.324606 0.323818 0.326183 0.908271 1.50905 1.64961 1.70573 1.72079 1.72917 1.48559 1.04509 0.554465 0.185079 0.155476 0.158687 0.158676 0.160491 0.161433 0.165082 0.169339 0.172919 0.176295 0.188772 0.275921 0.37832 0.496348 0.631649 0.789257 0.971214 1.1649 1.30744 1.44415 1.5608 1.64775 1.68546 1.66498 1.5843 1.46467 1.33182 1.20295 1.10966 1.0551 1.02516 1.01052 1.00436 1.0016 1.00052 1.00016 1.00006 1.00002 0.283362 0.283744 0.285252 0.286483 0.288316 0.290162 0.292577 0.294828 0.297276 0.300342 0.303145 0.305929 0.309145 0.312 0.314683 0.31733 0.319296 0.320848 0.321775 0.321846 0.321483 0.319255 0.320971 0.726722 1.38103 1.58458 1.62537 1.61232 1.54972 1.11636 0.651064 0.211234 0.153808 0.174934 0.192008 0.211556 0.22163 0.21761 0.192207 0.1749 0.171909 0.175172 0.177829 0.180061 0.181986 0.18346 0.184809 0.186321 0.188221 0.211753 0.321057 0.447039 0.585053 0.746189 0.91247 1.0771 1.27869 1.37406 1.40936 1.39434 1.33226 1.22749 1.11995 1.05592 1.02463 1.00929 1.00313 1.00107 1.00033 1.00011 0.280828 0.281105 0.282668 0.284265 0.285997 0.288033 0.290237 0.292659 0.295704 0.298395 0.301149 0.304393 0.307315 0.310143 0.313094 0.315432 0.317463 0.318987 0.319746 0.31945 0.318881 0.315865 0.316223 0.593242 1.159 1.51878 1.55143 1.53435 1.23057 0.824013 0.385054 0.151277 0.149502 0.177205 0.216447 0.268996 0.298981 0.301993 0.306568 0.264877 0.213231 0.177036 0.177298 0.179796 0.181693 0.183817 0.185578 0.186983 0.188087 0.188719 0.189043 0.188999 0.18925 0.189825 0.191075 0.193291 0.253267 0.407759 0.539539 0.6554 0.785563 0.900073 0.984183 1.0175 1.01821 1.01455 1.00792 1.00323 1.00079 1.00027 0.278148 0.278353 0.280156 0.281753 0.283443 0.285677 0.287993 0.290955 0.293561 0.29632 0.299621 0.302597 0.305523 0.308688 0.311405 0.313891 0.316021 0.317463 0.318102 0.317837 0.316933 0.314404 0.312442 0.389861 1.12285 1.47004 1.48657 1.46625 1.16612 0.785057 0.371463 0.149706 0.150603 0.240495 0.338279 0.362156 0.319074 0.301424 0.309124 0.316564 0.306874 0.222012 0.177276 0.179003 0.180813 0.183089 0.185163 0.186763 0.187973 0.188759 0.189314 0.189635 0.190073 0.19062 0.190995 0.190954 0.191082 0.189812 0.188816 0.187069 0.183246 0.176204 0.165847 0.150736 0.133046 0.117425 0.106429 0.101859 0.100509 0.100173 0.27532 0.275604 0.277418 0.278919 0.281039 0.283317 0.286052 0.288626 0.291411 0.294777 0.297796 0.300827 0.304152 0.307137 0.309995 0.312713 0.314783 0.316429 0.317182 0.317005 0.315552 0.313777 0.31106 0.308864 0.578708 1.33547 1.43228 1.41207 1.24241 0.954647 0.698491 0.598433 0.60807 0.593846 0.529808 0.427177 0.319232 0.306436 0.311137 0.31719 0.323855 0.255245 0.188014 0.179523 0.181144 0.183129 0.184943 0.186504 0.187807 0.188829 0.189663 0.190371 0.191047 0.191621 0.192024 0.192045 0.191943 0.191192 0.189694 0.187339 0.184144 0.178752 0.169427 0.156249 0.140714 0.123842 0.109556 0.102921 0.100845 0.100274 0.272521 0.272756 0.274613 0.276454 0.278615 0.281069 0.283654 0.286424 0.289809 0.292855 0.295997 0.299476 0.302671 0.305785 0.308924 0.311608 0.313989 0.315801 0.316701 0.31666 0.31563 0.313345 0.311459 0.30963 0.307552 0.558693 0.990156 1.36096 1.32311 1.23211 1.05445 0.897335 0.73941 0.57906 0.40834 0.301976 0.305118 0.309962 0.314384 0.319087 0.325006 0.256447 0.188396 0.179153 0.180657 0.182572 0.184457 0.186094 0.187416 0.188463 0.189295 0.18999 0.190534 0.191025 0.191293 0.1913 0.191046 0.190309 0.188914 0.186263 0.1825 0.177603 0.170503 0.160605 0.147294 0.130539 0.114085 0.104439 0.101293 0.100399 0.269783 0.27004 0.271978 0.274021 0.276185 0.278719 0.28143 0.284762 0.287819 0.291049 0.294668 0.298021 0.301352 0.304756 0.307866 0.310713 0.31327 0.315472 0.316656 0.317096 0.316779 0.3158 0.314123 0.312236 0.310036 0.308293 0.412451 0.605029 0.81714 0.818006 0.780952 0.62936 0.484896 0.346275 0.305223 0.307659 0.310362 0.313778 0.317832 0.321768 0.326604 0.253772 0.187074 0.179477 0.180896 0.18267 0.18441 0.18592 0.187152 0.188142 0.188949 0.189582 0.190058 0.190478 0.190644 0.190547 0.19019 0.189333 0.188103 0.186327 0.183695 0.179719 0.173557 0.164802 0.152483 0.136114 0.118675 0.106137 0.10178 0.100534 0.267209 0.267515 0.269618 0.271595 0.273892 0.276502 0.279701 0.282736 0.286001 0.289699 0.293181 0.296692 0.300318 0.303704 0.306912 0.309985 0.312999 0.315787 0.317693 0.318886 0.319222 0.319047 0.317921 0.316436 0.314505 0.312848 0.310905 0.310771 0.333575 0.354761 0.352245 0.32746 0.309829 0.309342 0.310563 0.312384 0.314534 0.317429 0.320747 0.324184 0.326209 0.250272 0.185378 0.179285 0.180728 0.182543 0.184224 0.185664 0.186876 0.187864 0.188619 0.189202 0.189671 0.189953 0.189983 0.189821 0.189369 0.18854 0.187235 0.185347 0.182842 0.179258 0.174203 0.166871 0.155937 0.140316 0.122813 0.108038 0.102255 0.100656 0.264894 0.265332 0.267315 0.269368 0.271823 0.274797 0.277776 0.280983 0.284702 0.288224 0.291853 0.295648 0.299279 0.302872 0.306566 0.310288 0.313677 0.31734 0.319624 0.321352 0.322399 0.322983 0.32275 0.321795 0.320198 0.318926 0.317139 0.317 0.316796 0.316503 0.315986 0.314774 0.314532 0.314882 0.315573 0.316909 0.318489 0.320828 0.323423 0.326331 0.322004 0.243827 0.18286 0.179618 0.180902 0.182572 0.184183 0.185567 0.186716 0.187648 0.188371 0.188917 0.189329 0.189513 0.189456 0.189191 0.188651 0.187858 0.186791 0.185228 0.183178 0.180456 0.176312 0.169744 0.159579 0.144355 0.126456 0.109885 0.102743 0.10078 0.262883 0.26338 0.265374 0.267555 0.270219 0.273053 0.276031 0.279644 0.283156 0.286814 0.290738 0.294694 0.298752 0.302966 0.307165 0.311365 0.315599 0.319515 0.322207 0.324435 0.326092 0.327179 0.327764 0.32754 0.326395 0.325399 0.32387 0.323298 0.322371 0.321595 0.320874 0.319974 0.31958 0.319824 0.320241 0.32089 0.322035 0.323582 0.325696 0.328231 0.314539 0.234431 0.180168 0.179699 0.181042 0.182657 0.184151 0.185467 0.186578 0.187477 0.188172 0.188676 0.189035 0.189145 0.189057 0.188752 0.18816 0.187301 0.186272 0.18494 0.183156 0.180682 0.176908 0.171118 0.161872 0.147521 0.129634 0.111897 0.103252 0.100903 0.261337 0.261846 0.263818 0.266134 0.268759 0.271457 0.274829 0.278302 0.281995 0.286144 0.290491 0.29517 0.299978 0.304716 0.309178 0.313442 0.318105 0.321716 0.324977 0.327733 0.329917 0.331412 0.332419 0.332896 0.332403 0.331601 0.330346 0.329508 0.328141 0.327042 0.325946 0.324892 0.324153 0.323932 0.324079 0.324139 0.324473 0.325603 0.327265 0.32951 0.304544 0.223159 0.178908 0.179928 0.181256 0.182773 0.184179 0.185429 0.186487 0.187338 0.187999 0.188468 0.1888 0.188855 0.188722 0.188423 0.187941 0.187212 0.186197 0.184961 0.183436 0.181433 0.178296 0.173188 0.164355 0.150537 0.132482 0.113805 0.103754 0.101024 0.260088 0.260644 0.262627 0.264908 0.267291 0.27027 0.273582 0.277263 0.281498 0.286004 0.290743 0.295707 0.300743 0.305853 0.310745 0.315595 0.320776 0.324471 0.327903 0.33088 0.333457 0.335441 0.33671 0.337567 0.337667 0.337067 0.335931 0.334937 0.333382 0.332108 0.330698 0.329462 0.328387 0.327716 0.327352 0.327141 0.326922 0.327241 0.328303 0.330026 0.293189 0.212677 0.179139 0.180185 0.181466 0.182894 0.184205 0.185378 0.186396 0.187233 0.187878 0.188318 0.1886 0.18864 0.188521 0.188181 0.187649 0.186979 0.186119 0.185013 0.183586 0.18167 0.178636 0.173951 0.165717 0.152767 0.134739 0.115542 0.104237 0.101135 0.259211 0.259713 0.261698 0.263845 0.266546 0.269801 0.273605 0.27818 0.28303 0.287999 0.292982 0.297976 0.302982 0.307916 0.312745 0.317597 0.322664 0.327175 0.330917 0.334107 0.336766 0.339004 0.3406 0.341549 0.342076 0.341812 0.340802 0.339768 0.338194 0.33683 0.335202 0.3338 0.332311 0.331169 0.330438 0.329315 0.328599 0.328731 0.329523 0.330966 0.279711 0.201999 0.179444 0.180442 0.181726 0.183059 0.184298 0.185407 0.186369 0.187168 0.187791 0.188227 0.188458 0.188453 0.188292 0.187962 0.187433 0.186712 0.185856 0.184823 0.183596 0.182041 0.179544 0.175431 0.167475 0.154837 0.136709 0.117209 0.104709 0.101235 0.258699 0.259092 0.260948 0.263259 0.266102 0.269351 0.273199 0.277519 0.282198 0.287207 0.292411 0.297753 0.303254 0.308846 0.31436 0.319586 0.324469 0.329654 0.33358 0.337059 0.339862 0.342095 0.343916 0.345063 0.345627 0.345702 0.344948 0.343844 0.342263 0.340798 0.338937 0.337224 0.335652 0.334022 0.332354 0.331001 0.330051 0.33003 0.33072 0.331979 0.265471 0.194213 0.179716 0.180664 0.18192 0.183217 0.184399 0.185447 0.186355 0.187113 0.187706 0.188118 0.188366 0.188416 0.188296 0.187952 0.187441 0.186775 0.186036 0.185132 0.184052 0.182559 0.179994 0.175957 0.168354 0.156492 0.138567 0.118701 0.105085 0.101311 0.258504 0.258939 0.261117 0.264013 0.267275 0.270859 0.274656 0.278836 0.283464 0.288517 0.293899 0.299421 0.305114 0.310899 0.316591 0.321756 0.326594 0.332178 0.335863 0.339325 0.342388 0.344719 0.346597 0.347897 0.348591 0.348735 0.348172 0.346987 0.345356 0.343666 0.341624 0.340019 0.337938 0.335561 0.333767 0.332333 0.33124 0.331209 0.331849 0.328762 0.254474 0.188651 0.179942 0.180888 0.182112 0.183352 0.184492 0.185513 0.186391 0.187109 0.187667 0.188049 0.18826 0.188281 0.188161 0.187858 0.187408 0.186778 0.18604 0.185059 0.183936 0.182529 0.180304 0.176834 0.169619 0.157861 0.139635 0.119599 0.105365 0.101364 0.258421 0.258771 0.260653 0.263136 0.266062 0.269406 0.273298 0.27775 0.282675 0.287979 0.29355 0.29928 0.305127 0.310975 0.31678 0.322483 0.328011 0.33295 0.337591 0.341233 0.344188 0.346749 0.348649 0.350089 0.350718 0.350815 0.350352 0.349233 0.34762 0.345868 0.343665 0.341672 0.339327 0.336828 0.334966 0.33345 0.332347 0.332289 0.33275 0.32516 0.249551 0.186242 0.180154 0.181056 0.182248 0.183438 0.184529 0.185509 0.186357 0.187054 0.187583 0.18795 0.188164 0.188175 0.188025 0.187699 0.187233 0.186598 0.185914 0.185053 0.184079 0.182788 0.180592 0.177041 0.169764 0.158375 0.140585 0.120578 0.105637 0.101403 0.258464 0.259217 0.261642 0.264304 0.26753 0.27124 0.275462 0.280146 0.285241 0.29065 0.296298 0.302094 0.307972 0.313854 0.319579 0.325049 0.330206 0.335049 0.339205 0.343089 0.34601 0.348509 0.350582 0.351593 0.352222 0.352175 0.351744 0.350733 0.349159 0.347245 0.344907 0.342387 0.339941 0.337546 0.33564 0.334084 0.333026 0.332977 0.333527 0.320641 0.243901 0.183946 0.180225 0.181134 0.182324 0.183496 0.184568 0.185524 0.186346 0.187016 0.18752 0.187874 0.188086 0.188134 0.188065 0.187829 0.187449 0.186896 0.186249 0.185374 0.184333 0.182989 0.180855 0.177535 0.170688 0.159641 0.141636 0.121156 0.10571 0.101408 0.25692 0.257331 0.259382 0.261896 0.264827 0.268235 0.272173 0.276607 0.281472 0.286696 0.292185 0.297849 0.303611 0.30939 0.31509 0.320621 0.325877 0.330782 0.335274 0.339159 0.342526 0.34527 0.347613 0.349043 0.350058 0.350416 0.350199 0.349561 0.34837 0.346655 0.344651 0.342347 0.340037 0.337792 0.335937 0.334432 0.333445 0.333416 0.333976 0.315234 0.237968 0.182132 0.180262 0.18116 0.182324 0.183466 0.184528 0.185488 0.186315 0.186989 0.187509 0.187877 0.188052 0.188054 0.18791 0.187619 0.187193 0.186625 0.185972 0.185202 0.184312 0.18303 0.180958 0.177716 0.170864 0.15972 0.141616 0.121136 0.105719 0.101411
				</DataArray>
				<DataArray Name="Energy" type="Float32" format="ascii">