<?xml version="1.0"?>
<VTKFile type="PolyData">
	<PolyData>
		<Piece NumberOfPoints="2201" NumberOfPolys="2100">
			<Points>
				<DataArray type="Float32" NumberOfComponents="3" format="ascii">
 0 0 0 0.001 0 0 0.002 0 0 0.003 0 0 0.004 0 0 0.005 0 0 0.006 0 0 0.007 0 0 0.008 0 0 0.009 0 0 0.01 0 0 0.011 0 0 0.012 0 0 0.013 0 0 0.014 0 0 0.015 0 0 0.016 0 0 0.017 0 0 0.018 0 0 0.019 0 0 0.02 0 0 0.021 0 0 0.022 0 0 0.023 0 0 0.024 0 0 0.025 0 0 0.026 0 0 0.027 0 0 0.028 0 0 0.029 0 0 0.03 0 0 0.031 0 0 0.032 0 0 0.033 0 0 0.034 0 0 0.035 0 0 0.036 0 0 0.037 0 0 0.038 0 0 0.039 0 0 0.04 0 0 0.041 0 0 0.042 0 0 0.043 0 0 0.044 0 0 0.045 0 0 0.046 0 0 0.047 0 0 0.048 0 0 0.049 0 0 0.05 0 0 0.051 0 0 0.052 0 0 0.053 0 0 0.054 0 0 0.055 0 0 0.056 0 0 0.057 0 0 0.058 0 0 0.059 0 0 0.06 0 0 0.061 0 0 0.062 0 0 0.063 0 0 0.064 0 0 0.065 0 0 0.066 0 0 0.067 0 0 0.068 0 0 0.069 0 0 0.07 0 0 0 0.001 0 0.001 0.001 0 0.002 0.001 0 0.003 0.001 0 0.004 0.001 0 0.005 0.001 0 0.006 0.001 0 0.007 0.001 0 0.008 0.001 0 0.009 0.001 0 0.01 0.001 0 0.011 0.001 0 0.012 0.001 0 0.013 0.001 0 0.014 0.001 0 0.015 0.001 0 0.016 0.001 0 0.017 0.001 0 0.018 0.001 0 0.019 0.001 0 0.02 0.001 0 0.021 0.001 0 0.022 0.001 0 0.023 0.001 0 0.024 0.001 0 0.025 0.001 0 0.026 0.001 0 0.027 0.001 0 0.028 0.001 0 0.029 0.001 0 0.03 0.001 0 0.031 0.001 0 0.032 0.001 0 0.033 0.001 0 0.034 0.001 0 0.035 0.001 0 0.036 0.001 0 0.037 0.001 0 0.038 0.001 0 0.039 0.001 0 0.04 0.001 0 0.041 0.001 0 0.042 0.001 0 0.043 0.001 0 0.044 0.001 0 0.045 0.001 0 0.046 0.001 0 0.047 0.001 0 0.048 0.001 0 0.049 0.001 0 0.05 0.001 0 0.051 0.001 0 0.052 0.001 0 0.053 0.001 0 0.054 0.001 0 0.055 0.001 0 0.056 0.001 0 0.057 0.001 0 0.058 0.001 0 0.059 0.001 0 0.06 0.001 0 0.061 0.001 0 0.062 0.001 0 0.063 0.001 0 0.064 0.001 0 0.065 0.001 0 0.066 0.001 0 0.067 0.001 0 0.068 0.001 0 0.069 0.001 0 0.07 0.001 0 0 0.002 0 0.001 0.002 0 0.002 0.002 0 0.003 0.002 0 0.004 0.002 0 0.005 0.002 0 0.006 0.002 0 0.007 0.002 0 0.008 0.002 0 0.009 0.002 0 0.01 0.002 0 0.011 0.002 0 0.012 0.002 0 0.013 0.002 0 0.014 0.002 0 0.015 0.002 0 0.016 0.002 0 0.017 0.002 0 0.018 0.002 0 0.019 0.002 0 0.02 0.002 0 0.021 0.002 0 0.022 0.002 0 0.023 0.002 0 0.024 0.002 0 0.025 0.002 0 0.026 0.002 0 0.027 0.002 0 0.028 0.002 0 0.029 0.002 0 0.03 0.002 0 0.031 0.002 0 0.032 0.002 0 0.033 0.002 0 0.034 0.002 0 0.035 0.002 0 0.036 0.002 0 0.037 0.002 0 0.038 0.002 0 0.039 0.002 0 0.04 0.002 0 0.041 0.002 0 0.042 0.002 0 0.043 0.002 0 0.044 0.002 0 0.045 0.002 0 0.046 0.002 0 0.047 0.002 0 0.048 0.002 0 0.049 0.002 0 0.05 0.002 0 0.051 0.002 0 0.052 0.002 0 0.053 0.002 0 0.054 0.002 0 0.055 0.002 0 0.056 0.002 0 0.057 0.002 0 0.058 0.002 0 0.059 0.002 0 0.06 0.002 0 0.061 0.002 0 0.062 0.002 0 0.063 0.002 0 0.064 0.002 0 0.065 0.002 0 0.066 0.002 0 0.067 0.002 0 0.068 0.002 0 0.069 0.002 0 0.07 0.002 0 0 0.003 0 0.001 0.003 0 0.002 0.003 0 0.003 0.003 0 0.004 0.003 0 0.005 0.003 0 0.006 0.003 0 0.007 0.003 0 0.008 0.003 0 0.009 0.003 0 0.01 0.003 0 0.011 0.003 0 0.012 0.003 0 0.013 0.003 0 0.014 0.003 0 0.015 0.003 0 0.016 0.003 0 0.017 0.003 0 0.018 0.003 0 0.019 0.003 0 0.02 0.003 0 0.021 0.003 0 0.022 0.003 0 0.023 0.003 0 0.024 0.003 0 0.025 0.003 0 0.026 0.003 0 0.027 0.003 0 0.028 0.003 0 0.029 0.003 0 0.03 0.003 0 0.031 0.003 0 0.032 0.003 0 0.033 0.003 0 0.034 0.003 0 0.035 0.003 0 0.036 0.003 0 0.037 0.003 0 0.038 0.003 0 0.039 0.003 0 0.04 0.003 0 0.041 0.003 0 0.042 0.003 0 0.043 0.003 0 0.044 0.003 0 0.045 0.003 0 0.046 0.003 0 0.047 0.003 0 0.048 0.003 0 0.049 0.003 0 0.05 0.003 0 0.051 0.003 0 0.052 0.003 0 0.053 0.003 0 0.054 0.003 0 0.055 0.003 0 0.056 0.003 0 0.057 0.003 0 0.058 0.003 0 0.059 0.003 0 0.06 0.003 0 0.061 0.003 0 0.062 0.003 0 0.063 0.003 0 0.064 0.003 0 0.065 0.003 0 0.066 0.003 0 0.067 0.003 0 0.068 0.003 0 0.069 0.003 0 0.07 0.003 0 0 0.004 0 0.001 0.004 0 0.002 0.004 0 0.003 0.004 0 0.004 0.004 0 0.005 0.004 0 0.006 0.004 0 0.007 0.004 0 0.008 0.004 0 0.009 0.004 0 0.01 0.004 0 0.011 0.004 0 0.012 0.004 0 0.013 0.004 0 0.014 0.004 0 0.015 0.004 0 0.016 0.004 0 0.017 0.004 0 0.018 0.004 0 0.019 0.004 0 0.02 0.004 0 0.021 0.004 0 0.022 0.004 0 0.023 0.004 0 0.024 0.004 0 0.025 0.004 0 0.026 0.004 0 0.027 0.004 0 0.028 0.004 0 0.029 0.004 0 0.03 0.004 0 0.031 0.004 0 0.032 0.004 0 0.033 0.004 0 0.034 0.004 0 0.035 0.004 0 0.036 0.004 0 0.037 0.004 0 0.038 0.004 0 0.039 0.004 0 0.04 0.004 0 0.041 0.004 0 0.042 0.004 0 0.043 0.004 0 0.044 0.004 0 0.045 0.004 0 0.046 0.004 0 0.047 0.004 0 0.048 0.004 0 0.049 0.004 0 0.05 0.004 0 0.051 0.004 0 0.052 0.004 0 0.053 0.004 0 0.054 0.004 0 0.055 0.004 0 0.056 0.004 0 0.057 0.004 0 0.058 0.004 0 0.059 0.004 0 0.06 0.004 0 0.061 0.004 0 0.062 0.004 0 0.063 0.004 0 0.064 0.004 0 0.065 0.004 0 0.066 0.004 0 0.067 0.004 0 0.068 0.004 0 0.069 0.004 0 0.07 0.004 0 0 0.005 0 0.001 0.005 0 0.002 0.005 0 0.003 0.005 0 0.004 0.005 0 0.005 0.005 0 0.006 0.005 0 0.007 0.005 0 0.008 0.005 0 0.009 0.005 0 0.01 0.005 0 0.011 0.005 0 0.012 0.005 0 0.013 0.005 0 0.014 0.005 0 0.015 0.005 0 0.016 0.005 0 0.017 0.005 0 0.018 0.005 0 0.019 0.005 0 0.02 0.005 0 0.021 0.005 0 0.022 0.005 0 0.023 0.005 0 0.024 0.005 0 0.025 0.005 0 0.026 0.005 0 0.027 0.005 0 0.028 0.005 0 0.029 0.005 0 0.03 0.005 0 0.031 0.005 0 0.032 0.005 0 0.033 0.005 0 0.034 0.005 0 0.035 0.005 0 0.036 0.005 0 0.037 0.005 0 0.038 0.005 0 0.039 0.005 0 0.04 0.005 0 0.041 0.005 0 0.042 0.005 0 0.043 0.005 0 0.044 0.005 0 0.045 0.005 0 0.046 0.005 0 0.047 0.005 0 0.048 0.005 0 0.049 0.005 0 0.05 0.005 0 0.051 0.005 0 0.052 0.005 0 0.053 0.005 0 0.054 0.005 0 0.055 0.005 0 0.056 0.005 0 0.057 0.005 0 0.058 0.005 0 0.059 0.005 0 0.06 0.005 0 0.061 0.005 0 0.062 0.005 0 0.063 0.005 0 0.064 0.005 0 0.065 0.005 0 0.066 0.005 0 0.067 0.005 0 0.068 0.005 0 0.069 0.005 0 0.07 0.005 0 0 0.006 0 0.001 0.006 0 0.002 0.006 0 0.003 0.006 0 0.004 0.006 0 0.005 0.006 0 0.006 0.006 0 0.007 0.006 0 0.008 0.006 0 0.009 0.006 0 0.01 0.006 0 0.011 0.006 0 0.012 0.006 0 0.013 0.006 0 0.014 0.006 0 0.015 0.006 0 0.016 0.006 0 0.017 0.006 0 0.018 0.006 0 0.019 0.006 0 0.02 0.006 0 0.021 0.006 0 0.022 0.006 0 0.023 0.006 0 0.024 0.006 0 0.025 0.006 0 0.026 0.006 0 0.027 0.006 0 0.028 0.006 0 0.029 0.006 0 0.03 0.006 0 0.031 0.006 0 0.032 0.006 0 0.033 0.006 0 0.034 0.006 0 0.035 0.006 0 0.036 0.006 0 0.037 0.006 0 0.038 0.006 0 0.039 0.006 0 0.04 0.006 0 0.041 0.006 0 0.042 0.006 0 0.043 0.006 0 0.044 0.006 0 0.045 0.006 0 0.046 0.006 0 0.047 0.006 0 0.048 0.006 0 0.049 0.006 0 0.05 0.006 0 0.051 0.006 0 0.052 0.006 0 0.053 0.006 0 0.054 0.006 0 0.055 0.006 0 0.056 0.006 0 0.057 0.006 0 0.058 0.006 0 0.059 0.006 0 0.06 0.006 0 0.061 0.006 0 0.062 0.006 0 0.063 0.006 0 0.064 0.006 0 0.065 0.006 0 0.066 0.006 0 0.067 0.006 0 0.068 0.006 0 0.069 0.006 0 0.07 0.006 0 0 0.007 0 0.001 0.007 0 0.002 0.007 0 0.003 0.007 0 0.004 0.007 0 0.005 0.007 0 0.006 0.007 0 0.007 0.007 0 0.008 0.007 0 0.009 0.007 0 0.01 0.007 0 0.011 0.007 0 0.012 0.007 0 0.013 0.007 0 0.014 0.007 0 0.015 0.007 0 0.016 0.007 0 0.017 0.007 0 0.018 0.007 0 0.019 0.007 0 0.02 0.007 0 0.021 0.007 0 0.022 0.007 0 0.023 0.007 0 0.024 0.007 0 0.025 0.007 0 0.026 0.007 0 0.027 0.007 0 0.028 0.007 0 0.029 0.007 0 0.03 0.007 0 0.031 0.007 0 0.032 0.007 0 0.033 0.007 0 0.034 0.007 0 0.035 0.007 0 0.036 0.007 0 0.037 0.007 0 0.038 0.007 0 0.039 0.007 0 0.04 0.007 0 0.041 0.007 0 0.042 0.007 0 0.043 0.007 0 0.044 0.007 0 0.045 0.007 0 0.046 0.007 0 0.047 0.007 0 0.048 0.007 0 0.049 0.007 0 0.05 0.007 0 0.051 0.007 0 0.052 0.007 0 0.053 0.007 0 0.054 0.007 0 0.055 0.007 0 0.056 0.007 0 0.057 0.007 0 0.058 0.007 0 0.059 0.007 0 0.06 0.007 0 0.061 0.007 0 0.062 0.007 0 0.063 0.007 0 0.064 0.007 0 0.065 0.007 0 0.066 0.007 0 0.067 0.007 0 0.068 0.007 0 0.069 0.007 0 0.07 0.007 0 0 0.008 0 0.001 0.008 0 0.002 0.008 0 0.003 0.008 0 0.004 0.008 0 0.005 0.008 0 0.006 0.008 0 0.007 0.008 0 0.008 0.008 0 0.009 0.008 0 0.01 0.008 0 0.011 0.008 0 0.012 0.008 0 0.013 0.008 0 0.014 0.008 0 0.015 0.008 0 0.016 0.008 0 0.017 0.008 0 0.018 0.008 0 0.019 0.008 0 0.02 0.008 0 0.021 0.008 0 0.022 0.008 0 0.023 0.008 0 0.024 0.008 0 0.025 0.008 0 0.026 0.008 0 0.027 0.008 0 0.028 0.008 0 0.029 0.008 0 0.03 0.008 0 0.031 0.008 0 0.032 0.008 0 0.033 0.008 0 0.034 0.008 0 0.035 0.008 0 0.036 0.008 0 0.037 0.008 0 0.038 0.008 0 0.039 0.008 0 0.04 0.008 0 0.041 0.008 0 0.042 0.008 0 0.043 0.008 0 0.044 0.008 0 0.045 0.008 0 0.046 0.008 0 0.047 0.008 0 0.048 0.008 0 0.049 0.008 0 0.05 0.008 0 0.051 0.008 0 0.052 0.008 0 0.053 0.008 0 0.054 0.008 0 0.055 0.008 0 0.056 0.008 0 0.057 0.008 0 0.058 0.008 0 0.059 0.008 0 0.06 0.008 0 0.061 0.008 0 0.062 0.008 0 0.063 0.008 0 0.064 0.008 0 0.065 0.008 0 0.066 0.008 0 0.067 0.008 0 0.068 0.008 0 0.069 0.008 0 0.07 0.008 0 0 0.009 0 0.001 0.009 0 0.002 0.009 0 0.003 0.009 0 0.004 0.009 0 0.005 0.009 0 0.006 0.009 0 0.007 0.009 0 0.008 0.009 0 0.009 0.009 0 0.01 0.009 0 0.011 0.009 0 0.012 0.009 0 0.013 0.009 0 0.014 0.009 0 0.015 0.009 0 0.016 0.009 0 0.017 0.009 0 0.018 0.009 0 0.019 0.009 0 0.02 0.009 0 0.021 0.009 0 0.022 0.009 0 0.023 0.009 0 0.024 0.009 0 0.025 0.009 0 0.026 0.009 0 0.027 0.009 0 0.028 0.009 0 0.029 0.009 0 0.03 0.009 0 0.031 0.009 0 0.032 0.009 0 0.033 0.009 0 0.034 0.009 0 0.035 0.009 0 0.036 0.009 0 0.037 0.009 0 0.038 0.009 0 0.039 0.009 0 0.04 0.009 0 0.041 0.009 0 0.042 0.009 0 0.043 0.009 0 0.044 0.009 0 0.045 0.009 0 0.046 0.009 0 0.047 0.009 0 0.048 0.009 0 0.049 0.009 0 0.05 0.009 0 0.051 0.009 0 0.052 0.009 0 0.053 0.009 0 0.054 0.009 0 0.055 0.009 0 0.056 0.009 0 0.057 0.009 0 0.058 0.009 0 0.059 0.009 0 0.06 0.009 0 0.061 0.009 0 0.062 0.009 0 0.063 0.009 0 0.064 0.009 0 0.065 0.009 0 0.066 0.009 0 0.067 0.009 0 0.068 0.009 0 0.069 0.009 0 0.07 0.009 0 0 0.01 0 0.001 0.01 0 0.002 0.01 0 0.003 0.01 0 0.004 0.01 0 0.005 0.01 0 0.006 0.01 0 0.007 0.01 0 0.008 0.01 0 0.009 0.01 0 0.01 0.01 0 0.011 0.01 0 0.012 0.01 0 0.013 0.01 0 0.014 0.01 0 0.015 0.01 0 0.016 0.01 0 0.017 0.01 0 0.018 0.01 0 0.019 0.01 0 0.02
[...]
			<CellData Scalars="Density">
				<DataArray Name="Density" type="Float32" format="ascii">
 0.250343 0.251145 0.251085 0.250871 0.250519 0.250101 0.249669 0.24923 0.248867 0.248571 0.248448 0.248481 0.24869 0.249106 0.249698 0.250462 0.25138 0.252412 0.253554 0.254886 0.256455 0.258603 0.261285 0.265215 0.270301 0.313408 0.691471 1.09236 1.5241 1.74799 1.88405 2.074 2.27311 2.47812 2.68465 2.88771 3.09083 3.29224 3.45312 3.59033 3.57987 3.4264 3.03613 2.38572 1.67643 1.30774 1.17055 1.10199 1.06429 1.03959 1.02378 1.0141 1.00844 1.00498 1.0029 1.0017 1.00098 1.00056 1.00032 1.00018 1.0001 1.00005 1.00003 1.00002 1.00001 1 1 1 1 1 0.249359 0.250131 0.250101 0.249859 0.24954 0.249115 0.248699 0.248277 0.247959 0.24768 0.247526 0.247488 0.247623 0.24791 0.248394 0.24901 0.249761 0.250614 0.251567 0.252666 0.2541 0.256054 0.258753 0.262455 0.267045 0.368012 0.747259 1.14503 1.53565 1.71179 1.85278 2.03253 2.22483 2.42107 2.61235 2.8059 2.99178 3.17082 3.32212 3.45997 3.40693 3.22977 2.89711 2.39993 1.83418 1.49247 1.33984 1.25352 1.18447 1.12109 1.07504 1.04583 1.02788 1.01642 1.00976 1.00578 1.00332 1.00194 1.00111 1.00062 1.00036 1.00019 1.00011 1.00006 1.00003 1.00002 1.00001 1.00001 1 1 0.249247 0.250035 0.24996 0.24976 0.249415 0.249004 0.248581 0.24815 0.247805 0.247491 0.247353 0.24734 0.247507 0.247885 0.248404 0.249019 0.249761 0.250622 0.251525 0.252663 0.25392 0.255556 0.25787 0.261133 0.265194 0.379369 0.759004 1.15769 1.52896 1.677 1.8026 1.97112 2.15313 2.33128 2.51197 2.69322 2.85635 3.01954 3.15258 3.26487 3.19903 3.04739 2.7685 2.36227 1.92429 1.65983 1.52582 1.44846 1.38232 1.30811 1.2347 1.16457 1.10579 1.06446 1.0394 1.02346 1.01369 1.00811 1.00463 1.00266 1.00153 1.00083 1.00048 1.00026 1.00014 1.00008 1.00004 1.00002 1.00001 1.00001 0.249146 0.249916 0.249853 0.249639 0.249333 0.248926 0.248531 0.248112 0.247791 0.247471 0.247348 0.247309 0.247459 0.247741 0.248186 0.248782 0.249441 0.250129 0.251005 0.251846 0.252977 0.254583 0.256417 0.259469 0.262828 0.420561 0.802028 1.18917 1.49965 1.61929 1.7415 1.89712 2.05964 2.22428 2.39154 2.55542 2.70749 2.86182 2.98701 3.0755 3.00484 2.85573 2.6073 2.28202 1.95093 1.764 1.67576 1.62208 1.57381 1.51205 1.44362 1.36964 1.29362 1.21758 1.14801 1.09205 1.05569 1.03342 1.01936 1.0114 1.0065 1.00365 1.00208 1.00114 1.00064 1.00036 1.0002 1.00011 1.00006 1.00004 0.248996 0.249762 0.249687 0.2495 0.249183 0.248798 0.248407 0.248002 0.247686 0.247358 0.247267 0.247246 0.247311 0.247599 0.248042 0.248513 0.249087 0.249754 0.250322 0.251074 0.252145 0.253239 0.254952 0.257271 0.260135 0.444445 0.829396 1.21549 1.46499 1.5677 1.67625 1.81573 1.96406 2.11692 2.26585 2.42201 2.56944 2.71366 2.83979 2.88996 2.82109 2.65823 2.4108 2.13722 1.91437 1.80041 1.75506 1.72797 1.70719 1.67353 1.62713 1.5699 1.50413 1.4314 1.35491 1.27554 1.19803 1.12903 1.07822 1.04684 1.02718 1.01569 1.00889 1.005 1.00286 1.00161 1.00091 1.00052 1.0003 1.00017 0.248818 0.249565 0.249504 0.249311 0.249014 0.248635 0.248256 0.247851 0.247538 0.247214 0.247147 0.247081 0.247182 0.247438 0.247742 0.24822 0.248729 0.249077 0.249611 0.250283 0.250857 0.251791 0.253011 0.254673 0.257229 0.490322 0.875076 1.24595 1.42568 1.51769 1.61594 1.74386 1.88345 2.01886 2.15665 2.30238 2.4401 2.56981 2.69571 2.69637 2.60987 2.44127 2.20767 1.97888 1.84161 1.78906 1.77579 1.77183 1.7703 1.76122 1.7411 1.71378 1.67554 1.62406 1.56253 1.49154 1.41519 1.33474 1.25229 1.17349 1.10803 1.06412 1.03719 1.02158 1.01227 1.00701 1.00409 1.0024 1.0014 1.00083 0.248599 0.249352 0.249282 0.249116 0.248833 0.248464 0.248077 0.247668 0.24736 0.24705 0.246959 0.246914 0.246968 0.247144 0.247518 0.247867 0.248167 0.248561 0.248892 0.249161 0.24956 0.250163 0.251039 0.252314 0.254068 0.525137 0.906583 1.2586 1.39058 1.46796 1.56624 1.68608 1.81064 1.92942 2.0619 2.1833 2.30606 2.41458 2.5221 2.48885 2.37932 2.22238 2.02052 1.84826 1.75631 1.73856 1.75135 1.76836 1.78095 1.78872 1.78979 1.78368 1.77224 1.74716 1.71464 1.66986 1.61485 1.54947 1.47485 1.39414 1.30882 1.22342 1.14609 1.08794 1.05124 1.03037 1.01818 1.01081 1.00657 1.00442 0.248381 0.249128 0.249084 0.248933 0.248666 0.248302 0.247913 0.24751 0.247197 0.246874 0.246767 0.246715 0.24674 0.246945 0.247156 0.247439 0.247798 0.247932 0.248035 0.248127 0.248199 0.248581 0.249227 0.249946 0.251012 0.55091 0.935703 1.26291 1.3556 1.42526 1.52614 1.65119 1.74747 1.85574 1.94095 2.05063 2.15592 2.24559 2.31649 2.26036 2.15032 1.99707 1.82996 1.7131 1.66856 1.67182 1.69654 1.72476 1.75162 1.77442 1.78964 1.79841 1.80367 1.79995 1.79093 1.77419 1.74982 1.71401 1.66626 1.60512 1.53313 1.45488 1.37075 1.28266 1.19814 1.1266 1.07728 1.04794 1.03428 1.02758 0.248217 0.248966 0.248938 0.248799 0.248538 0.248188 0.247796 0.247399 0.247052 0.246751 0.246598 0.24653 0.246549 0.246616 0.246848 0.247164 0.247271 0.247376 0.247345 0.247131 0.247052 0.247166 0.24732 0.247725 0.248263 0.562567 0.955186 1.25537 1.32922 1.39786 1.48063 1.58744 1.67982 1.76268 1.83628 1.91778 1.99208 2.03758 2.05584 1.99214 1.85408 1.70165 1.59219 1.5418 1.54862 1.58602 1.62713 1.66056 1.68977 1.71816 1.74546 1.76923 1.78958 1.79907 1.80495 1.80626 1.80432 1.79743 1.77959 1.75131 1.71207 1.65971 1.59768 1.52224 1.44344 1.36387 1.30092 1.24812 1.21493 1.1955 0.248101 0.248849 0.248834 0.248704 0.248455 0.248108 0.247725 0.247311 0.246971 0.246666 0.246451 0.246386 0.246329 0.246407 0.246631 0.246759 0.246919 0.246975 0.246715 0.246467 0.246097 0.245841 0.245691 0.245893 0.24603 0.554406 0.963294 1.24262 1.30501 1.36848 1.43605 1.52451 1.60937 1.67878 1.72968 1.76536 1.7849 1.79698 1.65935 1.34359 1.08917 0.958101 0.913893 0.920614 0.972491 1.04884 1.13869 1.23911 1.3438 1.44294 1.53067 1.61123 1.68166 1.73604 1.77152 1.78949 1.79925 1.80593 1.80818 1.80508 1.79867 1.7834 1.75275 1.71926 1.68365 1.65877 1.67124 1.70614 1.74794 1.73194 0.248151 0.248865 0.248832 0.248688 0.24841 0.248065 0.247653 0.247266 0.24693 0.246633 0.246418 0.246294 0.246218 0.246252 0.246335 0.246514 0.246678 0.246628 0.246457 0.246063 0.245458 0.244935 0.244528 0.244474 0.244119 0.537082 0.963621 1.22621 1.27902 1.33235 1.39696 1.46698 1.53081 1.58366 1.59729 1.60374 1.58754 1.2837 0.942559 0.604532 0.34573 0.248192 0.226607 0.238519 0.27464 0.326622 0.39093 0.466315 0.559418 0.663302 0.766038 0.894699 1.01836 1.135 1.25296 1.36868 1.47475 1.57458 1.68186 1.76475 1.80413 1.81745 1.82668 1.84691 1.88792 1.97211 2.06301 2.16493 2.22107 2.23213 0.248366 0.249062 0.249066 0.248931 0.248681 0.248313 0.247903 0.247496 0.247117 0.24682 0.246591 0.246506 0.246481 0.246509 0.246639 0.24679 0.246857 0.24683 0.246572 0.246053 0.24533 0.244554 0.243978 0.243605 0.242887 0.478463 0.940148 1.20678 1.25162 1.29608 1.35514 1.40934 1.45888 1.48278 1.48073 1.43064 1.10318 0.731537 0.336246 0.153266 0.145456 0.145056 0.144981 0.14546 0.147576 0.149805 0.152576 0.155206 0.157832 0.160613 0.163212 0.165284 0.230161 0.317687 0.406018 0.502659 0.597737 0.700735 0.872043 1.07363 1.22131 1.35633 1.50426 1.67259 1.84844 2.00908 2.11893 2.11518 2.02164 2.07064 0.248826 0.249457 0.249459 0.24934 0.249065 0.248691 0.248288 0.24787 0.247529 0.247245 0.247093 0.247023 0.247056 0.247144 0.247315 0.247514 0.247648 0.247661 0.247408 0.246826 0.245962 0.244916 0.244226 0.243462 0.242465 0.450458 0.873131 1.18257 1.2281 1.26742 1.30698 1.35502 1.38956 1.39988 1.37092 1.07293 0.708581 0.293552 0.141233 0.142669 0.160863 0.175102 0.182348 0.183945 0.175496 0.168994 0.161541 0.155348 0.157572 0.160318 0.162531 0.164457 0.166186 0.167729 0.169027 0.17033 0.171707 0.173271 0.175279 0.211779 0.315787 0.413262 0.533364 0.676335 0.810065 0.896954 0.905734 0.79407 0.661231 0.710459 0.24955 0.250062 0.250163 0.249984 0.249706 0.249341 0.248967 0.248595 0.248332 0.248094 0.248085 0.248037 0.248151 0.248336 0.248551 0.248787 0.248997 0.249025 0.248792 0.248251 0.247345 0.246234 0.245486 0.24439 0.243592 0.352244 0.853964 1.1744 1.20808 1.23989 1.27054 1.30374 1.33112 1.35562 1.12419 0.781392 0.388682 0.139723 0.148625 0.177717 0.207339 0.236151 0.259339 0.2659 0.26974 0.259994 0.242882 0.212807 0.174554 0.159481 0.161729 0.163772 0.165417 0.167186 0.168873 0.170415 0.171903 0.173378 0.174907 0.177048 0.181183 0.190268 0.20598 0.226212 0.245614 0.261337 0.274768 0.284899 0.290696 0.294489 0.250633 0.251013 0.251313 0.250936 0.25082 0.250424 0.250154 0.249835 0.249721 0.249514 0.249603 0.24964 0.249823 0.250057 0.250387 0.250666 0.250913 0.251074 0.250911 0.250502 0.249633 0.248616 0.24752 0.246356 0.245504 0.252049 0.705695 1.14491 1.19673 1.22141 1.24566 1.2763 1.30171 1.2387 0.900158 0.530958 0.176697 0.136635 0.148729 0.174684 0.201872 0.244161 0.286315 0.29269 0.278683 0.277455 0.28431 0.290215 0.274124 0.207791 0.16357 0.162766 0.164541 0.166371 0.168266 0.169932 0.171509 0.173078 0.174951 0.177946 0.183893 0.194954 0.213755 0.23543 0.254273 0.268997 0.280138 0.287953 0.293591 0.295825 0.252013 0.252221 0.252778 0.252239 0.25247 0.251947 0.251936 0.251618 0.25165 0.251493 0.251694 0.251808 0.252129 0.252426 0.252824 0.253256 0.253589 0.253889 0.253834 0.253581 0.252791 0.252063 0.250455 0.249588 0.248194 0.248934 0.499439 0.898436 1.18276 1.21298 1.23443 1.26048 1.28459 1.01449 0.702269 0.358543 0.138156 0.135137 0.135427 0.14581 0.178948 0.292116 0.35436 0.339947 0.287048 0.278948 0.283325 0.288812 0.295017 0.28407 0.205966 0.163039 0.164301 0.16588 0.167708 0.169403 0.171019 0.17263 0.17462 0.177729 0.18419 0.197237 0.218384 0.242264 0.262945 0.277744 0.287116 0.293074 0.2982 0.299061 0.253787 0.253785 0.254669 0.25411 0.254608 0.254057 0.254251 0.253866 0.254198 0.254042 0.254414 0.254608 0.255016 0.25547 0.255943 0.256489 0.256991 0.257424 0.257542 0.257454 0.256827 0.256275 0.254934 0.25411 0.253353 0.253346 0.255455 0.827896 1.19938 1.2199 1.23477 1.25227 1.2564 0.978767 0.683712 0.352748 0.138501 0.135836 0.136236 0.144538 0.395858 0.50275 0.49835 0.343207 0.277173 0.281129 0.285765 0.290343 0.295029 0.297205 0.228545 0.16973 0.164124 0.165422 0.167134 0.168883 0.170531 0.172164 0.174269 0.177959 0.185899 0.202488 0.226261 0.250972 0.270928 0.284554 0.293033 0.298475 0.30258 0.301747 0.256002 0.25595 0.2572 0.256527 0.257322 0.256661 0.257195 0.256672 0.257295 0.25718 0.257635 0.257975 0.258461 0.259024 0.25966 0.260315 0.260993 0.261536 0.261949 0.261946 0.261578 0.261286 0.25983 0.260054 0.258738 0.258596 0.259285 0.31033 1.10937 1.23247 1.24114 1.25176 1.26558 1.02756 0.743401 0.474413 0.250087 0.234823 0.304423 0.531519 0.627881 0.557975 0.364414 0.274369 0.278091 0.281998 0.28618 0.290529 0.29493 0.299492 0.241761 0.17608 0.163737 0.165066 0.166758 0.168417 0.169988 0.17161 0.173743 0.177585 0.186258 0.204475 0.23021 0.25659 0.276781 0.289501 0.296626 0.301322 0.305791 0.303858 0.258698 0.258561 0.260266 0.259342 0.260492 0.259665 0.260559 0.259976 0.260766 0.260806 0.261316 0.261766 0.262378 0.26306 0.263798 0.264632 0.265405 0.266306 0.266443 0.26763 0.267058 0.267293 0.266288 0.265595 0.264912 0.264748 0.264799 0.266734 0.417464 0.87725 1.26296 1.26842 1.26518 1.23103 1.05393 0.874673 0.803849 0.804165 0.785069 0.711926 0.562123 0.380988 0.274732 0.277519 0.280788 0.283889 0.28752 0.291465 0.295773 0.300264 0.258222 0.184972 0.163691 0.164804 0.166254 0.167863 0.169485 0.171148 0.173387 0.177687 0.187986 0.209607 0.23723 0.262519 0.280768 0.29285 0.300017 0.303922 0.307841 0.305714 0.261807 0.261585 0.263605 0.26251 0.264002 0.263041 0.264238 0.263743 0.264567 0.264763 0.265355 0.265929 0.266611 0.26743 0.268296 0.269266 0.27013 0.271232 0.271842 0.272409 0.272951 0.272647 0.272598 0.271824 0.271273 0.271157 0.271099 0.27246 0.274662 0.301741 0.659408 0.949105 1.16925 1.2271 1.19716 1.11329 1.00242 0.859872 0.703483 0.515215 0.336491 0.276241 0.278442 0.280553 0.28282 0.285459 0.288585 0.291899 0.295531 0.29946 0.259646 0.186139 0.163293 0.164368 0.165977 0.167543 0.169082 0.170691 0.172949 0.177539 0.188153 0.210619 0.240633 0.268402 0.286229 0.296068 0.302391 0.306296 0.310089 0.307994 0.265229 0.265044 0.267138 0.265966 0.267675 0.266768 0.268123 0.267821 0.268591 0.26895 0.26957 0.270263 0.271075 0.271942 0.272906 0.274031 0.275023 0.276162 0.2772 0.277796 0.278322 0.278416 0.278321 0.278034 0.277582 0.277498 0.277332 0.278249 0.279578 0.281132 0.283854 0.383619 0.509343 0.603263 0.655016 0.644181 0.568481 0.449227 0.353384 0.286062 0.279913 0.280027 0.281135 0.282541 0.284515 0.286782 0.289454 0.292412 0.29581 0.29956 0.255961 0.183371 0.163039 0.164366 0.165581 0.167126 0.168682 0.170321 0.172715 0.17768 0.190411 0.214459 0.244262 0.270825 0.289098 0.299292 0.304857 0.308388 0.31205 0.310401 0.268867 0.268758 0.270857 0.269755 0.271494 0.270722 0.272102 0.272053 0.272705 0.273204 0.273925 0.27463 0.275507 0.276556 0.277507 0.27869 0.279835 0.281065 0.282318 0.283024 0.283718 0.284035 0.284045 0.283986 0.283674 0.283615 0.28341 0.283898 0.284682 0.285667 0.286597 0.287467 0.287933 0.288585 0.290402 0.292215 0.287629 0.284026 0.28239 0.281413 0.281791 0.282251 0.283116 0.284228 0.285779 0.287634 0.290071 0.292692 0.295501 0.299052 0.250365 0.179854 0.162757 0.163973 0.165164 0.16676 0.168323 0.169949 0.172397 0.177478 0.190494 0.216699 0.248998 0.276227 0.292827 0.301842 0.30708 0.310495 0.313943 0.312776 0.272523 0.27253 0.274581 0.273602 0.27535 0.274802 0.275946 0.276181 0.276831 0.277337 0.278114 0.279016 0.279804 0.280882 0.282038 0.283127 0.284364 0.285564 0.28728 0.288462 0.288875 0.289346 0.289464 0.28952 0.289311 0.289233 0.289003 0.289073 0.289395 0.289822 0.290116 0.290424 0.290247 0.290002 0.289271 0.288322 0.287258 0.285966 0.28478 0.284186 0.284258 0.284434 0.284952 0.285608 0.286731 0.288035 0.289581 0.292454 0.296182 0.29932 0.242682 0.175556 0.162412 0.163483 0.165054 0.166523 0.167971 0.169602 0.172153 0.177764 0.191507 0.217073 0.248486 0.276434 0.294935 0.304229 0.308987 0.312031 0.315392 0.314611 0.276109 0.276193 0.278195 0.277385 0.279016 0.278818 0.279712 0.280036 0.280722 0.281396 0.282017 0.282982 0.28398 0.284894 0.286018 0.287306 0.288483 0.289915 0.291294 0.292505 0.293331 0.293981 0.294276 0.29442 0.294279 0.294158 0.293871 0.293651 0.293495 0.293468 0.293326 0.293178 0.292695 0.291973 0.290977 0.289944 0.288883 0.287824 0.286771 0.286201 0.286003 0.28593 0.286137 0.286457 0.287088 0.288428 0.290321 0.292665 0.295325 0.297949 0.232267 0.170865 0.162052 0.163137 0.164635 0.166178 0.167697 0.169383 0.172019 0.177809 0.193434 0.221094 0.252829 0.278619 0.295448 0.305294 0.310643 0.313497 0.316603 0.316032 0.27945 0.279642 0.281492 0.280974 0.282345 0.282461 0.283189 0.283663 0.284179 0.284973 0.285762 0.286496 0.287524 0.288691 0.289726 0.290815 0.292206 0.293725 0.29484 0.296139 0.297142 0.297947 0.298425 0.298639 0.298499 0.298315 0.297932 0.297469 0.296969 0.296527 0.295993 0.295457 0.294658 0.293671 0.292559 0.291416 0.290303 0.289256 0.288216 0.287613 0.287165 0.286889 0.286836 0.286961 0.287382 0.288206 0.289838 0.292641 0.294831 0.293135 0.224403 0.16689 0.161687 0.162898 0.164498 0.166021 0.167466 0.169121 0.171745 0.177566 0.192992 0.220801 0.253797 0.280547 0.296697 0.305462 0.310919 0.314323 0.317436 0.316879 0.282428 0.282745 0.284437 0.284188 0.28527 0.285629 0.286146 0.286764 0.28734 0.287931 0.288823 0.289786 0.290612 0.29166 0.292973 0.294092 0.295187 0.296813 0.298045 0.299164 0.300437 0.30137 0.301961 0.302224 0.302015 0.301709 0.301171 0.300488 0.29975 0.29898 0.298185 0.297293 0.296221 0.295098 0.293893 0.292685 0.291494 0.29035 0.289277 0.288518 0.287862 0.287403 0.28716 0.287144 0.287497 0.28825 0.289767 0.291775 0.294761 0.28755 0.217577 0.164102 0.161506 0.162684 0.164189 0.165663 0.167133 0.168866 0.171573 0.177721 0.194465 0.222655 0.254311 0.27998 0.296532 0.305764 0.310878 0.314096 0.317335 0.317151 0.284941 0.285283 0.286886 0.286946 0.287696 0.288202 0.288672 0.289182 0.289866 0.290583 0.291273 0.292263 0.293335 0.294306 0.295393 0.296746 0.297928 0.299136 0.300552 0.301862 0.303005 0.304115 0.304852 0.304984 0.304803 0.304361 0.303685 0.302867 0.301952 0.300996 0.29989 0.298714 0.297468 0.29617 0.294858 0.293535 0.292222 0.290972 0.289833 0.288883 0.28819 0.287516 0.286821 0.286643 0.286905 0.287771 0.289189 0.291501 0.294547 0.282231 0.211588 0.162186 0.161257 0.162431 0.163992 0.165507 0.166989 0.168713 0.171402 0.177555 0.19487 0.224385 0.257061 0.282092 0.297077 0.305707 0.310842 0.313919 0.317132 0.316813 0.286798 0.287273 0.288671 0.289025 0.289541 0.290028 0.290561 0.291109 0.291678 0.292458 0.293296 0.294161 0.295184 0.296325 0.297437 0.298597 0.299913 0.30115 0.302442 0.303843 0.305109 0.306081 0.306607 0.306917 0.306832 0.306308 0.305575 0.304682 0.303666 0.302496 0.301183 0.299823 0.298348 0.29689 0.295409 0.293915 0.292556 0.291284 0.290176 0.289225 0.288145 0.287308 0.286801 0.286617 0.286845 0.287634 0.289124 0.291353 0.294193 0.278292 0.207707 0.161219 0.161008 0.162253 0.163799 0.165287 0.16678 0.168538 0.171273 0.177593 0.194982 0.22422 0.256626 0.282024 0.297252 0.305412 0.310211 0.313457 0.316906 0.316482 0.288279 0.289116 0.290168 0.29061 0.291124 0.291588 0.2921 0.292713 0.293324 0.29404 0.294926 0.295859 0.296884 0.298011 0.299195 0.30038 0.3016 0.302857 0.304032 0.305194 0.306328 0.307134 0.307606 0.307969 0.307958 0.307566 0.306953 0.306075 0.30499 0.303725 0.30231 0.300781 0.299204 0.297604 0.296031 0.294576 0.293012 0.291431 0.290068 0.288804 0.287642 0.286753 0.286232 0.286123 0.286423 0.287311 0.288812 0.29105 0.294054 0.272881 0.201873 0.160188 0.160852 0.162118 0.163642 0.165158 0.166681 0.168425 0.171174 0.177589 0.195733 0.225576 0.258044 0.282806 0.297595 0.305679 0.310321 0.313416 0.316791 0.316241 0.287012 0.288234 0.289045 0.289502 0.290005 0.290481 0.290918 0.291488 0.292108 0.292773 0.293586 0.29451 0.29549 0.296543 0.297693 0.298848 0.299999 0.301176 0.302296 0.303332 0.304312 0.305048 0.305622 0.305955 0.306085 0.305788 0.305255 0.304507 0.303465 0.302126 0.300805 0.299403 0.297927 0.296428 0.294974 0.293626 0.29213 0.290673 0.289373 0.28823 0.287334 0.286595 0.286147 0.286095 0.286366 0.287207 0.288732 0.291077 0.293896 0.267851 0.19695 0.15981 0.160745 0.162051 0.163599 0.165097 0.166587 0.168339 0.171124 0.177524 0.195541 0.225384 0.258034 0.282995 0.297688 0.305643 0.310384 0.31355 0.31691 0.316238
				</DataArray>
				<DataArray Name="Energy" type="Float32" format="ascii">