<?xml version="1.0"?>
<VTKFile type="PolyData">
	<PolyData>
		<Piece NumberOfPoints="2201" NumberOfPolys="2100">
			<Points>
				<DataArray type="Float32" NumberOfComponents="3" format="ascii">
 0 0 0 0.001 0 0 0.002 0 0 0.003 0 0 0.004 0 0 0.005 0 0 0.006 0 0 0.007 0 0 0.008 0 0 0.009 0 0 0.01 0 0 0.011 0 0 0.012 0 0 0.013 0 0 0.014 0 0 0.015 0 0 0.016 0 0 0.017 0 0 0.018 0 0 0.019 0 0 0.02 0 0 0.021 0 0 0.022 0 0 0.023 0 0 0.024 0 0 0.025 0 0 0.026 0 0 0.027 0 0 0.028 0 0 0.029 0 0 0.03 0 0 0.031 0 0 0.032 0 0 0.033 0 0 0.034 0 0 0.035 0 0 0.036 0 0 0.037 0 0 0.038 0 0 0.039 0 0 0.04 0 0 0.041 0 0 0.042 0 0 0.043 0 0 0.044 0 0 0.045 0 0 0.046 0 0 0.047 0 0 0.048 0 0 0.049 0 0 0.05 0 0 0.051 0 0 0.052 0 0 0.053 0 0 0.054 0 0 0.055 0 0 0.056 0 0 0.057 0 0 0.058 0 0 0.059 0 0 0.06 0 0 0.061 0 0 0.062 0 0 0.063 0 0 0.064 0 0 0.065 0 0 0.066 0 0 0.067 0 0 0.068 0 0 0.069 0 0 0.07 0 0 0 0.001 0 0.001 0.001 0 0.002 0.001 0 0.003 0.001 0 0.004 0.001 0 0.005 0.001 0 0.006 0.001 0 0.007 0.001 0 0.008 0.001 0 0.009 0.001 0 0.01 0.001 0 0.011 0.001 0 0.012 0.001 0 0.013 0.001 0 0.014 0.001 0 0.015 0.001 0 0.016 0.001 0 0.017 0.001 0 0.018 0.001 0 0.019 0.001 0 0.02 0.001 0 0.021 0.001 0 0.022 0.001 0 0.023 0.001 0 0.024 0.001 0 0.025 0.001 0 0.026 0.001 0 0.027 0.001 0 0.028 0.001 0 0.029 0.001 0 0.03 0.001 0 0.031 0.001 0 0.032 0.001 0 0.033 0.001 0 0.034 0.001 0 0.035 0.001 0 0.036 0.001 0 0.037 0.001 0 0.038 0.001 0 0.039 0.001 0 0.04 0.001 0 0.041 0.001 0 0.042 0.001 0 0.043 0.001 0 0.044 0.001 0 0.045 0.001 0 0.046 0.001 0 0.047 0.001 0 0.048 0.001 0 0.049 0.001 0 0.05 0.001 0 0.051 0.001 0 0.052 0.001 0 0.053 0.001 0 0.054 0.001 0 0.055 0.001 0 0.056 0.001 0 0.057 0.001 0 0.058 0.001 0 0.059 0.001 0 0.06 0.001 0 0.061 0.001 0 0.062 0.001 0 0.063 0.001 0 0.064 0.001 0 0.065 0.001 0 0.066 0.001 0 0.067 0.001 0 0.068 0.001 0 0.069 0.001 0 0.07 0.001 0 0 0.002 0 0.001 0.002 0 0.002 0.002 0 0.003 0.002 0 0.004 0.002 0 0.005 0.002 0 0.006 0.002 0 0.007 0.002 0 0.008 0.002 0 0.009 0.002 0 0.01 0.002 0 0.011 0.002 0 0.012 0.002 0 0.013 0.002 0 0.014 0.002 0 0.015 0.002 0 0.016 0.002 0 0.017 0.002 0 0.018 0.002 0 0.019 0.002 0 0.02 0.002 0 0.021 0.002 0 0.022 0.002 0 0.023 0.002 0 0.024 0.002 0 0.025 0.002 0 0.026 0.002 0 0.027 0.002 0 0.028 0.002 0 0.029 0.002 0 0.03 0.002 0 0.031 0.002 0 0.032 0.002 0 0.033 0.002 0 0.034 0.002 0 0.035 0.002 0 0.036 0.002 0 0.037 0.002 0 0.038 0.002 0 0.039 0.002 0 0.04 0.002 0 0.041 0.002 0 0.042 0.002 0 0.043 0.002 0 0.044 0.002 0 0.045 0.002 0 0.046 0.002 0 0.047 0.002 0 0.048 0.002 0 0.049 0.002 0 0.05 0.002 0 0.051 0.002 0 0.052 0.002 0 0.053 0.002 0 0.054 0.002 0 0.055 0.002 0 0.056 0.002 0 0.057 0.002 0 0.058 0.002 0 0.059 0.002 0 0.06 0.002 0 0.061 0.002 0 0.062 0.002 0 0.063 0.002 0 0.064 0.002 0 0.065 0.002 0 0.066 0.002 0 0.067 0.002 0 0.068 0.002 0 0.069 0.002 0 0.07 0.002 0 0 0.003 0 0.001 0.003 0 0.002 0.003 0 0.003 0.003 0 0.004 0.003 0 0.005 0.003 0 0.006 0.003 0 0.007 0.003 0 0.008 0.003 0 0.009 0.003 0 0.01 0.003 0 0.011 0.003 0 0.012 0.003 0 0.013 0.003 0 0.014 0.003 0 0.015 0.003 0 0.016 0.003 0 0.017 0.003 0 0.018 0.003 0 0.019 0.003 0 0.02 0.003 0 0.021 0.003 0 0.022 0.003 0 0.023 0.003 0 0.024 0.003 0 0.025 0.003 0 0.026 0.003 0 0.027 0.003 0 0.028 0.003 0 0.029 0.003 0 0.03 0.003 0 0.031 0.003 0 0.032 0.003 0 0.033 0.003 0 0.034 0.003 0 0.035 0.003 0 0.036 0.003 0 0.037 0.003 0 0.038 0.003 0 0.039 0.003 0 0.04 0.003 0 0.041 0.003 0 0.042 0.003 0 0.043 0.003 0 0.044 0.003 0 0.045 0.003 0 0.046 0.003 0 0.047 0.003 0 0.048 0.003 0 0.049 0.003 0 0.05 0.003 0 0.051 0.003 0 0.052 0.003 0 0.053 0.003 0 0.054 0.003 0 0.055 0.003 0 0.056 0.003 0 0.057 0.003 0 0.058 0.003 0 0.059 0.003 0 0.06 0.003 0 0.061 0.003 0 0.062 0.003 0 0.063 0.003 0 0.064 0.003 0 0.065 0.003 0 0.066 0.003 0 0.067 0.003 0 0.068 0.003 0 0.069 0.003 0 0.07 0.003 0 0 0.004 0 0.001 0.004 0 0.002 0.004 0 0.003 0.004 0 0.004 0.004 0 0.005 0.004 0 0.006 0.004 0 0.007 0.004 0 0.008 0.004 0 0.009 0.004 0 0.01 0.004 0 0.011 0.004 0 0.012 0.004 0 0.013 0.004 0 0.014 0.004 0 0.015 0.004 0 0.016 0.004 0 0.017 0.004 0 0.018 0.004 0 0.019 0.004 0 0.02 0.004 0 0.021 0.004 0 0.022 0.004 0 0.023 0.004 0 0.024 0.004 0 0.025 0.004 0 0.026 0.004 0 0.027 0.004 0 0.028 0.004 0 0.029 0.004 0 0.03 0.004 0 0.031 0.004 0 0.032 0.004 0 0.033 0.004 0 0.034 0.004 0 0.035 0.004 0 0.036 0.004 0 0.037 0.004 0 0.038 0.004 0 0.039 0.004 0 0.04 0.004 0 0.041 0.004 0 0.042 0.004 0 0.043 0.004 0 0.044 0.004 0 0.045 0.004 0 0.046 0.004 0 0.047 0.004 0 0.048 0.004 0 0.049 0.004 0 0.05 0.004 0 0.051 0.004 0 0.052 0.004 0 0.053 0.004 0 0.054 0.004 0 0.055 0.004 0 0.056 0.004 0 0.057 0.004 0 0.058 0.004 0 0.059 0.004 0 0.06 0.004 0 0.061 0.004 0 0.062 0.004 0 0.063 0.004 0 0.064 0.004 0 0.065 0.004 0 0.066 0.004 0 0.067 0.004 0 0.068 0.004 0 0.069 0.004 0 0.07 0.004 0 0 0.005 0 0.001 0.005 0 0.002 0.005 0 0.003 0.005 0 0.004 0.005 0 0.005 0.005 0 0.006 0.005 0 0.007 0.005 0 0.008 0.005 0 0.009 0.005 0 0.01 0.005 0 0.011 0.005 0 0.012 0.005 0 0.013 0.005 0 0.014 0.005 0 0.015 0.005 0 0.016 0.005 0 0.017 0.005 0 0.018 0.005 0 0.019 0.005 0 0.02 0.005 0 0.021 0.005 0 0.022 0.005 0 0.023 0.005 0 0.024 0.005 0 0.025 0.005 0 0.026 0.005 0 0.027 0.005 0 0.028 0.005 0 0.029 0.005 0 0.03 0.005 0 0.031 0.005 0 0.032 0.005 0 0.033 0.005 0 0.034 0.005 0 0.035 0.005 0 0.036 0.005 0 0.037 0.005 0 0.038 0.005 0 0.039 0.005 0 0.04 0.005 0 0.041 0.005 0 0.042 0.005 0 0.043 0.005 0 0.044 0.005 0 0.045 0.005 0 0.046 0.005 0 0.047 0.005 0 0.048 0.005 0 0.049 0.005 0 0.05 0.005 0 0.051 0.005 0 0.052 0.005 0 0.053 0.005 0 0.054 0.005 0 0.055 0.005 0 0.056 0.005 0 0.057 0.005 0 0.058 0.005 0 0.059 0.005 0 0.06 0.005 0 0.061 0.005 0 0.062 0.005 0 0.063 0.005 0 0.064 0.005 0 0.065 0.005 0 0.066 0.005 0 0.067 0.005 0 0.068 0.005 0 0.069 0.005 0 0.07 0.005 0 0 0.006 0 0.001 0.006 0 0.002 0.006 0 0.003 0.006 0 0.004 0.006 0 0.005 0.006 0 0.006 0.006 0 0.007 0.006 0 0.008 0.006 0 0.009 0.006 0 0.01 0.006 0 0.011 0.006 0 0.012 0.006 0 0.013 0.006 0 0.014 0.006 0 0.015 0.006 0 0.016 0.006 0 0.017 0.006 0 0.018 0.006 0 0.019 0.006 0 0.02 0.006 0 0.021 0.006 0 0.022 0.006 0 0.023 0.006 0 0.024 0.006 0 0.025 0.006 0 0.026 0.006 0 0.027 0.006 0 0.028 0.006 0 0.029 0.006 0 0.03 0.006 0 0.031 0.006 0 0.032 0.006 0 0.033 0.006 0 0.034 0.006 0 0.035 0.006 0 0.036 0.006 0 0.037 0.006 0 0.038 0.006 0 0.039 0.006 0 0.04 0.006 0 0.041 0.006 0 0.042 0.006 0 0.043 0.006 0 0.044 0.006 0 0.045 0.006 0 0.046 0.006 0 0.047 0.006 0 0.048 0.006 0 0.049 0.006 0 0.05 0.006 0 0.051 0.006 0 0.052 0.006 0 0.053 0.006 0 0.054 0.006 0 0.055 0.006 0 0.056 0.006 0 0.057 0.006 0 0.058 0.006 0 0.059 0.006 0 0.06 0.006 0 0.061 0.006 0 0.062 0.006 0 0.063 0.006 0 0.064 0.006 0 0.065 0.006 0 0.066 0.006 0 0.067 0.006 0 0.068 0.006 0 0.069 0.006 0 0.07 0.006 0 0 0.007 0 0.001 0.007 0 0.002 0.007 0 0.003 0.007 0 0.004 0.007 0 0.005 0.007 0 0.006 0.007 0 0.007 0.007 0 0.008 0.007 0 0.009 0.007 0 0.01 0.007 0 0.011 0.007 0 0.012 0.007 0 0.013 0.007 0 0.014 0.007 0 0.015 0.007 0 0.016 0.007 0 0.017 0.007 0 0.018 0.007 0 0.019 0.007 0 0.02 0.007 0 0.021 0.007 0 0.022 0.007 0 0.023 0.007 0 0.024 0.007 0 0.025 0.007 0 0.026 0.007 0 0.027 0.007 0 0.028 0.007 0 0.029 0.007 0 0.03 0.007 0 0.031 0.007 0 0.032 0.007 0 0.033 0.007 0 0.034 0.007 0 0.035 0.007 0 0.036 0.007 0 0.037 0.007 0 0.038 0.007 0 0.039 0.007 0 0.04 0.007 0 0.041 0.007 0 0.042 0.007 0 0.043 0.007 0 0.044 0.007 0 0.045 0.007 0 0.046 0.007 0 0.047 0.007 0 0.048 0.007 0 0.049 0.007 0 0.05 0.007 0 0.051 0.007 0 0.052 0.007 0 0.053 0.007 0 0.054 0.007 0 0.055 0.007 0 0.056 0.007 0 0.057 0.007 0 0.058 0.007 0 0.059 0.007 0 0.06 0.007 0 0.061 0.007 0 0.062 0.007 0 0.063 0.007 0 0.064 0.007 0 0.065 0.007 0 0.066 0.007 0 0.067 0.007 0 0.068 0.007 0 0.069 0.007 0 0.07 0.007 0 0 0.008 0 0.001 0.008 0 0.002 0.008 0 0.003 0.008 0 0.004 0.008 0 0.005 0.008 0 0.006 0.008 0 0.007 0.008 0 0.008 0.008 0 0.009 0.008 0 0.01 0.008 0 0.011 0.008 0 0.012 0.008 0 0.013 0.008 0 0.014 0.008 0 0.015 0.008 0 0.016 0.008 0 0.017 0.008 0 0.018 0.008 0 0.019 0.008 0 0.02 0.008 0 0.021 0.008 0 0.022 0.008 0 0.023 0.008 0 0.024 0.008 0 0.025 0.008 0 0.026 0.008 0 0.027 0.008 0 0.028 0.008 0 0.029 0.008 0 0.03 0.008 0 0.031 0.008 0 0.032 0.008 0 0.033 0.008 0 0.034 0.008 0 0.035 0.008 0 0.036 0.008 0 0.037 0.008 0 0.038 0.008 0 0.039 0.008 0 0.04 0.008 0 0.041 0.008 0 0.042 0.008 0 0.043 0.008 0 0.044 0.008 0 0.045 0.008 0 0.046 0.008 0 0.047 0.008 0 0.048 0.008 0 0.049 0.008 0 0.05 0.008 0 0.051 0.008 0 0.052 0.008 0 0.053 0.008 0 0.054 0.008 0 0.055 0.008 0 0.056 0.008 0 0.057 0.008 0 0.058 0.008 0 0.059 0.008 0 0.06 0.008 0 0.061 0.008 0 0.062 0.008 0 0.063 0.008 0 0.064 0.008 0 0.065 0.008 0 0.066 0.008 0 0.067 0.008 0 0.068 0.008 0 0.069 0.008 0 0.07 0.008 0 0 0.009 0 0.001 0.009 0 0.002 0.009 0 0.003 0.009 0 0.004 0.009 0 0.005 0.009 0 0.006 0.009 0 0.007 0.009 0 0.008 0.009 0 0.009 0.009 0 0.01 0.009 0 0.011 0.009 0 0.012 0.009 0 0.013 0.009 0 0.014 0.009 0 0.015 0.009 0 0.016 0.009 0 0.017 0.009 0 0.018 0.009 0 0.019 0.009 0 0.02 0.009 0 0.021 0.009 0 0.022 0.009 0 0.023 0.009 0 0.024 0.009 0 0.025 0.009 0 0.026 0.009 0 0.027 0.009 0 0.028 0.009 0 0.029 0.009 0 0.03 0.009 0 0.031 0.009 0 0.032 0.009 0 0.033 0.009 0 0.034 0.009 0 0.035 0.009 0 0.036 0.009 0 0.037 0.009 0 0.038 0.009 0 0.039 0.009 0 0.04 0.009 0 0.041 0.009 0 0.042 0.009 0 0.043 0.009 0 0.044 0.009 0 0.045 0.009 0 0.046 0.009 0 0.047 0.009 0 0.048 0.009 0 0.049 0.009 0 0.05 0.009 0 0.051 0.009 0 0.052 0.009 0 0.053 0.009 0 0.054 0.009 0 0.055 0.009 0 0.056 0.009 0 0.057 0.009 0 0.058 0.009 0 0.059 0.009 0 0.06 0.009 0 0.061 0.009 0 0.062 0.009 0 0.063 0.009 0 0.064 0.009 0 0.065 0.009 0 0.066 0.009 0 0.067 0.009 0 0.068 0.009 0 0.069 0.009 0 0.07 0.009 0 0 0.01 0 0.001 0.01 0 0.002 0.01 0 0.003 0.01 0 0.004 0.01 0 0.005 0.01 0 0.006 0.01 0 0.007 0.01 0 0.008 0.01 0 0.009 0.01 0 0.01 0.01 0 0.011 0.01 0 0.012 0.01 0 0.013 0.01 0 0.014 0.01 0 0.015 0.01 0 0.016 0.01 0 0.017 0.01 0 0.018 0.01 0 0.019 0.01 0 0.02
[...]
			<CellData Scalars="Density">
				<DataArray Name="Density" type="Float32" format="ascii">
 0.250343 0.251146 0.251084 0.250867 0.250511 0.250088 0.249652 0.249206 0.248837 0.248537 0.248411 0.248444 0.248653 0.24906 0.249621 0.250339 0.251201 0.252191 0.253344 0.254726 0.256374 0.258582 0.261321 0.265284 0.270395 0.314121 0.692075 1.09289 1.52432 1.74802 1.884 2.07369 2.27265 2.47767 2.68411 2.88704 3.09008 3.29143 3.45233 3.58978 3.57983 3.42708 3.03812 2.38837 1.67855 1.30851 1.17091 1.10229 1.06459 1.03954 1.02375 1.01417 1.0084 1.00496 1.00289 1.00168 1.00097 1.00056 1.00031 1.00018 1.0001 1.00005 1.00003 1.00002 1.00001 1 1 1 1 1 0.249362 0.250134 0.250103 0.249855 0.249532 0.249101 0.248677 0.248251 0.247928 0.24765 0.247488 0.247452 0.247586 0.247862 0.248324 0.248889 0.249592 0.250414 0.251379 0.252536 0.254137 0.256187 0.258835 0.262472 0.266965 0.369471 0.748281 1.14568 1.53594 1.71134 1.85253 2.03244 2.22471 2.42078 2.61191 2.80546 2.99135 3.17036 3.3216 3.46001 3.40745 3.23081 2.89898 2.40219 1.83614 1.49336 1.34032 1.25384 1.1848 1.12136 1.07539 1.04581 1.02777 1.01648 1.00966 1.0057 1.00332 1.0019 1.00109 1.00062 1.00035 1.00019 1.00011 1.00006 1.00003 1.00002 1.00001 1.00001 1 1 0.249251 0.250038 0.249964 0.24976 0.249413 0.248997 0.24857 0.248133 0.24778 0.247463 0.247321 0.247311 0.247476 0.247843 0.248343 0.248928 0.249634 0.250447 0.251379 0.252574 0.253973 0.25566 0.257916 0.261074 0.265103 0.378508 0.758282 1.15692 1.52854 1.67708 1.80244 1.97089 2.15284 2.33099 2.51181 2.69308 2.85618 3.01938 3.15237 3.26534 3.2 3.04852 2.77021 2.36426 1.92593 1.6607 1.52629 1.44889 1.38322 1.3088 1.23508 1.16458 1.10573 1.06429 1.03888 1.02331 1.01357 1.00789 1.00461 1.00262 1.00148 1.00085 1.00047 1.00026 1.00015 1.00008 1.00004 1.00002 1.00001 1.00001 0.249153 0.249922 0.249858 0.249639 0.24933 0.248918 0.24852 0.248096 0.247771 0.247449 0.24732 0.247283 0.247432 0.247707 0.248134 0.248714 0.249313 0.250016 0.250908 0.251783 0.252997 0.254612 0.256409 0.259459 0.262739 0.420753 0.802518 1.18954 1.49949 1.61897 1.74147 1.89695 2.05939 2.22411 2.39127 2.55514 2.70723 2.86177 2.98666 3.07587 3.00558 2.85679 2.60859 2.28359 1.95241 1.76481 1.67644 1.62306 1.57476 1.51229 1.44399 1.37004 1.29346 1.21687 1.14687 1.09128 1.05472 1.03279 1.01929 1.01108 1.00641 1.00369 1.00203 1.00115 1.00065 1.00036 1.0002 1.00012 1.00007 1.00004 0.249008 0.249771 0.249696 0.249502 0.249184 0.248791 0.2484 0.247991 0.247672 0.247342 0.247247 0.247226 0.24729 0.247577 0.248007 0.248452 0.249021 0.249678 0.250227 0.251038 0.252116 0.253226 0.254926 0.257272 0.260068 0.445247 0.83033 1.21608 1.46471 1.5671 1.67612 1.8151 1.96382 2.11641 2.26519 2.42113 2.5684 2.71307 2.83878 2.88959 2.82043 2.65907 2.41189 2.13868 1.91551 1.8013 1.75601 1.72929 1.70763 1.67328 1.62742 1.57047 1.50438 1.43118 1.35367 1.27358 1.19569 1.12753 1.07722 1.04586 1.0272 1.01558 1.00877 1.00508 1.00285 1.00161 1.00093 1.00053 1.0003 1.00017 0.248834 0.249578 0.249518 0.249316 0.249018 0.248631 0.248253 0.247843 0.247529 0.247202 0.247136 0.247069 0.24717 0.247423 0.247722 0.248197 0.248645 0.24902 0.24959 0.250192 0.250814 0.251773 0.252972 0.254648 0.257143 0.490657 0.875195 1.24574 1.42564 1.51584 1.61586 1.74336 1.88253 2.0179 2.15593 2.30074 2.43792 2.56818 2.69538 2.69605 2.60777 2.44234 2.20881 1.9805 1.84265 1.78997 1.77694 1.7727 1.77034 1.76094 1.74211 1.71461 1.67522 1.62317 1.56132 1.4905 1.41381 1.33273 1.24995 1.17201 1.10761 1.06342 1.03726 1.0217 1.01224 1.00712 1.00416 1.00243 1.00142 1.00085 0.248625 0.249372 0.249303 0.249127 0.248843 0.248465 0.248079 0.247664 0.247356 0.247043 0.246955 0.246911 0.246963 0.247142 0.247515 0.247834 0.24815 0.248554 0.248791 0.249096 0.24953 0.250117 0.251059 0.252276 0.253984 0.525404 0.907033 1.25851 1.3906 1.46877 1.56274 1.68769 1.80915 1.93321 2.05979 2.18439 2.30381 2.41286 2.52198 2.49094 2.38221 2.22306 2.02052 1.84889 1.75744 1.73961 1.75245 1.76899 1.78077 1.78843 1.79035 1.78409 1.77111 1.74644 1.71496 1.67066 1.61437 1.54789 1.47294 1.39242 1.30737 1.22277 1.1464 1.08795 1.05162 1.03085 1.01835 1.01096 1.00668 1.00454 0.248414 0.249158 0.249113 0.248952 0.248682 0.24831 0.24792 0.247512 0.2472 0.246873 0.246772 0.246717 0.246743 0.246953 0.247152 0.247438 0.247786 0.247874 0.247988 0.24807 0.248122 0.248591 0.249273 0.249996 0.250931 0.551077 0.936539 1.26258 1.35556 1.42582 1.52458 1.63389 1.76102 1.8583 1.95554 2.03862 2.14866 2.24466 2.3122 2.26115 2.15278 1.99935 1.83158 1.71395 1.66947 1.6726 1.69738 1.72494 1.75153 1.77441 1.78974 1.79813 1.80253 1.80048 1.7922 1.77622 1.74968 1.71334 1.66514 1.60441 1.53296 1.45404 1.37031 1.28235 1.19869 1.12694 1.07756 1.04895 1.03496 1.02846 0.248261 0.249006 0.248977 0.248827 0.248563 0.248203 0.247811 0.247409 0.247061 0.246757 0.246609 0.246541 0.246564 0.24663 0.246859 0.247173 0.247255 0.247349 0.247302 0.247064 0.247021 0.247128 0.247364 0.247633 0.248392 0.562289 0.956356 1.25498 1.32936 1.39741 1.47847 1.57882 1.68724 1.76577 1.84118 1.91253 1.98938 2.03516 2.05531 1.99064 1.8574 1.70688 1.59707 1.54435 1.54923 1.5855 1.62612 1.66029 1.68948 1.7179 1.74463 1.76818 1.78888 1.80013 1.80714 1.80882 1.80587 1.79751 1.77968 1.75207 1.71214 1.65725 1.5981 1.52234 1.44342 1.36472 1.30471 1.25319 1.21994 1.2006 0.248149 0.248892 0.248873 0.248732 0.24848 0.248123 0.247742 0.247323 0.246984 0.246677 0.246468 0.246404 0.246345 0.246425 0.246647 0.246771 0.246923 0.246964 0.246703 0.246438 0.246055 0.245797 0.245706 0.245808 0.246561 0.554104 0.964121 1.24201 1.30458 1.36738 1.43345 1.52509 1.60362 1.68205 1.73489 1.76571 1.78391 1.79539 1.65845 1.34478 1.09599 0.966874 0.921096 0.924695 0.973009 1.04367 1.12854 1.22673 1.3319 1.43522 1.53131 1.61527 1.68304 1.73651 1.77358 1.79227 1.8022 1.80797 1.8086 1.80533 1.79838 1.78547 1.75294 1.71857 1.68705 1.66211 1.67653 1.71277 1.75017 1.73475 0.248221 0.248931 0.248895 0.248742 0.248456 0.248101 0.247685 0.247291 0.246954 0.246654 0.246444 0.246322 0.246242 0.246277 0.246356 0.246529 0.246686 0.246622 0.246447 0.24604 0.245419 0.24485 0.244469 0.244372 0.244706 0.538529 0.964685 1.22557 1.27847 1.33115 1.39619 1.46645 1.53046 1.5846 1.59485 1.60558 1.58799 1.28175 0.941235 0.6051 0.351603 0.255613 0.232407 0.242658 0.276505 0.322472 0.382264 0.456424 0.544635 0.649369 0.771513 0.912782 1.01897 1.12861 1.25166 1.37768 1.4886 1.59346 1.69349 1.76429 1.80167 1.81741 1.82543 1.84575 1.8843 1.97722 2.07028 2.17365 2.21586 2.23453 0.248443 0.249131 0.249132 0.248987 0.24873 0.248355 0.247941 0.247532 0.247151 0.246851 0.246627 0.246545 0.24652 0.246551 0.246677 0.246821 0.246881 0.246849 0.246592 0.246086 0.245353 0.24446 0.243865 0.243519 0.243471 0.479066 0.941953 1.20636 1.25121 1.297 1.35321 1.40827 1.45813 1.48105 1.48269 1.43219 1.10215 0.729987 0.334885 0.153342 0.145431 0.145036 0.14498 0.145495 0.147631 0.149852 0.152577 0.155217 0.157739 0.160568 0.163198 0.165226 0.225773 0.306564 0.406765 0.510039 0.607002 0.732769 0.902849 1.07467 1.20768 1.34977 1.50605 1.66805 1.83889 2.00847 2.12274 2.11385 1.9905 2.074 0.248918 0.249546 0.249542 0.249412 0.249135 0.248752 0.248345 0.247921 0.247575 0.24729 0.247141 0.247073 0.247104 0.247194 0.247351 0.247543 0.247672 0.247671 0.247433 0.246892 0.246053 0.244831 0.244067 0.243403 0.242859 0.449091 0.871298 1.182 1.22783 1.26694 1.30666 1.35456 1.38902 1.40065 1.37217 1.07373 0.707488 0.291675 0.141286 0.142827 0.161128 0.175308 0.182192 0.183839 0.175399 0.168941 0.16144 0.155267 0.157545 0.160267 0.162482 0.164429 0.166208 0.167796 0.16912 0.17037 0.171697 0.173245 0.175208 0.21297 0.304686 0.411002 0.534598 0.66497 0.791282 0.888099 0.906321 0.784743 0.635973 0.716348 0.249654 0.250163 0.250253 0.25007 0.249786 0.249413 0.249033 0.248655 0.248389 0.248151 0.248143 0.248097 0.248208 0.248386 0.248593 0.248812 0.249006 0.249037 0.248822 0.248344 0.247444 0.246193 0.245398 0.24427 0.243681 0.356091 0.85235 1.17363 1.2079 1.2398 1.27021 1.30344 1.331 1.35603 1.1239 0.781079 0.387357 0.139646 0.148685 0.17779 0.207515 0.236546 0.25964 0.266025 0.269538 0.260016 0.242604 0.212323 0.174143 0.159407 0.161682 0.163748 0.165407 0.167184 0.168872 0.170423 0.171917 0.173339 0.174784 0.176856 0.181011 0.190177 0.206002 0.226345 0.24606 0.261813 0.27509 0.285185 0.290287 0.294385 0.25075 0.251126 0.25142 0.251033 0.250905 0.250509 0.250232 0.249913 0.249789 0.249583 0.249669 0.249702 0.249887 0.250109 0.250426 0.250693 0.250916 0.251071 0.250918 0.250609 0.24971 0.248612 0.247413 0.24627 0.245571 0.252051 0.707405 1.14581 1.19649 1.22121 1.24558 1.27636 1.30175 1.23872 0.899823 0.530067 0.176107 0.136688 0.148779 0.174782 0.202056 0.244455 0.28664 0.292917 0.278933 0.277714 0.284514 0.290331 0.273519 0.207151 0.163365 0.16272 0.164512 0.166345 0.168254 0.169929 0.171484 0.173019 0.174847 0.177805 0.183742 0.19496 0.213784 0.235527 0.254875 0.269548 0.279906 0.287602 0.293366 0.295829 0.25214 0.252342 0.252894 0.252343 0.252563 0.252051 0.252026 0.251714 0.251729 0.251567 0.251767 0.251868 0.252188 0.252476 0.252856 0.253271 0.253582 0.253862 0.253823 0.253641 0.252895 0.252055 0.250323 0.249477 0.248249 0.248979 0.496414 0.901803 1.18415 1.21281 1.23426 1.26036 1.28423 1.01392 0.70172 0.357788 0.138104 0.135186 0.135562 0.146049 0.179456 0.292736 0.354469 0.340091 0.287262 0.279192 0.283517 0.288983 0.295114 0.283392 0.2051 0.162903 0.164226 0.165779 0.167601 0.16931 0.170934 0.172555 0.174527 0.177589 0.183991 0.197174 0.218525 0.242393 0.263265 0.278142 0.286637 0.291741 0.297897 0.299289 0.253924 0.253919 0.2548 0.254255 0.254737 0.254175 0.254357 0.253969 0.254286 0.254114 0.254484 0.254665 0.255067 0.255511 0.255974 0.256495 0.256985 0.257373 0.257544 0.257416 0.256962 0.256249 0.254776 0.254054 0.25335 0.253323 0.255449 0.818523 1.19588 1.21975 1.23467 1.25226 1.25568 0.97802 0.683126 0.35204 0.138448 0.135889 0.136276 0.145178 0.396847 0.503361 0.498401 0.343203 0.277513 0.281449 0.286015 0.290526 0.295121 0.296536 0.227456 0.169186 0.164003 0.165302 0.167024 0.168789 0.17043 0.172061 0.174174 0.177858 0.18579 0.202333 0.226257 0.251185 0.271154 0.284481 0.29304 0.298683 0.302615 0.302105 0.256153 0.256091 0.257341 0.256675 0.257458 0.256792 0.257313 0.256778 0.257391 0.257252 0.257703 0.258027 0.258506 0.259057 0.259687 0.260318 0.260985 0.261479 0.261924 0.26187 0.261635 0.261253 0.259681 0.259975 0.258722 0.25854 0.259252 0.313928 1.10875 1.23224 1.2411 1.25169 1.26573 1.02562 0.742407 0.473951 0.250534 0.235577 0.306192 0.532888 0.627471 0.557642 0.364199 0.274688 0.2784 0.28229 0.286436 0.290758 0.295099 0.2996 0.240779 0.175556 0.163602 0.164918 0.166617 0.168272 0.169854 0.171506 0.173642 0.177439 0.186107 0.204356 0.23031 0.256714 0.277017 0.289816 0.296909 0.301605 0.306103 0.304161 0.258853 0.258702 0.260418 0.259489 0.260629 0.259801 0.260684 0.260077 0.260865 0.260873 0.26138 0.261812 0.262416 0.26309 0.263821 0.264642 0.265395 0.26627 0.266399 0.267544 0.267039 0.267273 0.266186 0.265527 0.26487 0.264682 0.26476 0.266703 0.423443 0.881086 1.26321 1.26829 1.26529 1.23035 1.054 0.874818 0.805271 0.805407 0.785264 0.71169 0.561796 0.380864 0.274983 0.277804 0.281079 0.284175 0.287757 0.291622 0.295833 0.300267 0.25787 0.184622 0.163537 0.16474 0.16602 0.167705 0.169355 0.171024 0.173255 0.177537 0.187735 0.209371 0.237354 0.263122 0.281293 0.293186 0.300332 0.30424 0.308048 0.305905 0.261962 0.261726 0.263749 0.262636 0.264142 0.263173 0.26436 0.26383 0.264665 0.264829 0.265412 0.265972 0.266643 0.267457 0.268311 0.269283 0.270113 0.271208 0.271783 0.272315 0.272866 0.272619 0.272524 0.271741 0.271166 0.271039 0.271022 0.272373 0.27461 0.305082 0.663111 0.951207 1.16944 1.22658 1.19515 1.11145 1.00135 0.858595 0.702044 0.514184 0.335853 0.276444 0.278669 0.280799 0.283086 0.285756 0.288884 0.292155 0.295715 0.299561 0.259455 0.185922 0.163117 0.164342 0.165657 0.167372 0.168955 0.170569 0.172841 0.177444 0.187953 0.21021 0.240101 0.268216 0.28665 0.2965 0.302693 0.306581 0.310263 0.308162 0.265385 0.265188 0.267293 0.266098 0.267816 0.266891 0.268243 0.267899 0.268681 0.269014 0.269623 0.270302 0.271102 0.271971 0.27292 0.274057 0.275015 0.276155 0.277143 0.277713 0.278202 0.278353 0.278266 0.277934 0.27743 0.277323 0.27722 0.278181 0.279524 0.281107 0.283987 0.385479 0.510455 0.600349 0.65246 0.642089 0.565589 0.447075 0.352337 0.286037 0.280021 0.280156 0.281286 0.282727 0.284741 0.287034 0.289758 0.292688 0.296046 0.299688 0.256127 0.183443 0.162847 0.164067 0.165478 0.167064 0.168568 0.170191 0.172596 0.177593 0.190356 0.21433 0.244081 0.270764 0.289258 0.299688 0.305171 0.308653 0.312278 0.310592 0.269026 0.268904 0.271015 0.269897 0.271647 0.270837 0.272225 0.272135 0.272791 0.273263 0.273972 0.274666 0.27553 0.276579 0.277518 0.278714 0.279822 0.28107 0.282263 0.282966 0.283604 0.283928 0.283969 0.283857 0.28349 0.283398 0.283261 0.283788 0.28461 0.285627 0.286583 0.287453 0.287897 0.288523 0.290211 0.291958 0.287446 0.284019 0.282389 0.281465 0.281817 0.282287 0.283176 0.284321 0.285931 0.287884 0.290416 0.292823 0.295806 0.299276 0.250998 0.180206 0.162592 0.163764 0.165056 0.166694 0.168233 0.169855 0.1723 0.177393 0.190447 0.216495 0.24856 0.275799 0.292806 0.302143 0.307401 0.310633 0.31404 0.312974 0.272687 0.27268 0.274743 0.273745 0.275502 0.274907 0.276075 0.276267 0.276911 0.277397 0.278154 0.279044 0.279825 0.2809 0.282044 0.283147 0.284365 0.285589 0.287307 0.288483 0.28884 0.289254 0.28939 0.289383 0.289129 0.289012 0.288839 0.288934 0.289287 0.289736 0.290053 0.29037 0.290206 0.289933 0.289186 0.288222 0.287161 0.285871 0.284678 0.284118 0.284176 0.284372 0.284901 0.285609 0.28677 0.288097 0.28987 0.293285 0.295844 0.299102 0.243699 0.176134 0.162243 0.163457 0.164865 0.166437 0.16787 0.16947 0.172002 0.177614 0.191439 0.217027 0.248359 0.275996 0.294251 0.303955 0.308998 0.312161 0.315429 0.314772 0.276282 0.276352 0.278365 0.277526 0.279169 0.278917 0.279834 0.280125 0.280792 0.281451 0.282055 0.283 0.28399 0.284904 0.286019 0.2873 0.288489 0.29001 0.291442 0.29266 0.293438 0.293974 0.294238 0.294298 0.294112 0.29394 0.293686 0.293478 0.293351 0.293324 0.293216 0.293083 0.292583 0.291823 0.290833 0.289791 0.288732 0.287665 0.286601 0.28605 0.285834 0.285779 0.286008 0.286378 0.287068 0.288504 0.290437 0.29255 0.295465 0.298344 0.233683 0.171546 0.161984 0.163146 0.164542 0.166089 0.167577 0.169256 0.171875 0.177663 0.193314 0.220942 0.252482 0.278229 0.295073 0.304979 0.310364 0.313395 0.316456 0.315952 0.279637 0.279816 0.281676 0.281119 0.282511 0.282573 0.283305 0.283756 0.284246 0.285018 0.285793 0.286511 0.287524 0.288686 0.289713 0.290802 0.292212 0.293875 0.295127 0.296429 0.297377 0.298021 0.298426 0.298527 0.298337 0.298102 0.297731 0.297268 0.296786 0.296337 0.295856 0.2953 0.294481 0.293508 0.292412 0.291263 0.290143 0.289095 0.288054 0.287463 0.287021 0.28676 0.286729 0.286906 0.287348 0.288225 0.290099 0.292842 0.294973 0.293788 0.225368 0.167402 0.161705 0.162881 0.164438 0.165969 0.16739 0.169019 0.171635 0.177439 0.193019 0.221053 0.253882 0.280215 0.296133 0.304882 0.310275 0.313769 0.317047 0.3166 0.282633 0.282938 0.284639 0.284342 0.285439 0.285758 0.286259 0.286852 0.287404 0.287971 0.288843 0.28979 0.2906 0.291647 0.292951 0.294048 0.295195 0.296922 0.298262 0.299481 0.300645 0.301439 0.301903 0.302104 0.301858 0.301523 0.300993 0.300305 0.299561 0.298828 0.298046 0.297133 0.296068 0.294983 0.293769 0.292544 0.291367 0.290219 0.289154 0.288385 0.287729 0.287298 0.287078 0.287068 0.287452 0.288284 0.28975 0.292082 0.294961 0.288014 0.218 0.164307 0.161572 0.162734 0.164188 0.165619 0.167059 0.168767 0.171473 0.177649 0.194322 0.222458 0.254168 0.280023 0.296522 0.305482 0.31033 0.313477 0.316736 0.316478 0.285164 0.285493 0.287103 0.287105 0.287863 0.28834 0.288788 0.289271 0.289924 0.290619 0.291277 0.292252 0.293322 0.294265 0.295364 0.296706 0.297885 0.299167 0.300646 0.301991 0.303112 0.304107 0.304728 0.304868 0.304673 0.304223 0.303545 0.302725 0.301837 0.30087 0.299766 0.298585 0.297338 0.296072 0.294714 0.293406 0.292105 0.290838 0.289696 0.288727 0.288023 0.287358 0.286674 0.286561 0.286863 0.287741 0.289365 0.292131 0.29453 0.282186 0.211443 0.162186 0.161292 0.16246 0.163993 0.165494 0.166982 0.168706 0.171387 0.177553 0.195035 0.224526 0.256998 0.281738 0.296622 0.305203 0.310353 0.313448 0.316753 0.316292 0.287037 0.287501 0.288902 0.289207 0.289715 0.290175 0.290674 0.29119 0.291722 0.292478 0.293303 0.294134 0.295151 0.296293 0.297378 0.298549 0.299875 0.301106 0.302437 0.303829 0.305044 0.305993 0.306528 0.306826 0.306747 0.306222 0.305492 0.304607 0.303575 0.30239 0.301089 0.299703 0.298236 0.296773 0.295268 0.293777 0.292387 0.291086 0.289941 0.288992 0.287897 0.287057 0.286559 0.286489 0.286758 0.287689 0.289314 0.291971 0.294206 0.277969 0.207277 0.161214 0.16114 0.162346 0.163883 0.165358 0.166815 0.168533 0.171249 0.177524 0.194947 0.224205 0.256846 0.282294 0.297282 0.305233 0.309925 0.313183 0.316592 0.316059 0.288533 0.289362 0.290416 0.290822 0.291295 0.291725 0.292203 0.292782 0.293372 0.294053 0.294918 0.295845 0.296839 0.297966 0.299152 0.300317 0.30155 0.302811 0.303971 0.305135 0.306264 0.307075 0.307551 0.307917 0.307912 0.307503 0.306885 0.305996 0.30489 0.30362 0.302177 0.300642 0.299042 0.297426 0.295821 0.29434 0.292743 0.291129 0.289742 0.288457 0.287277 0.286408 0.285911 0.285897 0.286332 0.28732 0.288975 0.291296 0.294526 0.272344 0.201078 0.160231 0.161003 0.162265 0.163772 0.165272 0.166748 0.168465 0.1712 0.177603 0.195725 0.225474 0.257782 0.282477 0.297336 0.305443 0.310096 0.313018 0.316187 0.315888 0.287271 0.288486 0.289284 0.289716 0.290182 0.290629 0.291037 0.29157 0.292161 0.292802 0.293586 0.294492 0.295461 0.296499 0.297641 0.298795 0.299942 0.301122 0.302242 0.303279 0.304256 0.305004 0.305573 0.305903 0.306032 0.305733 0.305187 0.304412 0.303387 0.302017 0.300665 0.299235 0.297736 0.296198 0.294718 0.293309 0.291801 0.290285 0.28895 0.287794 0.286894 0.286187 0.285784 0.285785 0.286256 0.28721 0.288888 0.291383 0.29432 0.266872 0.195784 0.159897 0.160863 0.162214 0.163737 0.165223 0.166695 0.168434 0.171189 0.17758 0.195671 0.225568 0.258172 0.282946 0.297527 0.305404 0.31016 0.313135 0.316458 0.315898
				</DataArray>
				<DataArray Name="Energy" type="Float32" format="ascii">