<?xml version="1.0"?>
<VTKFile type="PolyData">
	<PolyData>
		<Piece NumberOfPoints="2201" NumberOfPolys="2100">
			<Points>
				<DataArray type="Float32" NumberOfComponents="3" format="ascii">
 0 0 0 0.001 0 0 0.002 0 0 0.003 0 0 0.004 0 0 0.005 0 0 0.006 0 0 0.007 0 0 0.008 0 0 0.009 0 0 0.01 0 0 0.011 0 0 0.012 0 0 0.013 0 0 0.014 0 0 0.015 0 0 0.016 0 0 0.017 0 0 0.018 0 0 0.019 0 0 0.02 0 0 0.021 0 0 0.022 0 0 0.023 0 0 0.024 0 0 0.025 0 0 0.026 0 0 0.027 0 0 0.028 0 0 0.029 0 0 0.03 0 0 0.031 0 0 0.032 0 0 0.033 0 0 0.034 0 0 0.035 0 0 0.036 0 0 0.037 0 0 0.038 0 0 0.039 0 0 0.04 0 0 0.041 0 0 0.042 0 0 0.043 0 0 0.044 0 0 0.045 0 0 0.046 0 0 0.047 0 0 0.048 0 0 0.049 0 0 0.05 0 0 0.051 0 0 0.052 0 0 0.053 0 0 0.054 0 0 0.055 0 0 0.056 0 0 0.057 0 0 0.058 0 0 0.059 0 0 0.06 0 0 0.061 0 0 0.062 0 0 0.063 0 0 0.064 0 0 0.065 0 0 0.066 0 0 0.067 0 0 0.068 0 0 0.069 0 0 0.07 0 0 0 0.001 0 0.001 0.001 0 0.002 0.001 0 0.003 0.001 0 0.004 0.001 0 0.005 0.001 0 0.006 0.001 0 0.007 0.001 0 0.008 0.001 0 0.009 0.001 0 0.01 0.001 0 0.011 0.001 0 0.012 0.001 0 0.013 0.001 0 0.014 0.001 0 0.015 0.001 0 0.016 0.001 0 0.017 0.001 0 0.018 0.001 0 0.019 0.001 0 0.02 0.001 0 0.021 0.001 0 0.022 0.001 0 0.023 0.001 0 0.024 0.001 0 0.025 0.001 0 0.026 0.001 0 0.027 0.001 0 0.028 0.001 0 0.029 0.001 0 0.03 0.001 0 0.031 0.001 0 0.032 0.001 0 0.033 0.001 0 0.034 0.001 0 0.035 0.001 0 0.036 0.001 0 0.037 0.001 0 0.038 0.001 0 0.039 0.001 0 0.04 0.001 0 0.041 0.001 0 0.042 0.001 0 0.043 0.001 0 0.044 0.001 0 0.045 0.001 0 0.046 0.001 0 0.047 0.001 0 0.048 0.001 0 0.049 0.001 0 0.05 0.001 0 0.051 0.001 0 0.052 0.001 0 0.053 0.001 0 0.054 0.001 0 0.055 0.001 0 0.056 0.001 0 0.057 0.001 0 0.058 0.001 0 0.059 0.001 0 0.06 0.001 0 0.061 0.001 0 0.062 0.001 0 0.063 0.001 0 0.064 0.001 0 0.065 0.001 0 0.066 0.001 0 0.067 0.001 0 0.068 0.001 0 0.069 0.001 0 0.07 0.001 0 0 0.002 0 0.001 0.002 0 0.002 0.002 0 0.003 0.002 0 0.004 0.002 0 0.005 0.002 0 0.006 0.002 0 0.007 0.002 0 0.008 0.002 0 0.009 0.002 0 0.01 0.002 0 0.011 0.002 0 0.012 0.002 0 0.013 0.002 0 0.014 0.002 0 0.015 0.002 0 0.016 0.002 0 0.017 0.002 0 0.018 0.002 0 0.019 0.002 0 0.02 0.002 0 0.021 0.002 0 0.022 0.002 0 0.023 0.002 0 0.024 0.002 0 0.025 0.002 0 0.026 0.002 0 0.027 0.002 0 0.028 0.002 0 0.029 0.002 0 0.03 0.002 0 0.031 0.002 0 0.032 0.002 0 0.033 0.002 0 0.034 0.002 0 0.035 0.002 0 0.036 0.002 0 0.037 0.002 0 0.038 0.002 0 0.039 0.002 0 0.04 0.002 0 0.041 0.002 0 0.042 0.002 0 0.043 0.002 0 0.044 0.002 0 0.045 0.002 0 0.046 0.002 0 0.047 0.002 0 0.048 0.002 0 0.049 0.002 0 0.05 0.002 0 0.051 0.002 0 0.052 0.002 0 0.053 0.002 0 0.054 0.002 0 0.055 0.002 0 0.056 0.002 0 0.057 0.002 0 0.058 0.002 0 0.059 0.002 0 0.06 0.002 0 0.061 0.002 0 0.062 0.002 0 0.063 0.002 0 0.064 0.002 0 0.065 0.002 0 0.066 0.002 0 0.067 0.002 0 0.068 0.002 0 0.069 0.002 0 0.07 0.002 0 0 0.003 0 0.001 0.003 0 0.002 0.003 0 0.003 0.003 0 0.004 0.003 0 0.005 0.003 0 0.006 0.003 0 0.007 0.003 0 0.008 0.003 0 0.009 0.003 0 0.01 0.003 0 0.011 0.003 0 0.012 0.003 0 0.013 0.003 0 0.014 0.003 0 0.015 0.003 0 0.016 0.003 0 0.017 0.003 0 0.018 0.003 0 0.019 0.003 0 0.02 0.003 0 0.021 0.003 0 0.022 0.003 0 0.023 0.003 0 0.024 0.003 0 0.025 0.003 0 0.026 0.003 0 0.027 0.003 0 0.028 0.003 0 0.029 0.003 0 0.03 0.003 0 0.031 0.003 0 0.032 0.003 0 0.033 0.003 0 0.034 0.003 0 0.035 0.003 0 0.036 0.003 0 0.037 0.003 0 0.038 0.003 0 0.039 0.003 0 0.04 0.003 0 0.041 0.003 0 0.042 0.003 0 0.043 0.003 0 0.044 0.003 0 0.045 0.003 0 0.046 0.003 0 0.047 0.003 0 0.048 0.003 0 0.049 0.003 0 0.05 0.003 0 0.051 0.003 0 0.052 0.003 0 0.053 0.003 0 0.054 0.003 0 0.055 0.003 0 0.056 0.003 0 0.057 0.003 0 0.058 0.003 0 0.059 0.003 0 0.06 0.003 0 0.061 0.003 0 0.062 0.003 0 0.063 0.003 0 0.064 0.003 0 0.065 0.003 0 0.066 0.003 0 0.067 0.003 0 0.068 0.003 0 0.069 0.003 0 0.07 0.003 0 0 0.004 0 0.001 0.004 0 0.002 0.004 0 0.003 0.004 0 0.004 0.004 0 0.005 0.004 0 0.006 0.004 0 0.007 0.004 0 0.008 0.004 0 0.009 0.004 0 0.01 0.004 0 0.011 0.004 0 0.012 0.004 0 0.013 0.004 0 0.014 0.004 0 0.015 0.004 0 0.016 0.004 0 0.017 0.004 0 0.018 0.004 0 0.019 0.004 0 0.02 0.004 0 0.021 0.004 0 0.022 0.004 0 0.023 0.004 0 0.024 0.004 0 0.025 0.004 0 0.026 0.004 0 0.027 0.004 0 0.028 0.004 0 0.029 0.004 0 0.03 0.004 0 0.031 0.004 0 0.032 0.004 0 0.033 0.004 0 0.034 0.004 0 0.035 0.004 0 0.036 0.004 0 0.037 0.004 0 0.038 0.004 0 0.039 0.004 0 0.04 0.004 0 0.041 0.004 0 0.042 0.004 0 0.043 0.004 0 0.044 0.004 0 0.045 0.004 0 0.046 0.004 0 0.047 0.004 0 0.048 0.004 0 0.049 0.004 0 0.05 0.004 0 0.051 0.004 0 0.052 0.004 0 0.053 0.004 0 0.054 0.004 0 0.055 0.004 0 0.056 0.004 0 0.057 0.004 0 0.058 0.004 0 0.059 0.004 0 0.06 0.004 0 0.061 0.004 0 0.062 0.004 0 0.063 0.004 0 0.064 0.004 0 0.065 0.004 0 0.066 0.004 0 0.067 0.004 0 0.068 0.004 0 0.069 0.004 0 0.07 0.004 0 0 0.005 0 0.001 0.005 0 0.002 0.005 0 0.003 0.005 0 0.004 0.005 0 0.005 0.005 0 0.006 0.005 0 0.007 0.005 0 0.008 0.005 0 0.009 0.005 0 0.01 0.005 0 0.011 0.005 0 0.012 0.005 0 0.013 0.005 0 0.014 0.005 0 0.015 0.005 0 0.016 0.005 0 0.017 0.005 0 0.018 0.005 0 0.019 0.005 0 0.02 0.005 0 0.021 0.005 0 0.022 0.005 0 0.023 0.005 0 0.024 0.005 0 0.025 0.005 0 0.026 0.005 0 0.027 0.005 0 0.028 0.005 0 0.029 0.005 0 0.03 0.005 0 0.031 0.005 0 0.032 0.005 0 0.033 0.005 0 0.034 0.005 0 0.035 0.005 0 0.036 0.005 0 0.037 0.005 0 0.038 0.005 0 0.039 0.005 0 0.04 0.005 0 0.041 0.005 0 0.042 0.005 0 0.043 0.005 0 0.044 0.005 0 0.045 0.005 0 0.046 0.005 0 0.047 0.005 0 0.048 0.005 0 0.049 0.005 0 0.05 0.005 0 0.051 0.005 0 0.052 0.005 0 0.053 0.005 0 0.054 0.005 0 0.055 0.005 0 0.056 0.005 0 0.057 0.005 0 0.058 0.005 0 0.059 0.005 0 0.06 0.005 0 0.061 0.005 0 0.062 0.005 0 0.063 0.005 0 0.064 0.005 0 0.065 0.005 0 0.066 0.005 0 0.067 0.005 0 0.068 0.005 0 0.069 0.005 0 0.07 0.005 0 0 0.006 0 0.001 0.006 0 0.002 0.006 0 0.003 0.006 0 0.004 0.006 0 0.005 0.006 0 0.006 0.006 0 0.007 0.006 0 0.008 0.006 0 0.009 0.006 0 0.01 0.006 0 0.011 0.006 0 0.012 0.006 0 0.013 0.006 0 0.014 0.006 0 0.015 0.006 0 0.016 0.006 0 0.017 0.006 0 0.018 0.006 0 0.019 0.006 0 0.02 0.006 0 0.021 0.006 0 0.022 0.006 0 0.023 0.006 0 0.024 0.006 0 0.025 0.006 0 0.026 0.006 0 0.027 0.006 0 0.028 0.006 0 0.029 0.006 0 0.03 0.006 0 0.031 0.006 0 0.032 0.006 0 0.033 0.006 0 0.034 0.006 0 0.035 0.006 0 0.036 0.006 0 0.037 0.006 0 0.038 0.006 0 0.039 0.006 0 0.04 0.006 0 0.041 0.006 0 0.042 0.006 0 0.043 0.006 0 0.044 0.006 0 0.045 0.006 0 0.046 0.006 0 0.047 0.006 0 0.048 0.006 0 0.049 0.006 0 0.05 0.006 0 0.051 0.006 0 0.052 0.006 0 0.053 0.006 0 0.054 0.006 0 0.055 0.006 0 0.056 0.006 0 0.057 0.006 0 0.058 0.006 0 0.059 0.006 0 0.06 0.006 0 0.061 0.006 0 0.062 0.006 0 0.063 0.006 0 0.064 0.006 0 0.065 0.006 0 0.066 0.006 0 0.067 0.006 0 0.068 0.006 0 0.069 0.006 0 0.07 0.006 0 0 0.007 0 0.001 0.007 0 0.002 0.007 0 0.003 0.007 0 0.004 0.007 0 0.005 0.007 0 0.006 0.007 0 0.007 0.007 0 0.008 0.007 0 0.009 0.007 0 0.01 0.007 0 0.011 0.007 0 0.012 0.007 0 0.013 0.007 0 0.014 0.007 0 0.015 0.007 0 0.016 0.007 0 0.017 0.007 0 0.018 0.007 0 0.019 0.007 0 0.02 0.007 0 0.021 0.007 0 0.022 0.007 0 0.023 0.007 0 0.024 0.007 0 0.025 0.007 0 0.026 0.007 0 0.027 0.007 0 0.028 0.007 0 0.029 0.007 0 0.03 0.007 0 0.031 0.007 0 0.032 0.007 0 0.033 0.007 0 0.034 0.007 0 0.035 0.007 0 0.036 0.007 0 0.037 0.007 0 0.038 0.007 0 0.039 0.007 0 0.04 0.007 0 0.041 0.007 0 0.042 0.007 0 0.043 0.007 0 0.044 0.007 0 0.045 0.007 0 0.046 0.007 0 0.047 0.007 0 0.048 0.007 0 0.049 0.007 0 0.05 0.007 0 0.051 0.007 0 0.052 0.007 0 0.053 0.007 0 0.054 0.007 0 0.055 0.007 0 0.056 0.007 0 0.057 0.007 0 0.058 0.007 0 0.059 0.007 0 0.06 0.007 0 0.061 0.007 0 0.062 0.007 0 0.063 0.007 0 0.064 0.007 0 0.065 0.007 0 0.066 0.007 0 0.067 0.007 0 0.068 0.007 0 0.069 0.007 0 0.07 0.007 0 0 0.008 0 0.001 0.008 0 0.002 0.008 0 0.003 0.008 0 0.004 0.008 0 0.005 0.008 0 0.006 0.008 0 0.007 0.008 0 0.008 0.008 0 0.009 0.008 0 0.01 0.008 0 0.011 0.008 0 0.012 0.008 0 0.013 0.008 0 0.014 0.008 0 0.015 0.008 0 0.016 0.008 0 0.017 0.008 0 0.018 0.008 0 0.019 0.008 0 0.02 0.008 0 0.021 0.008 0 0.022 0.008 0 0.023 0.008 0 0.024 0.008 0 0.025 0.008 0 0.026 0.008 0 0.027 0.008 0 0.028 0.008 0 0.029 0.008 0 0.03 0.008 0 0.031 0.008 0 0.032 0.008 0 0.033 0.008 0 0.034 0.008 0 0.035 0.008 0 0.036 0.008 0 0.037 0.008 0 0.038 0.008 0 0.039 0.008 0 0.04 0.008 0 0.041 0.008 0 0.042 0.008 0 0.043 0.008 0 0.044 0.008 0 0.045 0.008 0 0.046 0.008 0 0.047 0.008 0 0.048 0.008 0 0.049 0.008 0 0.05 0.008 0 0.051 0.008 0 0.052 0.008 0 0.053 0.008 0 0.054 0.008 0 0.055 0.008 0 0.056 0.008 0 0.057 0.008 0 0.058 0.008 0 0.059 0.008 0 0.06 0.008 0 0.061 0.008 0 0.062 0.008 0 0.063 0.008 0 0.064 0.008 0 0.065 0.008 0 0.066 0.008 0 0.067 0.008 0 0.068 0.008 0 0.069 0.008 0 0.07 0.008 0 0 0.009 0 0.001 0.009 0 0.002 0.009 0 0.003 0.009 0 0.004 0.009 0 0.005 0.009 0 0.006 0.009 0 0.007 0.009 0 0.008 0.009 0 0.009 0.009 0 0.01 0.009 0 0.011 0.009 0 0.012 0.009 0 0.013 0.009 0 0.014 0.009 0 0.015 0.009 0 0.016 0.009 0 0.017 0.009 0 0.018 0.009 0 0.019 0.009 0 0.02 0.009 0 0.021 0.009 0 0.022 0.009 0 0.023 0.009 0 0.024 0.009 0 0.025 0.009 0 0.026 0.009 0 0.027 0.009 0 0.028 0.009 0 0.029 0.009 0 0.03 0.009 0 0.031 0.009 0 0.032 0.009 0 0.033 0.009 0 0.034 0.009 0 0.035 0.009 0 0.036 0.009 0 0.037 0.009 0 0.038 0.009 0 0.039 0.009 0 0.04 0.009 0 0.041 0.009 0 0.042 0.009 0 0.043 0.009 0 0.044 0.009 0 0.045 0.009 0 0.046 0.009 0 0.047 0.009 0 0.048 0.009 0 0.049 0.009 0 0.05 0.009 0 0.051 0.009 0 0.052 0.009 0 0.053 0.009 0 0.054 0.009 0 0.055 0.009 0 0.056 0.009 0 0.057 0.009 0 0.058 0.009 0 0.059 0.009 0 0.06 0.009 0 0.061 0.009 0 0.062 0.009 0 0.063 0.009 0 0.064 0.009 0 0.065 0.009 0 0.066 0.009 0 0.067 0.009 0 0.068 0.009 0 0.069 0.009 0 0.07 0.009 0 0 0.01 0 0.001 0.01 0 0.002 0.01 0 0.003 0.01 0 0.004 0.01 0 0.005 0.01 0 0.006 0.01 0 0.007 0.01 0 0.008 0.01 0 0.009 0.01 0 0.01 0.01 0 0.011 0.01 0 0.012 0.01 0 0.013 0.01 0 0.014 0.01 0 0.015 0.01 0 0.016 0.01 0 0.017 0.01 0 0.018 0.01 0 0.019 0.01 0 0.02
[...]
			<CellData Scalars="Density">
				<DataArray Name="Density" type="Float32" format="ascii">
 0.299178 0.300477 0.301444 0.302567 0.304158 0.306076 0.308299 0.310891 0.31377 0.316971 0.320479 0.324296 0.328463 0.332868 0.337473 0.342158 0.346856 0.351698 0.356614 0.362039 0.368049 0.374134 0.381664 0.389894 0.992291 1.71877 2.21027 2.33746 2.48717 2.64681 2.76846 2.7873 2.69872 2.46877 2.04406 1.51357 1.10658 1.01814 1.00364 1.00103 1.00041 1.00022 1.00012 1.00007 1.00004 1.00002 1.00001 1.00001 1 1 1 1 1 1 1 1 1 1 1 1 1 1 1 1 1 1 1 1 1 1 0.297947 0.29922 0.300116 0.301154 0.3026 0.304351 0.306483 0.308948 0.3117 0.314766 0.318146 0.321835 0.325821 0.330135 0.334491 0.339042 0.343656 0.34829 0.353078 0.358402 0.364505 0.371042 0.378619 0.415795 1.07165 1.78603 2.2294 2.38043 2.53328 2.69878 2.83685 2.87576 2.80313 2.58202 2.1382 1.58851 1.14678 1.03123 1.00823 1.00294 1.00142 1.0008 1.00044 1.00024 1.00013 1.00007 1.00004 1.00002 1.00001 1.00001 1 1 1 1 1 1 1 1 1 1 1 1 1 1 1 1 1 1 1 1 0.297632 0.298908 0.299841 0.301125 0.302676 0.304528 0.306718 0.309226 0.312041 0.315196 0.31861 0.322311 0.326236 0.330418 0.334732 0.339169 0.343745 0.34829 0.352824 0.358156 0.363759 0.369625 0.377029 0.42787 1.09253 1.8157 2.24895 2.40721 2.58036 2.75309 2.89647 2.96924 2.91634 2.70968 2.29916 1.7697 1.25724 1.0662 1.02275 1.01037 1.00581 1.00332 1.00186 1.00106 1.00059 1.00033 1.00018 1.0001 1.00005 1.00003 1.00001 1.00001 1 1 1 1 1 1 1 1 1 1 1 1 1 1 1 1 1 1 0.297229 0.298458 0.299414 0.300568 0.302136 0.303857 0.305894 0.308258 0.310967 0.313942 0.31737 0.320966 0.324946 0.329033 0.333414 0.337655 0.341985 0.346305 0.350737 0.355475 0.360927 0.367001 0.374154 0.461374 1.13069 1.8521 2.24883 2.4171 2.61382 2.79569 2.94269 3.02417 2.9842 2.82001 2.48456 1.99836 1.44975 1.16197 1.07265 1.03992 1.02431 1.01392 1.00809 1.00467 1.00262 1.00148 1.00083 1.00045 1.00024 1.00013 1.00007 1.00003 1.00002 1.00001 1 1 1 1 1 1 1 1 1 1 1 1 1 1 1 1 0.296656 0.297857 0.298789 0.300057 0.301431 0.303236 0.30541 0.307877 0.310681 0.313731 0.316954 0.320422 0.324089 0.328019 0.332026 0.336109 0.340232 0.344338 0.348409 0.353011 0.358275 0.36384 0.370475 0.522956 1.19869 1.90394 2.22855 2.39506 2.59626 2.79164 2.93806 3.03295 3.03525 2.93038 2.65428 2.20984 1.69771 1.36525 1.22683 1.15417 1.09784 1.05788 1.03485 1.02015 1.01146 1.0066 1.00369 1.00202 1.00113 1.00061 1.00031 1.00016 1.00009 1.00004 1.00002 1.00001 1 1 1 1 1 1 1 1 1 1 1 1 1 1 0.29605 0.297012 0.298097 0.299188 0.300694 0.302467 0.304487 0.306856 0.309556 0.312539 0.315659 0.319122 0.322718 0.326532 0.330447 0.334501 0.338332 0.34203 0.34597 0.350251 0.354793 0.360437 0.366299 0.611021 1.2863 1.94226 2.18433 2.3453 2.53952 2.72899 2.87425 3.00027 3.01451 2.94092 2.71687 2.32115 1.88102 1.59105 1.44684 1.37288 1.2933 1.21154 1.13863 1.08324 1.0491 1.02881 1.0162 1.00914 1.00516 1.00277 1.00148 1.0008 1.00042 1.0002 1.0001 1.00005 1.00002 1.00001 1 1 1 1 1 1 1 1 1 1 1 1 0.295148 0.296144 0.297076 0.2983 0.299789 0.301398 0.303416 0.305828 0.308457 0.311251 0.314402 0.317783 0.321251 0.324944 0.328868 0.332588 0.336215 0.339913 0.34319 0.346664 0.351128 0.35631 0.361419 0.68955 1.36967 1.9564 2.13808 2.2868 2.47423 2.66141 2.81225 2.95413 2.93928 2.83296 2.63274 2.29618 1.95686 1.75205 1.6448 1.58931 1.52199 1.44588 1.36232 1.27495 1.19002 1.11853 1.0692 1.04046 1.02294 1.0125 1.00694 1.00379 1.00195 1.001 1.00051 1.00026 1.00012 1.00006 1.00003 1.00001 1.00001 1 1 1 1 1 1 1 1 1 0.294194 0.29492 0.296013 0.297181 0.298531 0.300282 0.302404 0.304624 0.307097 0.309991 0.313107 0.316246 0.319718 0.323413 0.326911 0.330534 0.334198 0.337147 0.340051 0.343143 0.346775 0.351152 0.356237 0.778126 1.46394 1.94388 2.08248 2.22701 2.40171 2.57131 2.71764 2.84346 2.7932 2.66083 2.43618 2.17212 1.94072 1.82483 1.76928 1.7446 1.70902 1.66126 1.59576 1.51988 1.43505 1.34404 1.2504 1.16438 1.09711 1.05546 1.03171 1.01724 1.00914 1.00487 1.00258 1.00131 1.00061 1.00029 1.00014 1.00007 1.00003 1.00001 1.00001 1 1 1 1 1 1 1 0.292841 0.293635 0.2947 0.295918 0.297319 0.299175 0.300993 0.3032 0.305871 0.308673 0.311492 0.314765 0.318199 0.321444 0.324985 0.328592 0.331507 0.334402 0.336975 0.339201 0.342134 0.345679 0.350734 0.857109 1.54166 1.90083 2.03018 2.15871 2.29778 2.45474 2.58278 2.63969 2.56525 2.4217 2.21594 2.01223 1.87285 1.82057 1.80814 1.81351 1.80934 1.79746 1.76921 1.72684 1.66978 1.59521 1.50877 1.41679 1.31837 1.22107 1.13627 1.07679 1.04254 1.02319 1.01239 1.00627 1.00308 1.00153 1.00077 1.00034 1.00015 1.00007 1.00003 1.00001 1 1 1 1 1 1 0.291464 0.291979 0.293343 0.29443 0.295998 0.297532 0.299511 0.301976 0.30442 0.306978 0.310038 0.313206 0.316232 0.319662 0.32307 0.32596 0.329034 0.3316 0.333574 0.335455 0.337193 0.339813 0.344725 0.91601 1.58243 1.84979 1.96084 2.06737 2.18598 2.3015 2.36017 2.35362 2.25705 2.1172 1.94401 1.82233 1.77047 1.76614 1.78548 1.809 1.82544 1.83632 1.83551 1.83092 1.80971 1.77776 1.73222 1.66706 1.58801 1.49735 1.39516 1.28802 1.18664 1.10753 1.0585 1.03055 1.01543 1.00798 1.00394 1.00174 1.00081 1.00037 1.00015 1.00006 1.00003 1.00001 1 1 1 1 0.289695 0.290355 0.291538 0.292805 0.294207 0.295942 0.298205 0.300311 0.302653 0.305552 0.308455 0.311292 0.314582 0.317771 0.320659 0.323828 0.326533 0.328524 0.330333 0.331543 0.332642 0.334528 0.338576 0.94636 1.58504 1.78789 1.88631 1.96885 2.06015 2.07739 2.06995 1.96644 1.60033 1.30393 1.17261 1.15096 1.20704 1.30052 1.40096 1.50043 1.60545 1.70957 1.78696 1.8324 1.85024 1.84343 1.82987 1.8036 1.76228 1.70532 1.63336 1.54968 1.45135 1.34307 1.23142 1.13638 1.07422 1.03945 1.01917 1.00899 1.00431 1.002 1.00085 1.00035 1.00014 1.00005 1.00002 1 1 1 0.287825 0.28826 0.289629 0.29101 0.292422 0.294389 0.296244 0.298437 0.301225 0.303873 0.306529 0.309699 0.31274 0.315642 0.318811 0.321507 0.323784 0.325756 0.327149 0.328068 0.328543 0.329168 0.33246 0.937552 1.56042 1.72065 1.79045 1.84401 1.86543 1.86151 1.60921 1.16639 0.74922 0.437999 0.333297 0.332493 0.386277 0.456206 0.528935 0.615345 0.734217 0.887966 1.06035 1.19255 1.32933 1.46692 1.59414 1.703 1.78351 1.81412 1.79888 1.75379 1.68899 1.61319 1.51597 1.4039 1.28204 1.16906 1.08886 1.04487 1.0225 1.01065 1.00467 1.00192 1.00077 1.00028 1.00009 1.00003 1.00001 1 0.285753 0.286049 0.287654 0.288884 0.290434 0.292235 0.294285 0.296963 0.29937 0.301889 0.304979 0.307895 0.310738 0.313935 0.316678 0.319162 0.321487 0.323131 0.324299 0.324773 0.324606 0.323819 0.326184 0.908238 1.50907 1.64968 1.70582 1.7209 1.72926 1.48512 1.04579 0.555796 0.185264 0.15549 0.15875 0.158754 0.160534 0.161466 0.165109 0.169347 0.172905 0.176275 0.189617 0.276144 0.377498 0.496342 0.632429 0.788487 0.970712 1.16522 1.30946 1.44508 1.5569 1.64982 1.68243 1.66156 1.58618 1.46748 1.33296 1.20356 1.11 1.05521 1.02519 1.01048 1.00436 1.00159 1.00051 1.00016 1.00006 1.00002 0.283364 0.283751 0.285251 0.286486 0.288319 0.290164 0.292584 0.294831 0.297278 0.300344 0.303144 0.305928 0.309143 0.311997 0.314679 0.317326 0.319293 0.320846 0.321773 0.321845 0.321482 0.319254 0.320972 0.726676 1.38102 1.58463 1.62545 1.61242 1.54951 1.11598 0.651465 0.211722 0.153768 0.174962 0.192055 0.211709 0.221674 0.217583 0.192134 0.17485 0.171906 0.175162 0.177824 0.180053 0.181975 0.183455 0.184817 0.186338 0.1883 0.212304 0.322071 0.445428 0.581796 0.749746 0.912371 1.07277 1.27828 1.37531 1.40996 1.39414 1.33271 1.2277 1.1199 1.05588 1.02451 1.00911 1.00313 1.00116 1.00033 1.00011 0.280832 0.281106 0.282671 0.284272 0.286 0.28804 0.290242 0.292662 0.295708 0.298397 0.30115 0.304393 0.307314 0.31014 0.31309 0.315428 0.317459 0.318982 0.319742 0.319448 0.31888 0.315863 0.316224 0.593232 1.15902 1.51882 1.5515 1.5344 1.23052 0.823942 0.385149 0.151269 0.149481 0.177219 0.216533 0.269071 0.299012 0.302019 0.306506 0.264747 0.213098 0.177001 0.177289 0.179792 0.18169 0.183811 0.185574 0.186969 0.188131 0.188893 0.189349 0.189338 0.189488 0.189221 0.190068 0.192264 0.251797 0.4075 0.539053 0.653618 0.786468 0.901367 0.984571 1.01747 1.01827 1.01405 1.00945 1.00289 1.00076 1.00027 0.278151 0.278355 0.280162 0.281754 0.283447 0.28568 0.287996 0.290957 0.293563 0.296322 0.299623 0.302598 0.305522 0.308686 0.311402 0.313887 0.316016 0.317458 0.318098 0.317834 0.316932 0.314404 0.312443 0.389829 1.12286 1.47006 1.48662 1.46627 1.16607 0.784995 0.371553 0.149699 0.150594 0.240661 0.338353 0.362205 0.319067 0.301433 0.309123 0.316561 0.306839 0.22199 0.177265 0.178996 0.180806 0.183089 0.185172 0.186759 0.188004 0.18889 0.18964 0.189941 0.190264 0.190545 0.189784 0.189918 0.190719 0.189781 0.188918 0.187221 0.183399 0.176296 0.165873 0.150734 0.133008 0.117172 0.106372 0.101769 0.100509 0.100174 0.275323 0.275609 0.27742 0.278921 0.281046 0.28332 0.286056 0.288629 0.291414 0.29478 0.297798 0.300828 0.304152 0.307137 0.309993 0.31271 0.314779 0.316425 0.317178 0.317001 0.31555 0.313777 0.311061 0.308866 0.578716 1.33554 1.43232 1.41208 1.2424 0.954625 0.698431 0.598649 0.608314 0.59381 0.52975 0.427105 0.319184 0.306444 0.311147 0.317205 0.323873 0.25543 0.188077 0.179528 0.181149 0.183138 0.184948 0.186497 0.187838 0.188956 0.189946 0.190722 0.191161 0.191744 0.19176 0.191547 0.191688 0.191257 0.189798 0.187464 0.184246 0.178837 0.169491 0.156274 0.140716 0.123832 0.109561 0.102909 0.10084 0.100273 0.272524 0.272759 0.274616 0.276461 0.278617 0.281072 0.283657 0.286427 0.289812 0.292857 0.295999 0.299478 0.302672 0.305784 0.308922 0.311606 0.313986 0.315798 0.316697 0.316657 0.315628 0.313346 0.311461 0.309632 0.307557 0.558706 0.990101 1.36084 1.32308 1.23212 1.05448 0.897306 0.739353 0.57896 0.408226 0.30196 0.305123 0.309969 0.31439 0.319092 0.325017 0.256599 0.188455 0.179151 0.180654 0.182574 0.184467 0.186105 0.187443 0.188545 0.189488 0.190265 0.190848 0.191243 0.191196 0.191046 0.190758 0.190065 0.188886 0.186395 0.182646 0.177681 0.170552 0.160622 0.147292 0.130536 0.114083 0.104438 0.101292 0.100399 0.269786 0.270042 0.271985 0.274022 0.276187 0.278723 0.281433 0.284766 0.287821 0.291051 0.294671 0.298023 0.301353 0.304757 0.307865 0.310712 0.313267 0.31547 0.316653 0.317095 0.316778 0.315801 0.314125 0.31224 0.310041 0.308298 0.412417 0.604921 0.817075 0.817955 0.780931 0.629299 0.484828 0.346205 0.305224 0.30766 0.310363 0.313779 0.317834 0.32177 0.326617 0.253801 0.187096 0.179479 0.180897 0.182669 0.184408 0.185913 0.187154 0.18817 0.189067 0.189798 0.190331 0.190763 0.190702 0.190439 0.189936 0.189074 0.187886 0.186172 0.183552 0.179584 0.173484 0.164762 0.152451 0.136099 0.118671 0.106136 0.10178 0.100535 0.267212 0.267518 0.269621 0.271597 0.273895 0.276507 0.279707 0.282738 0.286003 0.289702 0.293183 0.296694 0.300319 0.303705 0.306912 0.309985 0.312998 0.315788 0.317694 0.318887 0.319223 0.319049 0.317924 0.31644 0.31451 0.312855 0.310914 0.310779 0.333574 0.354751 0.352239 0.327451 0.309834 0.309347 0.310564 0.312385 0.314533 0.317428 0.320747 0.324183 0.32616 0.250148 0.185325 0.179271 0.180729 0.182549 0.184236 0.185674 0.186889 0.187885 0.188688 0.189321 0.189828 0.19016 0.190082 0.189823 0.189299 0.188438 0.187146 0.185307 0.182853 0.179283 0.17422 0.166876 0.155942 0.14032 0.122812 0.108041 0.102257 0.100656 0.264897 0.265336 0.267318 0.269371 0.271828 0.274805 0.277778 0.280986 0.284705 0.288227 0.291855 0.29565 0.29928 0.302873 0.306568 0.310291 0.31368 0.317344 0.319628 0.321355 0.322403 0.322986 0.322755 0.3218 0.320204 0.318933 0.317147 0.317008 0.316808 0.316515 0.316 0.314785 0.314541 0.314893 0.315581 0.316914 0.318494 0.320831 0.323429 0.326336 0.321869 0.243616 0.182797 0.179624 0.180896 0.182557 0.184177 0.185561 0.186713 0.187649 0.188379 0.188941 0.189367 0.189561 0.189492 0.189198 0.188648 0.187862 0.186815 0.185246 0.183176 0.180446 0.176306 0.169747 0.159575 0.144347 0.126462 0.109894 0.102743 0.10078 0.262887 0.263383 0.265377 0.267558 0.270226 0.273054 0.276033 0.279648 0.283158 0.286816 0.290741 0.294697 0.298755 0.302971 0.30717 0.311371 0.315604 0.319519 0.322212 0.324439 0.326097 0.327182 0.327767 0.327544 0.326399 0.325404 0.323875 0.323304 0.32238 0.321605 0.320884 0.319984 0.319587 0.319829 0.320246 0.320894 0.322038 0.323582 0.325706 0.328239 0.314355 0.234221 0.180135 0.179724 0.181025 0.182642 0.184154 0.185475 0.186584 0.187476 0.188162 0.188655 0.189023 0.189117 0.189042 0.188746 0.188176 0.187331 0.186286 0.18494 0.183158 0.180696 0.176912 0.171098 0.16185 0.147522 0.129641 0.111894 0.103252 0.100904 0.261341 0.261853 0.263824 0.266141 0.268761 0.271459 0.274834 0.278305 0.281998 0.286149 0.290499 0.295179 0.299988 0.304726 0.309185 0.313448 0.31811 0.32172 0.32498 0.327736 0.329919 0.331414 0.33242 0.332897 0.332405 0.331602 0.330347 0.32951 0.328145 0.327046 0.325951 0.324898 0.32416 0.323941 0.324091 0.324158 0.324503 0.325635 0.327283 0.32956 0.304409 0.222959 0.178906 0.179938 0.181241 0.182759 0.184174 0.185424 0.186483 0.187339 0.188004 0.188474 0.188809 0.188855 0.188732 0.188417 0.187929 0.187197 0.186189 0.184959 0.183425 0.181403 0.17826 0.173173 0.164357 0.150522 0.132457 0.113803 0.103759 0.101024 0.260091 0.260648 0.262633 0.264911 0.267294 0.270277 0.273586 0.277269 0.281505 0.286012 0.290751 0.295715 0.300751 0.30586 0.310751 0.3156 0.320778 0.324473 0.327905 0.330879 0.333456 0.335439 0.336707 0.337561 0.33766 0.33706 0.335922 0.334928 0.333373 0.332097 0.330685 0.329447 0.328372 0.327703 0.327348 0.327141 0.326937 0.327265 0.328342 0.330058 0.293185 0.212636 0.179138 0.180176 0.181464 0.182887 0.1842 0.185376 0.186401 0.187238 0.187877 0.188314 0.188603 0.188636 0.188513 0.18815 0.187619 0.186953 0.186097 0.184986 0.183568 0.181676 0.178663 0.173965 0.165711 0.152773 0.134778 0.115576 0.104241 0.101136 0.259214 0.259715 0.261701 0.263849 0.266553 0.269807 0.273614 0.278193 0.283044 0.288011 0.292993 0.297983 0.302988 0.307924 0.312749 0.317601 0.322665 0.327174 0.330915 0.334103 0.336761 0.338996 0.340591 0.341537 0.342062 0.341797 0.340785 0.339749 0.338174 0.336809 0.335181 0.333778 0.332292 0.331156 0.330433 0.329334 0.328624 0.328754 0.329545 0.330981 0.279914 0.202178 0.179443 0.180435 0.181718 0.183048 0.184287 0.185395 0.186362 0.187161 0.187788 0.188224 0.188462 0.188462 0.188323 0.188008 0.187493 0.186769 0.185898 0.184847 0.18362 0.182045 0.179522 0.175396 0.167484 0.154872 0.136713 0.117188 0.104704 0.101234 0.258705 0.259099 0.260952 0.263265 0.266107 0.269356 0.273205 0.277526 0.282206 0.287215 0.292417 0.297756 0.303254 0.308844 0.314358 0.319588 0.324469 0.329652 0.333575 0.337053 0.339855 0.342085 0.343904 0.345049 0.34561 0.345684 0.34493 0.343824 0.342243 0.34078 0.338921 0.33721 0.33564 0.334014 0.332348 0.330993 0.330052 0.330031 0.330715 0.331968 0.26552 0.194234 0.179714 0.18066 0.181917 0.183213 0.184396 0.185447 0.186361 0.187125 0.187722 0.188136 0.188384 0.188413 0.188267 0.187918 0.187421 0.186762 0.186017 0.185089 0.183974 0.182471 0.17995 0.17595 0.16833 0.15643 0.138518 0.118699 0.105094 0.101313 0.258511 0.258946 0.261125 0.264022 0.267285 0.270868 0.274663 0.278843 0.283471 0.288522 0.293904 0.299426 0.305117 0.3109 0.316593 0.321759 0.326594 0.332174 0.335858 0.339317 0.342379 0.344709 0.346585 0.347885 0.348578 0.348722 0.34816 0.346976 0.34535 0.343664 0.341624 0.340019 0.337941 0.335565 0.333779 0.332345 0.331247 0.331216 0.331854 0.328722 0.254412 0.188618 0.179941 0.180884 0.182108 0.183347 0.184488 0.185506 0.186382 0.187105 0.187662 0.188043 0.188262 0.188292 0.188185 0.187882 0.187427 0.186796 0.186053 0.185061 0.183927 0.182534 0.180314 0.176841 0.169633 0.157921 0.139712 0.119638 0.105368 0.101364 0.258428 0.258779 0.26066 0.263143 0.266069 0.269413 0.273309 0.27776 0.282684 0.287987 0.293556 0.299284 0.305128 0.310973 0.316775 0.322477 0.328005 0.332944 0.337584 0.341226 0.344181 0.346741 0.34864 0.35008 0.350709 0.350806 0.350345 0.349229 0.34762 0.345871 0.343669 0.34168 0.33934 0.336842 0.334976 0.333469 0.332368 0.332309 0.332767 0.325154 0.249537 0.186236 0.180157 0.181058 0.182249 0.183438 0.18453 0.185512 0.18636 0.18706 0.187589 0.187955 0.188156 0.188159 0.188004 0.187686 0.187228 0.186599 0.185916 0.185056 0.184084 0.182792 0.180598 0.177062 0.16979 0.15837 0.140547 0.120548 0.105632 0.101403 0.258472 0.259227 0.261653 0.264315 0.267542 0.271252 0.275474 0.280156 0.285249 0.290657 0.296302 0.302096 0.307972 0.313851 0.319576 0.325045 0.3302 0.335042 0.339198 0.343082 0.346003 0.348501 0.350574 0.351585 0.352216 0.35217 0.351739 0.350731 0.349161 0.347249 0.344913 0.342397 0.339954 0.337558 0.335657 0.334103 0.333044 0.332994 0.333546 0.320625 0.243874 0.183938 0.180229 0.181136 0.182324 0.183496 0.184569 0.185527 0.186349 0.187017 0.187514 0.187865 0.188076 0.188123 0.188046 0.187798 0.187405 0.186849 0.186207 0.185338 0.184303 0.182972 0.180842 0.177514 0.170653 0.159618 0.141639 0.121167 0.105714 0.101409 0.256929 0.257339 0.259391 0.261906 0.264839 0.268248 0.272184 0.276617 0.281481 0.286703 0.29219 0.297851 0.303611 0.309388 0.315086 0.320615 0.32587 0.330774 0.335264 0.33915 0.342517 0.345261 0.347605 0.349035 0.350051 0.350412 0.350194 0.349557 0.348371 0.346658 0.344657 0.342356 0.340048 0.337803 0.335952 0.334452 0.333469 0.333439 0.334001 0.315257 0.237982 0.182139 0.180267 0.181163 0.182323 0.183463 0.184524 0.185483 0.186307 0.186976 0.187491 0.187855 0.188028 0.188032 0.187902 0.187631 0.187219 0.186656 0.185997 0.185215 0.184324 0.183059 0.18097 0.177723 0.170877 0.159741 0.14163 0.121143 0.10572 0.101412
				</DataArray>
				<DataArray Name="Energy" type="Float32" format="ascii">