<?xml version="1.0"?>
<VTKFile type="PolyData">
	<PolyData>
		<Piece NumberOfPoints="2201" NumberOfPolys="2100">
			<Points>
				<DataArray type="Float32" NumberOfComponents="3" format="ascii">
 0 0 0 0.001 0 0 0.002 0 0 0.003 0 0 0.004 0 0 0.005 0 0 0.006 0 0 0.007 0 0 0.008 0 0 0.009 0 0 0.01 0 0 0.011 0 0 0.012 0 0 0.013 0 0 0.014 0 0 0.015 0 0 0.016 0 0 0.017 0 0 0.018 0 0 0.019 0 0 0.02 0 0 0.021 0 0 0.022 0 0 0.023 0 0 0.024 0 0 0.025 0 0 0.026 0 0 0.027 0 0 0.028 0 0 0.029 0 0 0.03 0 0 0.031 0 0 0.032 0 0 0.033 0 0 0.034 0 0 0.035 0 0 0.036 0 0 0.037 0 0 0.038 0 0 0.039 0 0 0.04 0 0 0.041 0 0 0.042 0 0 0.043 0 0 0.044 0 0 0.045 0 0 0.046 0 0 0.047 0 0 0.048 0 0 0.049 0 0 0.05 0 0 0.051 0 0 0.052 0 0 0.053 0 0 0.054 0 0 0.055 0 0 0.056 0 0 0.057 0 0 0.058 0 0 0.059 0 0 0.06 0 0 0.061 0 0 0.062 0 0 0.063 0 0 0.064 0 0 0.065 0 0 0.066 0 0 0.067 0 0 0.068 0 0 0.069 0 0 0.07 0 0 0 0.001 0 0.001 0.001 0 0.002 0.001 0 0.003 0.001 0 0.004 0.001 0 0.005 0.001 0 0.006 0.001 0 0.007 0.001 0 0.008 0.001 0 0.009 0.001 0 0.01 0.001 0 0.011 0.001 0 0.012 0.001 0 0.013 0.001 0 0.014 0.001 0 0.015 0.001 0 0.016 0.001 0 0.017 0.001 0 0.018 0.001 0 0.019 0.001 0 0.02 0.001 0 0.021 0.001 0 0.022 0.001 0 0.023 0.001 0 0.024 0.001 0 0.025 0.001 0 0.026 0.001 0 0.027 0.001 0 0.028 0.001 0 0.029 0.001 0 0.03 0.001 0 0.031 0.001 0 0.032 0.001 0 0.033 0.001 0 0.034 0.001 0 0.035 0.001 0 0.036 0.001 0 0.037 0.001 0 0.038 0.001 0 0.039 0.001 0 0.04 0.001 0 0.041 0.001 0 0.042 0.001 0 0.043 0.001 0 0.044 0.001 0 0.045 0.001 0 0.046 0.001 0 0.047 0.001 0 0.048 0.001 0 0.049 0.001 0 0.05 0.001 0 0.051 0.001 0 0.052 0.001 0 0.053 0.001 0 0.054 0.001 0 0.055 0.001 0 0.056 0.001 0 0.057 0.001 0 0.058 0.001 0 0.059 0.001 0 0.06 0.001 0 0.061 0.001 0 0.062 0.001 0 0.063 0.001 0 0.064 0.001 0 0.065 0.001 0 0.066 0.001 0 0.067 0.001 0 0.068 0.001 0 0.069 0.001 0 0.07 0.001 0 0 0.002 0 0.001 0.002 0 0.002 0.002 0 0.003 0.002 0 0.004 0.002 0 0.005 0.002 0 0.006 0.002 0 0.007 0.002 0 0.008 0.002 0 0.009 0.002 0 0.01 0.002 0 0.011 0.002 0 0.012 0.002 0 0.013 0.002 0 0.014 0.002 0 0.015 0.002 0 0.016 0.002 0 0.017 0.002 0 0.018 0.002 0 0.019 0.002 0 0.02 0.002 0 0.021 0.002 0 0.022 0.002 0 0.023 0.002 0 0.024 0.002 0 0.025 0.002 0 0.026 0.002 0 0.027 0.002 0 0.028 0.002 0 0.029 0.002 0 0.03 0.002 0 0.031 0.002 0 0.032 0.002 0 0.033 0.002 0 0.034 0.002 0 0.035 0.002 0 0.036 0.002 0 0.037 0.002 0 0.038 0.002 0 0.039 0.002 0 0.04 0.002 0 0.041 0.002 0 0.042 0.002 0 0.043 0.002 0 0.044 0.002 0 0.045 0.002 0 0.046 0.002 0 0.047 0.002 0 0.048 0.002 0 0.049 0.002 0 0.05 0.002 0 0.051 0.002 0 0.052 0.002 0 0.053 0.002 0 0.054 0.002 0 0.055 0.002 0 0.056 0.002 0 0.057 0.002 0 0.058 0.002 0 0.059 0.002 0 0.06 0.002 0 0.061 0.002 0 0.062 0.002 0 0.063 0.002 0 0.064 0.002 0 0.065 0.002 0 0.066 0.002 0 0.067 0.002 0 0.068 0.002 0 0.069 0.002 0 0.07 0.002 0 0 0.003 0 0.001 0.003 0 0.002 0.003 0 0.003 0.003 0 0.004 0.003 0 0.005 0.003 0 0.006 0.003 0 0.007 0.003 0 0.008 0.003 0 0.009 0.003 0 0.01 0.003 0 0.011 0.003 0 0.012 0.003 0 0.013 0.003 0 0.014 0.003 0 0.015 0.003 0 0.016 0.003 0 0.017 0.003 0 0.018 0.003 0 0.019 0.003 0 0.02 0.003 0 0.021 0.003 0 0.022 0.003 0 0.023 0.003 0 0.024 0.003 0 0.025 0.003 0 0.026 0.003 0 0.027 0.003 0 0.028 0.003 0 0.029 0.003 0 0.03 0.003 0 0.031 0.003 0 0.032 0.003 0 0.033 0.003 0 0.034 0.003 0 0.035 0.003 0 0.036 0.003 0 0.037 0.003 0 0.038 0.003 0 0.039 0.003 0 0.04 0.003 0 0.041 0.003 0 0.042 0.003 0 0.043 0.003 0 0.044 0.003 0 0.045 0.003 0 0.046 0.003 0 0.047 0.003 0 0.048 0.003 0 0.049 0.003 0 0.05 0.003 0 0.051 0.003 0 0.052 0.003 0 0.053 0.003 0 0.054 0.003 0 0.055 0.003 0 0.056 0.003 0 0.057 0.003 0 0.058 0.003 0 0.059 0.003 0 0.06 0.003 0 0.061 0.003 0 0.062 0.003 0 0.063 0.003 0 0.064 0.003 0 0.065 0.003 0 0.066 0.003 0 0.067 0.003 0 0.068 0.003 0 0.069 0.003 0 0.07 0.003 0 0 0.004 0 0.001 0.004 0 0.002 0.004 0 0.003 0.004 0 0.004 0.004 0 0.005 0.004 0 0.006 0.004 0 0.007 0.004 0 0.008 0.004 0 0.009 0.004 0 0.01 0.004 0 0.011 0.004 0 0.012 0.004 0 0.013 0.004 0 0.014 0.004 0 0.015 0.004 0 0.016 0.004 0 0.017 0.004 0 0.018 0.004 0 0.019 0.004 0 0.02 0.004 0 0.021 0.004 0 0.022 0.004 0 0.023 0.004 0 0.024 0.004 0 0.025 0.004 0 0.026 0.004 0 0.027 0.004 0 0.028 0.004 0 0.029 0.004 0 0.03 0.004 0 0.031 0.004 0 0.032 0.004 0 0.033 0.004 0 0.034 0.004 0 0.035 0.004 0 0.036 0.004 0 0.037 0.004 0 0.038 0.004 0 0.039 0.004 0 0.04 0.004 0 0.041 0.004 0 0.042 0.004 0 0.043 0.004 0 0.044 0.004 0 0.045 0.004 0 0.046 0.004 0 0.047 0.004 0 0.048 0.004 0 0.049 0.004 0 0.05 0.004 0 0.051 0.004 0 0.052 0.004 0 0.053 0.004 0 0.054 0.004 0 0.055 0.004 0 0.056 0.004 0 0.057 0.004 0 0.058 0.004 0 0.059 0.004 0 0.06 0.004 0 0.061 0.004 0 0.062 0.004 0 0.063 0.004 0 0.064 0.004 0 0.065 0.004 0 0.066 0.004 0 0.067 0.004 0 0.068 0.004 0 0.069 0.004 0 0.07 0.004 0 0 0.005 0 0.001 0.005 0 0.002 0.005 0 0.003 0.005 0 0.004 0.005 0 0.005 0.005 0 0.006 0.005 0 0.007 0.005 0 0.008 0.005 0 0.009 0.005 0 0.01 0.005 0 0.011 0.005 0 0.012 0.005 0 0.013 0.005 0 0.014 0.005 0 0.015 0.005 0 0.016 0.005 0 0.017 0.005 0 0.018 0.005 0 0.019 0.005 0 0.02 0.005 0 0.021 0.005 0 0.022 0.005 0 0.023 0.005 0 0.024 0.005 0 0.025 0.005 0 0.026 0.005 0 0.027 0.005 0 0.028 0.005 0 0.029 0.005 0 0.03 0.005 0 0.031 0.005 0 0.032 0.005 0 0.033 0.005 0 0.034 0.005 0 0.035 0.005 0 0.036 0.005 0 0.037 0.005 0 0.038 0.005 0 0.039 0.005 0 0.04 0.005 0 0.041 0.005 0 0.042 0.005 0 0.043 0.005 0 0.044 0.005 0 0.045 0.005 0 0.046 0.005 0 0.047 0.005 0 0.048 0.005 0 0.049 0.005 0 0.05 0.005 0 0.051 0.005 0 0.052 0.005 0 0.053 0.005 0 0.054 0.005 0 0.055 0.005 0 0.056 0.005 0 0.057 0.005 0 0.058 0.005 0 0.059 0.005 0 0.06 0.005 0 0.061 0.005 0 0.062 0.005 0 0.063 0.005 0 0.064 0.005 0 0.065 0.005 0 0.066 0.005 0 0.067 0.005 0 0.068 0.005 0 0.069 0.005 0 0.07 0.005 0 0 0.006 0 0.001 0.006 0 0.002 0.006 0 0.003 0.006 0 0.004 0.006 0 0.005 0.006 0 0.006 0.006 0 0.007 0.006 0 0.008 0.006 0 0.009 0.006 0 0.01 0.006 0 0.011 0.006 0 0.012 0.006 0 0.013 0.006 0 0.014 0.006 0 0.015 0.006 0 0.016 0.006 0 0.017 0.006 0 0.018 0.006 0 0.019 0.006 0 0.02 0.006 0 0.021 0.006 0 0.022 0.006 0 0.023 0.006 0 0.024 0.006 0 0.025 0.006 0 0.026 0.006 0 0.027 0.006 0 0.028 0.006 0 0.029 0.006 0 0.03 0.006 0 0.031 0.006 0 0.032 0.006 0 0.033 0.006 0 0.034 0.006 0 0.035 0.006 0 0.036 0.006 0 0.037 0.006 0 0.038 0.006 0 0.039 0.006 0 0.04 0.006 0 0.041 0.006 0 0.042 0.006 0 0.043 0.006 0 0.044 0.006 0 0.045 0.006 0 0.046 0.006 0 0.047 0.006 0 0.048 0.006 0 0.049 0.006 0 0.05 0.006 0 0.051 0.006 0 0.052 0.006 0 0.053 0.006 0 0.054 0.006 0 0.055 0.006 0 0.056 0.006 0 0.057 0.006 0 0.058 0.006 0 0.059 0.006 0 0.06 0.006 0 0.061 0.006 0 0.062 0.006 0 0.063 0.006 0 0.064 0.006 0 0.065 0.006 0 0.066 0.006 0 0.067 0.006 0 0.068 0.006 0 0.069 0.006 0 0.07 0.006 0 0 0.007 0 0.001 0.007 0 0.002 0.007 0 0.003 0.007 0 0.004 0.007 0 0.005 0.007 0 0.006 0.007 0 0.007 0.007 0 0.008 0.007 0 0.009 0.007 0 0.01 0.007 0 0.011 0.007 0 0.012 0.007 0 0.013 0.007 0 0.014 0.007 0 0.015 0.007 0 0.016 0.007 0 0.017 0.007 0 0.018 0.007 0 0.019 0.007 0 0.02 0.007 0 0.021 0.007 0 0.022 0.007 0 0.023 0.007 0 0.024 0.007 0 0.025 0.007 0 0.026 0.007 0 0.027 0.007 0 0.028 0.007 0 0.029 0.007 0 0.03 0.007 0 0.031 0.007 0 0.032 0.007 0 0.033 0.007 0 0.034 0.007 0 0.035 0.007 0 0.036 0.007 0 0.037 0.007 0 0.038 0.007 0 0.039 0.007 0 0.04 0.007 0 0.041 0.007 0 0.042 0.007 0 0.043 0.007 0 0.044 0.007 0 0.045 0.007 0 0.046 0.007 0 0.047 0.007 0 0.048 0.007 0 0.049 0.007 0 0.05 0.007 0 0.051 0.007 0 0.052 0.007 0 0.053 0.007 0 0.054 0.007 0 0.055 0.007 0 0.056 0.007 0 0.057 0.007 0 0.058 0.007 0 0.059 0.007 0 0.06 0.007 0 0.061 0.007 0 0.062 0.007 0 0.063 0.007 0 0.064 0.007 0 0.065 0.007 0 0.066 0.007 0 0.067 0.007 0 0.068 0.007 0 0.069 0.007 0 0.07 0.007 0 0 0.008 0 0.001 0.008 0 0.002 0.008 0 0.003 0.008 0 0.004 0.008 0 0.005 0.008 0 0.006 0.008 0 0.007 0.008 0 0.008 0.008 0 0.009 0.008 0 0.01 0.008 0 0.011 0.008 0 0.012 0.008 0 0.013 0.008 0 0.014 0.008 0 0.015 0.008 0 0.016 0.008 0 0.017 0.008 0 0.018 0.008 0 0.019 0.008 0 0.02 0.008 0 0.021 0.008 0 0.022 0.008 0 0.023 0.008 0 0.024 0.008 0 0.025 0.008 0 0.026 0.008 0 0.027 0.008 0 0.028 0.008 0 0.029 0.008 0 0.03 0.008 0 0.031 0.008 0 0.032 0.008 0 0.033 0.008 0 0.034 0.008 0 0.035 0.008 0 0.036 0.008 0 0.037 0.008 0 0.038 0.008 0 0.039 0.008 0 0.04 0.008 0 0.041 0.008 0 0.042 0.008 0 0.043 0.008 0 0.044 0.008 0 0.045 0.008 0 0.046 0.008 0 0.047 0.008 0 0.048 0.008 0 0.049 0.008 0 0.05 0.008 0 0.051 0.008 0 0.052 0.008 0 0.053 0.008 0 0.054 0.008 0 0.055 0.008 0 0.056 0.008 0 0.057 0.008 0 0.058 0.008 0 0.059 0.008 0 0.06 0.008 0 0.061 0.008 0 0.062 0.008 0 0.063 0.008 0 0.064 0.008 0 0.065 0.008 0 0.066 0.008 0 0.067 0.008 0 0.068 0.008 0 0.069 0.008 0 0.07 0.008 0 0 0.009 0 0.001 0.009 0 0.002 0.009 0 0.003 0.009 0 0.004 0.009 0 0.005 0.009 0 0.006 0.009 0 0.007 0.009 0 0.008 0.009 0 0.009 0.009 0 0.01 0.009 0 0.011 0.009 0 0.012 0.009 0 0.013 0.009 0 0.014 0.009 0 0.015 0.009 0 0.016 0.009 0 0.017 0.009 0 0.018 0.009 0 0.019 0.009 0 0.02 0.009 0 0.021 0.009 0 0.022 0.009 0 0.023 0.009 0 0.024 0.009 0 0.025 0.009 0 0.026 0.009 0 0.027 0.009 0 0.028 0.009 0 0.029 0.009 0 0.03 0.009 0 0.031 0.009 0 0.032 0.009 0 0.033 0.009 0 0.034 0.009 0 0.035 0.009 0 0.036 0.009 0 0.037 0.009 0 0.038 0.009 0 0.039 0.009 0 0.04 0.009 0 0.041 0.009 0 0.042 0.009 0 0.043 0.009 0 0.044 0.009 0 0.045 0.009 0 0.046 0.009 0 0.047 0.009 0 0.048 0.009 0 0.049 0.009 0 0.05 0.009 0 0.051 0.009 0 0.052 0.009 0 0.053 0.009 0 0.054 0.009 0 0.055 0.009 0 0.056 0.009 0 0.057 0.009 0 0.058 0.009 0 0.059 0.009 0 0.06 0.009 0 0.061 0.009 0 0.062 0.009 0 0.063 0.009 0 0.064 0.009 0 0.065 0.009 0 0.066 0.009 0 0.067 0.009 0 0.068 0.009 0 0.069 0.009 0 0.07 0.009 0 0 0.01 0 0.001 0.01 0 0.002 0.01 0 0.003 0.01 0 0.004 0.01 0 0.005 0.01 0 0.006 0.01 0 0.007 0.01 0 0.008 0.01 0 0.009 0.01 0 0.01 0.01 0 0.011 0.01 0 0.012 0.01 0 0.013 0.01 0 0.014 0.01 0 0.015 0.01 0 0.016 0.01 0 0.017 0.01 0 0.018 0.01 0 0.019 0.01 0 0.02
[...]
			<CellData Scalars="Density">
				<DataArray Name="Density" type="Float32" format="ascii">
 0.70142 0.688381 0.684078 0.67841 0.670502 0.661105 0.651074 0.641381 0.63302 0.626228 0.61958 0.611665 0.602831 0.597375 0.596016 1.61445 2.55568 2.49545 2.08643 1.49134 1.07948 1.01023 1.00116 1.00013 1.00001 1 1 1 1 1 1 1 1 1 1 1 1 1 1 1 1 1 1 1 1 1 1 1 1 1 1 1 1 1 1 1 1 1 1 1 1 1 1 1 1 1 1 1 1 1 0.701444 0.688387 0.684062 0.678359 0.670406 0.660955 0.650872 0.641157 0.632814 0.626068 0.619647 0.611664 0.602791 0.597195 0.595959 1.61455 2.55565 2.49547 2.08641 1.4913 1.07948 1.01023 1.00116 1.00013 1.00001 1 1 1 1 1 1 1 1 1 1 1 1 1 1 1 1 1 1 1 1 1 1 1 1 1 1 1 1 1 1 1 1 1 1 1 1 1 1 1 1 1 1 1 1 1 0.701428 0.688342 0.683999 0.678295 0.670365 0.660944 0.650879 0.641144 0.632715 0.625972 0.619493 0.611949 0.602973 0.596613 0.595313 1.61427 2.55586 2.49588 2.08672 1.49147 1.07948 1.01022 1.00116 1.00013 1.00001 1 1 1 1 1 1 1 1 1 1 1 1 1 1 1 1 1 1 1 1 1 1 1 1 1 1 1 1 1 1 1 1 1 1 1 1 1 1 1 1 1 1 1 1 1 0.701373 0.688299 0.68394 0.678168 0.670126 0.660581 0.650427 0.640709 0.63237 0.625725 0.619872 0.612041 0.602181 0.596097 0.594426 1.61357 2.55539 2.49555 2.08621 1.49111 1.07946 1.01022 1.00116 1.00013 1.00001 1 1 1 1 1 1 1 1 1 1 1 1 1 1 1 1 1 1 1 1 1 1 1 1 1 1 1 1 1 1 1 1 1 1 1 1 1 1 1 1 1 1 1 1 1 0.701226 0.688133 0.683775 0.678043 0.67006 0.660549 0.650307 0.640279 0.631512 0.624569 0.618236 0.610701 0.600531 0.5945 0.592994 1.61321 2.55446 2.49537 2.08636 1.49138 1.07946 1.01022 1.00116 1.00013 1.00001 1 1 1 1 1 1 1 1 1 1 1 1 1 1 1 1 1 1 1 1 1 1 1 1 1 1 1 1 1 1 1 1 1 1 1 1 1 1 1 1 1 1 1 1 1 0.700932 0.687813 0.683396 0.677411 0.669085 0.659242 0.648819 0.638794 0.629887 0.622399 0.615747 0.607379 0.597244 0.591675 0.590813 1.61118 2.5514 2.49357 2.08498 1.49041 1.07944 1.01022 1.00116 1.00012 1.00001 1 1 1 1 1 1 1 1 1 1 1 1 1 1 1 1 1 1 1 1 1 1 1 1 1 1 1 1 1 1 1 1 1 1 1 1 1 1 1 1 1 1 1 1 1 0.700242 0.687002 0.682547 0.676541 0.668025 0.657713 0.646539 0.635693 0.626366 0.618653 0.61165 0.603367 0.593132 0.587834 0.587445 1.60602 2.54446 2.48989 2.08435 1.49136 1.07952 1.01023 1.00116 1.00013 1.00002 1 1 1 1 1 1 1 1 1 1 1 1 1 1 1 1 1 1 1 1 1 1 1 1 1 1 1 1 1 1 1 1 1 1 1 1 1 1 1 1 1 1 1 1 1 0.699389 0.685932 0.681089 0.674582 0.665547 0.654804 0.643371 0.63238 0.622679 0.614294 0.606535 0.597826 0.587455 0.5836 0.583812 1.60638 2.53746 2.48256 2.07877 1.48714 1.07937 1.01009 1.00122 1.00021 1.00004 1.00001 1 1 1 1 1 1 1 1 1 1 1 1 1 1 1 1 1 1 1 1 1 1 1 1 1 1 1 1 1 1 1 1 1 1 1 1 1 1 1 1 1 1 1 1 0.698355 0.684828 0.680001 0.673457 0.664153 0.652781 0.640447 0.628569 0.61821 0.609467 0.600533 0.592245 0.581338 0.578382 0.579672 1.60621 2.5261 2.47305 2.08339 1.49224 1.07919 1.0112 1.0022 1.00057 1.00016 1.00007 1.00003 1.00001 1 1 1 1 1 1 1 1 1 1 1 1 1 1 1 1 1 1 1 1 1 1 1 1 1 1 1 1 1 1 1 1 1 1 1 1 1 1 1 1 1 1 0.697001 0.683245 0.678084 0.671134 0.661515 0.650029 0.637619 0.62524 0.613638 0.603477 0.594702 0.584014 0.576328 0.57288 0.578948 1.6227 2.53105 2.47149 2.06556 1.46904 1.09275 1.02236 1.00662 1.00222 1.00088 1.00038 1.00016 1.00006 1.00002 1.00001 1 1 1 1 1 1 1 1 1 1 1 1 1 1 1 1 1 1 1 1 1 1 1 1 1 1 1 1 1 1 1 1 1 1 1 1 1 1 1 1 0.69532 0.681288 0.675986 0.668874 0.658679 0.646239 0.632933 0.620002 0.608362 0.597483 0.587707 0.577538 0.568362 0.565254 0.597954 1.67571 2.57901 2.54966 2.18892 1.64063 1.20493 1.06454 1.02481 1.01084 1.00488 1.00219 1.00094 1.00035 1.00013 1.00005 1.00001 1 1 1 1 1 1 1 1 1 1 1 1 1 1 1 1 1 1 1 1 1 1 1 1 1 1 1 1 1 1 1 1 1 1 1 1 1 1 1 0.693437 0.679208 0.673082 0.665252 0.654823 0.642417 0.628931 0.61497 0.602058 0.590869 0.580343 0.570407 0.559558 0.554007 0.625908 1.74784 2.65694 2.64591 2.40979 1.90267 1.44045 1.21722 1.10824 1.05388 1.02645 1.01233 1.00538 1.00204 1.0008 1.00029 1.00009 1.00002 1 1 1 1 1 1 1 1 1 1 1 1 1 1 1 1 1 1 1 1 1 1 1 1 1 1 1 1 1 1 1 1 1 1 1 1 1 1 0.692022 0.677686 0.671846 0.663469 0.651807 0.637974 0.623668 0.609818 0.596078 0.583872 0.573001 0.561447 0.549698 0.539053 0.672601 1.85078 2.57061 2.52952 2.32478 2.0253 1.73149 1.525 1.38345 1.24722 1.13483 1.06733 1.03003 1.01199 1.00485 1.00177 1.00051 1.00013 1.00003 1.00001 1 1 1 1 1 1 1 1 1 1 1 1 1 1 1 1 1 1 1 1 1 1 1 1 1 1 1 1 1 1 1 1 1 1 1 1 0.689547 0.675043 0.668975 0.660965 0.649738 0.636166 0.620273 0.60401 0.589281 0.575724 0.563995 0.551231 0.537776 0.525323 0.766011 1.91995 2.22571 1.90305 1.50307 1.32672 1.30349 1.34712 1.40361 1.42202 1.36967 1.26477 1.14721 1.06907 1.02963 1.0105 1.00309 1.00083 1.00019 1.00004 1.00001 1 1 1 1 1 1 1 1 1 1 1 1 1 1 1 1 1 1 1 1 1 1 1 1 1 1 1 1 1 1 1 1 1 1 1 0.687679 0.672574 0.66572 0.656523 0.644282 0.63027 0.614643 0.59813 0.582711 0.568797 0.555511 0.54166 0.525372 0.508769 0.584189 1.64495 1.68186 1.16235 0.607811 0.308203 0.283157 0.356026 0.479504 0.621569 0.765513 0.901788 1.00251 1.04488 1.03629 1.02177 1.00986 1.0025 1.00056 1.00012 1.00003 1.00001 1 1 1 1 1 1 1 1 1 1 1 1 1 1 1 1 1 1 1 1 1 1 1 1 1 1 1 1 1 1 1 1 1 1 0.685609 0.670624 0.663834 0.654379 0.641532 0.626199 0.60963 0.592398 0.575789 0.560536 0.546698 0.530691 0.513891 0.492069 0.468809 0.679101 0.773925 0.657571 0.41221 0.242377 0.217797 0.190864 0.186855 0.188363 0.18698 0.181101 0.172084 0.157332 0.137251 0.11881 0.106039 0.101412 0.100322 0.100071 0.100015 0.100003 0.100001 0.1 0.1 0.1 0.1 0.1 0.1 0.1 0.1 0.1 0.1 0.1 0.1 0.1 0.1 0.1 0.1 0.1 0.1 0.1 0.1 0.1 0.1 0.1 0.1 0.1 0.1 0.1 0.1 0.1 0.1 0.1 0.1 0.1 0.68341 0.668311 0.661578 0.651789 0.638205 0.621908 0.604347 0.586292 0.569195 0.552919 0.537382 0.520996 0.502246 0.476916 0.454164 0.425846 0.402986 0.377554 0.363134 0.354417 0.298659 0.224177 0.18788 0.188581 0.187305 0.184285 0.17612 0.163903 0.146663 0.126229 0.109002 0.102272 0.100531 0.100114 0.100024 0.100005 0.100001 0.1 0.1 0.1 0.1 0.1 0.1 0.1 0.1 0.1 0.1 0.1 0.1 0.1 0.1 0.1 0.1 0.1 0.1 0.1 0.1 0.1 0.1 0.1 0.1 0.1 0.1 0.1 0.1 0.1 0.1 0.1 0.1 0.1 0.681463 0.665732 0.658374 0.648458 0.634862 0.61807 0.599504 0.580453 0.561876 0.544988 0.527865 0.510321 0.487393 0.470533 0.450959 0.429214 0.407788 0.388012 0.37436 0.364139 0.299968 0.212584 0.190166 0.190201 0.189578 0.186073 0.179687 0.169392 0.154081 0.134109 0.11322 0.103345 0.100755 0.100154 0.100029 0.100005 0.100001 0.1 0.1 0.1 0.1 0.1 0.1 0.1 0.1 0.1 0.1 0.1 0.1 0.1 0.1 0.1 0.1 0.1 0.1 0.1 0.1 0.1 0.1 0.1 0.1 0.1 0.1 0.1 0.1 0.1 0.1 0.1 0.1 0.1 0.679674 0.664131 0.656149 0.645189 0.630671 0.613228 0.594048 0.574465 0.555281 0.536614 0.518893 0.498507 0.478052 0.462768 0.445739 0.427676 0.409604 0.392961 0.380452 0.36405 0.27681 0.20219 0.191976 0.191967 0.191114 0.188072 0.182858 0.173634 0.159103 0.139071 0.116659 0.104032 0.100845 0.100164 0.10003 0.100005 0.100001 0.1 0.1 0.1 0.1 0.1 0.1 0.1 0.1 0.1 0.1 0.1 0.1 0.1 0.1 0.1 0.1 0.1 0.1 0.1 0.1 0.1 0.1 0.1 0.1 0.1 0.1 0.1 0.1 0.1 0.1 0.1 0.1 0.1 0.678208 0.662271 0.654261 0.643122 0.628065 0.609788 0.589566 0.568663 0.548466 0.528584 0.509388 0.4874 0.472373 0.456615 0.44095 0.424859 0.410158 0.396073 0.384167 0.346843 0.258825 0.196532 0.193916 0.193647 0.192894 0.19017 0.18577 0.177566 0.16409 0.143588 0.119543 0.104636 0.100941 0.100177 0.100032 0.100006 0.100001 0.1 0.1 0.1 0.1 0.1 0.1 0.1 0.1 0.1 0.1 0.1 0.1 0.1 0.1 0.1 0.1 0.1 0.1 0.1 0.1 0.1 0.1 0.1 0.1 0.1 0.1 0.1 0.1 0.1 0.1 0.1 0.1 0.1 0.677347 0.660835 0.651638 0.639333 0.623153 0.603905 0.582969 0.562073 0.54146 0.521092 0.498291 0.481303 0.466176 0.450607 0.435579 0.420615 0.406786 0.394102 0.382539 0.333631 0.24725 0.195972 0.195334 0.195212 0.19465 0.192101 0.188384 0.180622 0.167712 0.146776 0.121638 0.105026 0.100986 0.100182 0.100032 0.100006 0.100001 0.1 0.1 0.1 0.1 0.1 0.1 0.1 0.1 0.1 0.1 0.1 0.1 0.1 0.1 0.1 0.1 0.1 0.1 0.1 0.1 0.1 0.1 0.1 0.1 0.1 0.1 0.1 0.1 0.1 0.1 0.1 0.1 0.1 0.676844 0.660633 0.651684 0.639032 0.621824 0.60092 0.577841 0.554608 0.533768 0.511818 0.489866 0.474539 0.459301 0.444012 0.428736 0.414398 0.401755 0.391295 0.38128 0.326543 0.24129 0.196419 0.196546 0.196662 0.196197 0.194079 0.190924 0.183633 0.171086 0.149531 0.123262 0.105304 0.101021 0.100186 0.100033 0.100006 0.100001 0.1 0.1 0.1 0.1 0.1 0.1 0.1 0.1 0.1 0.1 0.1 0.1 0.1 0.1 0.1 0.1 0.1 0.1 0.1 0.1 0.1 0.1 0.1 0.1 0.1 0.1 0.1 0.1 0.1 0.1 0.1 0.1 0.1 0.676313 0.659842 0.650621 0.637803 0.620418 0.599047 0.57489 0.549865 0.525863 0.503928 0.483501 0.468009 0.452266 0.436769 0.422608 0.408099 0.396039 0.386264 0.37746 0.319663 0.236052 0.19711 0.197596 0.19779 0.197766 0.19593 0.193124 0.186 0.173458 0.151324 0.124229 0.105459 0.101039 0.100187 0.100033 0.100006 0.100001 0.1 0.1 0.1 0.1 0.1 0.1 0.1 0.1 0.1 0.1 0.1 0.1 0.1 0.1 0.1 0.1 0.1 0.1 0.1 0.1 0.1 0.1 0.1 0.1 0.1 0.1 0.1 0.1 0.1 0.1 0.1 0.1 0.1 0.676282 0.66 0.650767 0.637701 0.620035 0.598468 0.574124 0.548408 0.522636 0.498337 0.4778 0.459929 0.444772 0.430162 0.416007 0.402305 0.390439 0.380958 0.374553 0.31484 0.233323 0.197591 0.198319 0.19894 0.199111 0.197744 0.195267 0.188334 0.175571 0.15268 0.124852 0.105552 0.101049 0.100188 0.100033 0.100006 0.100001 0.1 0.1 0.1 0.1 0.1 0.1 0.1 0.1 0.1 0.1 0.1 0.1 0.1 0.1 0.1 0.1 0.1 0.1 0.1 0.1 0.1 0.1 0.1 0.1 0.1 0.1 0.1 0.1 0.1 0.1 0.1 0.1 0.1 0.675988 0.659527 0.650306 0.63736 0.619741 0.59809 0.573636 0.547806 0.522042 0.497446 0.474908 0.455366 0.438369 0.42373 0.410402 0.397324 0.386316 0.377393 0.372309 0.311513 0.231548 0.198073 0.199137 0.200043 0.200357 0.199281 0.197033 0.189906 0.176711 0.153387 0.125197 0.105608 0.101054 0.100189 0.100033 0.100006 0.100001 0.1 0.1 0.1 0.1 0.1 0.1 0.1 0.1 0.1 0.1 0.1 0.1 0.1 0.1 0.1 0.1 0.1 0.1 0.1 0.1 0.1 0.1 0.1 0.1 0.1 0.1 0.1 0.1 0.1 0.1 0.1 0.1 0.1 0.67629 0.659965 0.650756 0.63771 0.619992 0.598277 0.573776 0.547835 0.521853 0.497143 0.47444 0.454343 0.436334 0.420566 0.406438 0.393755 0.382396 0.375121 0.370903 0.309897 0.230888 0.198571 0.199901 0.20094 0.201523 0.200635 0.198566 0.191222 0.177661 0.15391 0.125377 0.105616 0.101054 0.100189 0.100033 0.100006 0.100001 0.1 0.1 0.1 0.1 0.1 0.1 0.1 0.1 0.1 0.1 0.1 0.1 0.1 0.1 0.1 0.1 0.1 0.1 0.1 0.1 0.1 0.1 0.1 0.1 0.1 0.1 0.1 0.1 0.1 0.1 0.1 0.1 0.1 0.67625 0.65974 0.650337 0.637223 0.619527 0.597893 0.573515 0.547692 0.521792 0.497011 0.474115 0.453697 0.43551 0.419382 0.40505 0.391622 0.379935 0.374753 0.371471 0.31 0.230788 0.199013 0.200542 0.201704 0.202523 0.201785 0.199647 0.191843 0.177878 0.153926 0.125343 0.105621 0.101055 0.100189 0.100033 0.100006 0.100001 0.1 0.1 0.1 0.1 0.1 0.1 0.1 0.1 0.1 0.1 0.1 0.1 0.1 0.1 0.1 0.1 0.1 0.1 0.1 0.1 0.1 0.1 0.1 0.1 0.1 0.1 0.1 0.1 0.1 0.1 0.1 0.1 0.1 0.67646 0.660081 0.650796 0.637723 0.620011 0.598314 0.573833 0.547888 0.521895 0.497031 0.474103 0.453462 0.434813 0.418041 0.403433 0.390222 0.379908 0.375203 0.372516 0.310524 0.23086 0.19934 0.201079 0.202346 0.203297 0.20249 0.20023 0.192284 0.178281 0.15423 0.125451 0.105617 0.101054 0.100188 0.100033 0.100006 0.100001 0.1 0.1 0.1 0.1 0.1 0.1 0.1 0.1 0.1 0.1 0.1 0.1 0.1 0.1 0.1 0.1 0.1 0.1 0.1 0.1 0.1 0.1 0.1 0.1 0.1 0.1 0.1 0.1 0.1 0.1 0.1 0.1 0.1 0.676542 0.660083 0.650689 0.637545 0.619783 0.598049 0.573543 0.547566 0.521554 0.49667 0.473718 0.453106 0.434539 0.417871 0.403017 0.390523 0.380146 0.37546 0.372921 0.310789 0.23098 0.199604 0.201426 0.202779 0.203743 0.202885 0.200459 0.192322 0.178169 0.154084 0.125347 0.105604 0.101052 0.100188 0.100033 0.100006 0.100001 0.1 0.1 0.1 0.1 0.1 0.1 0.1 0.1 0.1 0.1 0.1 0.1 0.1 0.1 0.1 0.1 0.1 0.1 0.1 0.1 0.1 0.1 0.1 0.1 0.1 0.1 0.1 0.1 0.1 0.1 0.1 0.1 0.1 0.676565 0.660166 0.650847 0.637773 0.620061 0.598353 0.57385 0.547867 0.521847 0.49694 0.473942 0.453211 0.434547 0.417874 0.403597 0.390858 0.380842 0.375126 0.372807 0.31048 0.231032 0.199783 0.201627 0.203028 0.203958 0.203032 0.200557 0.192466 0.178296 0.154124 0.125326 0.105592 0.10105 0.100188 0.100033 0.100006 0.100001 0.1 0.1 0.1 0.1 0.1 0.1 0.1 0.1 0.1 0.1 0.1 0.1 0.1 0.1 0.1 0.1 0.1 0.1 0.1 0.1 0.1 0.1 0.1 0.1 0.1 0.1 0.1 0.1 0.1 0.1 0.1 0.1 0.1
				</DataArray>
				<DataArray Name="Energy" type="Float32" format="ascii">