<?xml version="1.0"?>
<VTKFile type="PolyData">
	<PolyData>
		<Piece NumberOfPoints="1206" NumberOfPolys="1000">
			<Points>
				<DataArray type="Float32" NumberOfComponents="3" format="ascii">
 0 0 0 0.02 0 0 0.04 0 0 0.06 0 0 0.08 0 0 0.1 0 0 0 0.005 0 0.02 0.005 0 0.04 0.005 0 0.06 0.005 0 0.08 0.005 0 0.1 0.005 0 0 0.01 0 0.02 0.01 0 0.04 0.01 0 0.06 0.01 0 0.08 0.01 0 0.1 0.01 0 0 0.015 0 0.02 0.015 0 0.04 0.015 0 0.06 0.015 0 0.08 0.015 0 0.1 0.015 0 0 0.02 0 0.02 0.02 0 0.04 0.02 0 0.06 0.02 0 0.08 0.02 0 0.1 0.02 0 0 0.025 0 0.02 0.025 0 0.04 0.025 0 0.06 0.025 0 0.08 0.025 0 0.1 0.025 0 0 0.03 0 0.02 0.03 0 0.04 0.03 0 0.06 0.03 0 0.08 0.03 0 0.1 0.03 0 0 0.035 0 0.02 0.035 0 0.04 0.035 0 0.06 0.035 0 0.08 0.035 0 0.1 0.035 0 0 0.04 0 0.02 0.04 0 0.04 0.04 0 0.06 0.04 0 0.08 0.04 0 0.1 0.04 0 0 0.045 0 0.02 0.045 0 0.04 0.045 0 0.06 0.045 0 0.08 0.045 0 0.1 0.045 0 0 0.05 0 0.02 0.05 0 0.04 0.05 0 0.06 0.05 0 0.08 0.05 0 0.1 0.05 0 0 0.055 0 0.02 0.055 0 0.04 0.055 0 0.06 0.055 0 0.08 0.055 0 0.1 0.055 0 0 0.06 0 0.02 0.06 0 0.04 0.06 0 0.06 0.06 0 0.08 0.06 0 0.1 0.06 0 0 0.065 0 0.02 0.065 0 0.04 0.065 0 0.06 0.065 0 0.08 0.065 0 0.1 0.065 0 0 0.07 0 0.02 0.07 0 0.04 0.07 0 0.06 0.07 0 0.08 0.07 0 0.1 0.07 0 0 0.075 0 0.02 0.075 0 0.04 0.075 0 0.06 0.075 0 0.08 0.075 0 0.1 0.075 0 0 0.08 0 0.02 0.08 0 0.04 0.08 0 0.06 0.08 0 0.08 0.08 0 0.1 0.08 0 0 0.085 0 0.02 0.085 0 0.04 0.085 0 0.06 0.085 0 0.08 0.085 0 0.1 0.085 0 0 0.09 0 0.02 0.09 0 0.04 0.09 0 0.06 0.09 0 0.08 0.09 0 0.1 0.09 0 0 0.095 0 0.02 0.095 0 0.04 0.095 0 0.06 0.095 0 0.08 0.095 0 0.1 0.095 0 0 0.1 0 0.02 0.1 0 0.04 0.1 0 0.06 0.1 0 0.08 0.1 0 0.1 0.1 0 0 0.105 0 0.02 0.105 0 0.04 0.105 0 0.06 0.105 0 0.08 0.105 0 0.1 0.105 0 0 0.11 0 0.02 0.11 0 0.04 0.11 0 0.06 0.11 0 0.08 0.11 0 0.1 0.11 0 0 0.115 0 0.02 0.115 0 0.04 0.115 0 0.06 0.115 0 0.08 0.115 0 0.1 0.115 0 0 0.12 0 0.02 0.12 0 0.04 0.12 0 0.06 0.12 0 0.08 0.12 0 0.1 0.12 0 0 0.125 0 0.02 0.125 0 0.04 0.125 0 0.06 0.125 0 0.08 0.125 0 0.1 0.125 0 0 0.13 0 0.02 0.13 0 0.04 0.13 0 0.06 0.13 0 0.08 0.13 0 0.1 0.13 0 0 0.135 0 0.02 0.135 0 0.04 0.135 0 0.06 0.135 0 0.08 0.135 0 0.1 0.135 0 0 0.14 0 0.02 0.14 0 0.04 0.14 0 0.06 0.14 0 0.08 0.14 0 0.1 0.14 0 0 0.145 0 0.02 0.145 0 0.04 0.145 0 0.06 0.145 0 0.08 0.145 0 0.1 0.145 0 0 0.15 0 0.02 0.15 0 0.04 0.15 0 0.06 0.15 0 0.08 0.15 0 0.1 0.15 0 0 0.155 0 0.02 0.155 0 0.04 0.155 0 0.06 0.155 0 0.08 0.155 0 0.1 0.155 0 0 0.16 0 0.02 0.16 0 0.04 0.16 0 0.06 0.16 0 0.08 0.16 0 0.1 0.16 0 0 0.165 0 0.02 0.165 0 0.04 0.165 0 0.06 0.165 0 0.08 0.165 0 0.1 0.165 0 0 0.17 0 0.02 0.17 0 0.04 0.17 0 0.06 0.17 0 0.08 0.17 0 0.1 0.17 0 0 0.175 0 0.02 0.175 0 0.04 0.175 0 0.06 0.175 0 0.08 0.175 0 0.1 0.175 0 0 0.18 0 0.02 0.18 0 0.04 0.18 0 0.06 0.18 0 0.08 0.18 0 0.1 0.18 0 0 0.185 0 0.02 0.185 0 0.04 0.185 0 0.06 0.185 0 0.08 0.185 0 0.1 0.185 0 0 0.19 0 0.02 0.19 0 0.04 0.19 0 0.06 0.19 0 0.08 0.19 0 0.1 0.19 0 0 0.195 0 0.02 0.195 0 0.04 0.195 0 0.06 0.195 0 0.08 0.195 0 0.1 0.195 0 0 0.2 0 0.02 0.2 0 0.04 0.2 0 0.06 0.2 0 0.08 0.2 0 0.1 0.2 0 0 0.205 0 0.02 0.205 0 0.04 0.205 0 0.06 0.205 0 0.08 0.205 0 0.1 0.205 0 0 0.21 0 0.02 0.21 0 0.04 0.21 0 0.06 0.21 0 0.08 0.21 0 0.1 0.21 0 0 0.215 0 0.02 0.215 0 0.04 0.215 0 0.06 0.215 0 0.08 0.215 0 0.1 0.215 0 0 0.22 0 0.02 0.22 0 0.04 0.22 0 0.06 0.22 0 0.08 0.22 0 0.1 0.22 0 0 0.225 0 0.02 0.225 0 0.04 0.225 0 0.06 0.225 0 0.08 0.225 0 0.1 0.225 0 0 0.23 0 0.02 0.23 0 0.04 0.23 0 0.06 0.23 0 0.08 0.23 0 0.1 0.23 0 0 0.235 0 0.02 0.235 0 0.04 0.235 0 0.06 0.235 0 0.08 0.235 0 0.1 0.235 0 0 0.24 0 0.02 0.24 0 0.04 0.24 0 0.06 0.24 0 0.08 0.24 0 0.1 0.24 0 0 0.245 0 0.02 0.245 0 0.04 0.245 0 0.06 0.245 0 0.08 0.245 0 0.1 0.245 0 0 0.25 0 0.02 0.25 0 0.04 0.25 0 0.06 0.25 0 0.08 0.25 0 0.1 0.25 0 0 0.255 0 0.02 0.255 0 0.04 0.255 0 0.06 0.255 0 0.08 0.255 0 0.1 0.255 0 0 0.26 0 0.02 0.26 0 0.04 0.26 0 0.06 0.26 0 0.08 0.26 0 0.1 0.26 0 0 0.265 0 0.02 0.265 0 0.04 0.265 0 0.06 0.265 0 0.08 0.265 0 0.1 0.265 0 0 0.27 0 0.02 0.27 0 0.04 0.27 0 0.06 0.27 0 0.08 0.27 0 0.1 0.27 0 0 0.275 0 0.02 0.275 0 0.04 0.275 0 0.06 0.275 0 0.08 0.275 0 0.1 0.275 0 0 0.28 0 0.02 0.28 0 0.04 0.28 0 0.06 0.28 0 0.08 0.28 0 0.1 0.28 0 0 0.285 0 0.02 0.285 0 0.04 0.285 0 0.06 0.285 0 0.08 0.285 0 0.1 0.285 0 0 0.29 0 0.02 0.29 0 0.04 0.29 0 0.06 0.29 0 0.08 0.29 0 0.1 0.29 0 0 0.295 0 0.02 0.295 0 0.04 0.295 0 0.06 0.295 0 0.08 0.295 0 0.1 0.295 0 0 0.3 0 0.02 0.3 0 0.04 0.3 0 0.06 0.3 0 0.08 0.3 0 0.1 0.3 0 0 0.305 0 0.02 0.305 0 0.04 0.305 0 0.06 0.305 0 0.08 0.305 0 0.1 0.305 0 0 0.31 0 0.02 0.31 0 0.04 0.31 0 0.06 0.31 0 0.08 0.31 0 0.1 0.31 0 0 0.315 0 0.02 0.315 0 0.04 0.315 0 0.06 0.315 0 0.08 0.315 0 0.1 0.315 0 0 0.32 0 0.02 0.32 0 0.04 0.32 0 0.06 0.32 0 0.08 0.32 0 0.1 0.32 0 0 0.325 0 0.02 0.325 0 0.04 0.325 0 0.06 0.325 0 0.08 0.325 0 0.1 0.325 0 0 0.33 0 0.02 0.33 0 0.04 0.33 0 0.06 0.33 0 0.08 0.33 0 0.1 0.33 0 0 0.335 0 0.02 0.335 0 0.04 0.335 0 0.06 0.335 0 0.08 0.335 0 0.1 0.335 0 0 0.34 0 0.02 0.34 0 0.04 0.34 0 0.06 0.34 0 0.08 0.34 0 0.1 0.34 0 0 0.345 0 0.02 0.345 0 0.04 0.345 0 0.06 0.345 0 0.08 0.345 0 0.1 0.345 0 0 0.35 0 0.02 0.35 0 0.04 0.35 0 0.06 0.35 0 0.08 0.35 0 0.1 0.35 0 0 0.355 0 0.02 0.355 0 0.04 0.355 0 0.06 0.355 0 0.08 0.355 0 0.1 0.355 0 0 0.36 0 0.02 0.36 0 0.04 0.36 0 0.06 0.36 0 0.08 0.36 0 0.1 0.36 0 0 0.365 0 0.02 0.365 0 0.04 0.365 0 0.06 0.365 0 0.08 0.365 0 0.1 0.365 0 0 0.37 0 0.02 0.37 0 0.04 0.37 0 0.06 0.37 0 0.08 0.37 0 0.1 0.37 0 0 0.375 0 0.02 0.375 0 0.04 0.375 0 0.06 0.375 0 0.08 0.375 0 0.1 0.375 0 0 0.38 0 0.02 0.38 0 0.04 0.38 0 0.06 0.38 0 0.08 0.38 0 0.1 0.38 0 0 0.385 0 0.02 0.385 0 0.04 0.385 0 0.06 0.385 0 0.08 0.385 0 0.1 0.385 0 0 0.39 0 0.02 0.39 0 0.04 0.39 0 0.06 0.39 0 0.08 0.39 0 0.1 0.39 0 0 0.395 0 0.02 0.395 0 0.04 0.395 0 0.06 0.395 0 0.08 0.395 0 0.1 0.395 0 0 0.4 0 0.02 0.4 0 0.04 0.4 0 0.06 0.4 0 0.08 0.4 0 0.1 0.4 0 0 0.405 0 0.02 0.405 0 0.04 0.405 0 0.06 0.405 0 0.08 0.405 0 0.1 0.405 0 0 0.41 0 0.02 0.41 0 0.04 0.41 0 0.06 0.41 0 0.08 0.41 0 0.1 0.41 0 0 0.415 0 0.02 0.415 0 0.04 0.415 0 0.06 0.415 0 0.08 0.415 0 0.1 0.415 0 0 0.42 0 0.02 0.42 0 0.04 0.42 0 0.06 0.42 0 0.08 0.42 0 0.1 0.42 0 0 0.425 0 0.02 0.425 0 0.04 0.425 0 0.06 0.425 0 0.08 0.425 0 0.1 0.425 0 0 0.43 0 0.02 0.43 0 0.04 0.43 0 0.06 0.43 0 0.08 0.43 0 0.1 0.43 0 0 0.435 0 0.02 0.435 0 0.04 0.435 0 0.06 0.435 0 0.08 0.435 0 0.1 0.435 0 0 0.44 0 0.02 0.44 0 0.04 0.44 0 0.06 0.44 0 0.08 0.44 0 0.1 0.44 0 0 0.445 0 0.02 0.445 0 0.04 0.445 0 0.06 0.445 0 0.08 0.445 0 0.1 0.445 0 0 0.45 0 0.02 0.45 0 0.04 0.45 0 0.06 0.45 0 0.08 0.45 0 0.1 0.45 0 0 0.455 0 0.02 0.455 0 0.04 0.455 0 0.06 0.455 0 0.08 0.455 0 0.1 0.455 0 0 0.46 0 0.02 0.46 0 0.04 0.46 0 0.06 0.46 0 0.08 0.46 0 0.1 0.46 0 0 0.465 0 0.02 0.465 0 0.04 0.465 0 0.06 0.465 0 0.08 0.465 0 0.1 0.465 0 0 0.47 0 0.02 0.47 0 0.04 0.47 0 0.06 0.47 0 0.08 0.47 0 0.1 0.47 0 0 0.475 0 0.02 0.475 0 0.04 0.475 0 0.06 0.475 0 0.08 0.475 0 0.1 0.475 0 0 0.48 0 0.02 0.48 0 0.04 0.48 0 0.06 0.48 0 0.08 0.48 0 0.1 0.48 0 0 0.485 0 0.02 0.485 0 0.04 0.485 0 0.06 0.485 0 0.08 0.485 0 0.1 0.485 0 0 0.49 0 0.02 0.49 0 0.04 0.49 0 0.06 0.49 0 0.08 0.49 0 0.1 0.49 0 0 0.495 0 0.02 0.495 0 0.04 0.495 0 0.06 0.495 0 0.08 0.495 0 0.1 0.495 0 0 0.5 0 0.02 0.5 0 0.04 0.5 0 0.06 0.5 0 0.08 0.5 0 0.1 0.5 0 0 0.505 0 0.02 0.505 0 0.04 0.505 0 0.06 0.505 0 0.08 0.505 0 0.1 0.505 0 0 0.51 0 0.02 0.51 0 0.04 0.51 0 0.06 0.51 0 0.08 0.51 0 0.1 0.51 0 0 0.515 0 0.02 0.515 0 0.04 0.515 0 0.06 0.515 0 0.08 0.515 0 0.1 0.515 0 0 0.52 0 0.02 0.52 0 0.04 0.52 0 0.06 0.52 0 0.08 0.52 0 0.1 0.52 0 0 0.525 0 0.02 0.525 0 0.04 0.525 0 0.06 0.525 0 0.08 0.525 0 0.1 0.525 0 0 0.53 0 0.02 0.53 0 0.04 0.53 0 0.06 0.53 0 0.08 0.53 0 0.1 0.53 0 0 0.535 0 0.02 0.535 0 0.04 0.535 0 0.06 0.535 0 0.08 0.535 0 0.1 0.535 0 0 0.54 0 0.02 0.54 0 0.04 0.54 0 0.06 0.54 0 0.08 0.54 0 0.1 0.54 0 0 0.545 0 0.02 0.545 0 0.04 0.545 0 0.06 0.545 0 0.08 0.545 0 0.1 0.545 0 0 0.55 0 0.02 0.55 0 0.04 0.55 0 0.06 0.55 0 0.08 0.55 0 0.1 0.55 0 0 0.555 0 0.02 0.555 0 0.04 0.555 0 0.06 0.555 0 0.08 0.555 0 0.1 0.555 0 0 0.56 0 0.02 0.56 0 0.04 0.56 0 0.06 0.56 0 0.08 0.56 0 0.1 0.56 0 0 0.565 0 0.02 0.565 0 0.04 0.565 0 0.06 0.565 0 0.08 0.565 0 0.1 0.565 0 0 0.57 0 0.02 0.57 0 0.04 0.57 0 0.06 0.57 0 0.08 0.57 0 0.1 0.57 0 0 0.575 0 0.02 0.575 0 0.04 0.575 0 0.06 0.575 0 0.08 0.575 0 0.1 0.575 0 0 0.58 0 0.02 0.58 0 0.04 0.58 0 0.06 0.58 0 0.08 0.58 0 0.1 0.58 0 0 0.585 0 0.02 0.585 0 0.04 0.585 0 0.06 0.585 0 0.08 0.585 0 0.1 0.585 0 0 0.59 0 0.02 0.59 0 0.04 0.59 0 0.06 0.59 0 0.08 0.59 0 0.1 0.59 0 0 0.595 0 0.02 0.595 0 0.04 0.595 0 0.06 0.595 0 0.08 0.595 0 0.1 0.595 0 0 0.6 0 0.02 0.6 0 0.04 0.6 0 0.06 0.6 0 0.08 0.6 0 0.1 0.6 0 0 0.605 0 0.02 0.605 0 0.04 0.605 0 0.06 0.605 0 0.08 0.605 0 0.1 0.605 0 0 0.61 0 0.02 0.61 0 0.04 0.61 0 0.06 0.61 0 0.08 0.61 0 0.1 0.61 0 0 0.615 0 0.02 0.615 0 0.04 0.615 0 0.06 0.615 0 0.08 0.615 0 0.1 0.615 0 0 0.62 0 0.02 0.62 0 0.04 0.62 0 0.06 0.62 0 0.08 0.62 0 0.1 0.62 0 0 0.625 0 0.02 0.625 0 0.04 0.625 0 0.06 0.625 0 0.08 0.625 0 0.1 0.625 0 0 0.63 0 0.02 0.63 0 0.04 0.63 0 0.06 0.63 0 0.08 0.63 0 0.1 0.63 0 0 0.635 0 0.02 0.635 0 0.04 0.635 0 0.06 0.635 0 0.08 0.635 0 0.1 0.635 0 0 0.64 0 0.02 0.64 0 0.04 0.64 0 0.06 0.64 0 0.08 0.64 0 0.1 0.64 0 0 0.645 0 0.02 0.645 0 0.04 0.645 0 0.06 0.645 0 0.08 0.645 0 0.1 0.645 0 0 0.65 0 0.02 0.65 0 0.04 0.65 0 0.06 0.65 0 0.08 0.65 0 0.1 0.65 0 0 0.655 0 0.02 0.655 0 0.04 0.655 0 0.06 0.655 0 0.08 0.655 0 0.1 0.655 0 0 0.66 0 0.02 0.66 0 0.04 0.66 0 0.06 0.66 0 0.08 0.66 0 0.1 0.66 0 0 0.665 0 0.02 0.665 0 0.04 0.665 0 0.06 0.665 0 0.08 0.665 0 0.1 0.665 0 0 0.67 0 0.02 0.67 0 0.04 0.67 0 0.06 0.67 0 0.08 0.67 0 0.1 0.67 0 0 0.675 0 0.02 0.675 0 0.04 0.675 0 0.06 0.675 0 0.08 0.675 0 0.1 0.675 0 0 0.68 0 0.02 0.68 0 0.04 0.68 0 0.06 0.68 0 0.08 0.68 0 0.1 0.68 0 0 0.685 0 0.02 0.685 0 0.04 0.685 0 0.06 0.685 0 0.08 0.685 0 0.1 0.685 0 0 0.69 0 0.02 0.69 0 0.04 0.69 0 0.06 0.69 0 0.08 0.69 0 0.1 
[...]
			<PointData Scalars="VitesseX">
				<DataArray Name="VitesseX" type="Float32" format="ascii">
 0 1.44193e-14 1.52671e-14 3.98979e-14 1.77481e-14 0 0 1.0636e-14 1.91984e-14 3.53521e-14 2.20192e-14 0 0 4.98466e-15 2.60193e-14 2.54268e-14 3.1365e-14 0 0 1.15915e-14 1.26482e-14 3.90428e-14 2.24981e-14 0 0 8.84543e-15 1.68885e-14 3.51873e-14 2.51798e-14 0 0 -6.12834e-15 3.97977e-14 1.39138e-14 3.96844e-14 0 0 -8.89987e-15 3.538e-14 2.50778e-14 3.22341e-14 0 0 -6.86579e-15 2.59329e-14 3.34837e-14 2.32508e-14 0 0 -8.28262e-15 1.75182e-14 3.73719e-14 2.1656e-14 0 0 -1.27927e-14 1.49709e-14 4.04916e-14 1.72677e-14 0 0 6.67471e-15 -1.94975e-14 7.11951e-14 -9.3593e-16 0 0 5.51808e-15 -7.99013e-15 5.94987e-14 -8.06001e-17 0 0 2.97949e-14 -2.61178e-14 7.36409e-14 -1.30493e-14 0 0 2.5551e-14 -4.12344e-15 4.15775e-14 2.18746e-14 0 0 -3.35448e-16 4.61819e-14 -7.57128e-15 6.08052e-14 0 0 3.58375e-14 -7.01625e-15 4.94809e-14 3.6689e-14 0 0 3.05158e-14 1.95127e-15 5.18937e-14 3.98878e-14 0 0 2.14583e-14 2.46238e-14 5.25257e-14 2.5284e-14 0 0 2.08212e-14 5.10736e-14 3.09925e-14 3.24614e-14 0 0 -9.0183e-15 1.12035e-13 -5.50075e-15 4.49385e-14 0 0 -2.95624e-15 1.06662e-13 4.63725e-14 -1.28914e-14 0 0 4.2966e-14 2.04565e-14 1.31052e-13 -6.18275e-14 0 0 -6.23881e-15 6.72797e-14 7.44012e-14 -2.20284e-14 0 0 -4.83692e-14 1.37673e-13 -1.09219e-14 2.47759e-14 0 0 2.2627e-14 3.60194e-14 7.66526e-14 -2.70634e-14 0 0 5.17087e-14 -1.67524e-14 1.20833e-13 -4.8999e-14 0 0 -1.53402e-14 9.84848e-14 -6.37232e-15 2.53981e-14 0 0 1.2027e-14 4.95905e-14 4.29154e-14 -7.04487e-15 0 0 3.68991e-14 -1.18328e-14 1.24154e-13 -5.80918e-14 0 0 -1.85802e-14 9.23745e-14 2.25596e-14 1.28677e-14 0 0 1.66255e-14 7.08672e-14 -2.01849e-14 8.07899e-14 0 0 3.45141e-14 3.56805e-14 2.40481e-14 4.31159e-14 0 0 -1.16902e-14 7.80483e-14 6.9321e-14 -2.20598e-14 0 0 -5.55466e-14 1.65294e-13 1.30447e-14 2.82277e-14 0 0 3.07252e-14 5.78241e-14 1.20002e-13 4.55229e-15 0 0 4.16495e-14 3.43698e-14 1.78019e-13 -3.01038e-14 0 0 2.10745e-14 6.28463e-14 1.77989e-13 -4.03529e-14 0 0 2.54239e-14 6.68195e-14 1.27421e-13 3.40731e-14 0 0 1.81885e-14 7.60056e-14 5.75227e-14 1.07129e-13 0 0 -1.60222e-14 8.95562e-14 3.22232e-14 1.38064e-13 0 0 -4.9178e-14 7.99685e-14 5.69254e-14 1.48114e-13 0 0 -6.66456e-14 3.98869e-14 1.32879e-13 8.27818e-14 0 0 -1.30997e-13 1.25541e-13 6.29359e-14 8.88229e-14 0 0 -1.13567e-13 9.77691e-14 9.50143e-14 3.29963e-14 0 0 -5.62116e-14 -5.82243e-15 1.85836e-13 -2.50174e-14 0 0 -6.49844e-14 2.52422e-14 1.56924e-13 -1.94055e-14 0 0 -9.9008e-14 9.24861e-14 1.67249e-13 -9.07095e-14 0 0 -8.573e-14 6.96675e-14 2.37385e-13 -1.68503e-13 0 0 -9.43567e-14 1.08023e-13 1.72388e-13 -1.08124e-13 0 0 -1.69603e-13 2.49618e-13 2.29576e-14 3.63326e-15 0 0 -1.33052e-13 1.96522e-13 1.13481e-13 -4.97682e-14 0 0 -5.55578e-14 8.931e-14 2.17182e-13 -5.49944e-14 0 0 -2.37599e-13 3.88704e-13 -7.03588e-14 1.50259e-13 0 0 -1.92933e-13 3.87909e-13 -1.1517e-13 2.1179e-13 0 0 3.23927e-14 3.79214e-14 1.8213e-13 8.5283e-14 0 0 -5.76335e-14 1.45025e-13 1.2005e-13 1.18259e-13 0 0 -6.01105e-14 1.21814e-13 2.01539e-13 6.72749e-14 0 0 1.8967e-14 -9.26013e-15 4.38999e-13 -1.42706e-13 0 0 -1.19008e-13 2.40097e-13 2.55295e-13 -1.32972e-13 0 0 -1.2451e-13 2.59809e-13 1.71899e-13 -7.42378e-14 0 0 -3.38052e-14 1.40477e-13 2.04208e-13 -5.8145e-15 0 0 4.44748e-14 6.6454e-14 2.00111e-13 1.08355e-13 0 0 2.78274e-14 7.50684e-14 2.10206e-13 2.03158e-13 0 0 -9.81504e-14 1.98116e-13 2.11518e-13 2.17242e-13 0 0 -1.61894e-13 2.75136e-13 2.22515e-13 1.83427e-13 0 0 -1.03486e-13 2.4776e-13 2.19441e-13 2.13315e-13 0 0 7.83029e-14 1.06179e-13 2.44602e-13 2.21394e-13 0 0 3.98007e-14 1.50216e-13 2.07653e-13 1.62871e-13 0 0 -5.09917e-14 9.5675e-14 3.33251e-13 6.50994e-14 0 0 -1.12855e-13 7.71989e-14 4.2459e-13 4.78535e-14 0 0 -2.48882e-13 3.17002e-13 2.67554e-13 1.51749e-13 0 0 -2.44782e-13 2.68598e-13 3.73876e-13 1.11688e-13 0 0 -8.70138e-14 -2.85583e-14 6.42021e-13 -6.32823e-14 0 0 9.41904e-14 -2.17925e-13 6.4393e-13 -6.44735e-14 0 0 -7.88312e-14 1.12567e-13 2.47835e-13 1.27249e-13 0 0 -3.62388e-13 5.50819e-13 -6.5047e-15 1.39121e-13 0 0 -1.73626e-13 2.5996e-13 3.50376e-13 -4.56902e-14 0 0 -2.95957e-14 3.0619e-15 4.83127e-13 5.45064e-14 0 0 -1.89164e-13 2.21648e-13 3.91568e-13 9.5925e-14 0 0 -3.09965e-13 5.95495e-13 1.61143e-13 9.25266e-14 0 0 -3.02556e-14 3.95649e-13 2.33117e-13 -1.51677e-14 0 0 2.20403e-13 4.95501e-14 5.61231e-13 -3.02143e-13 0 0 1.04904e-13 3.24237e-13 2.37415e-13 9.71146e-15 0 0 1.52703e-13 4.54348e-13 -2.82911e-13 5.84355e-13 0 0 4.94839e-13 3.86692e-14 7.86498e-14 3.5961e-13 0 0 5.13204e-13 -3.36248e-13 8.19738e-13 -3.41176e-13 0 0 1.83161e-13 -1.24747e-13 7.99104e-13 -4.19225e-13 0 0 -2.28285e-13 4.0634e-13 4.75312e-13 -3.13454e-13 0 0 -2.46546e-13 6.18146e-13 8.78893e-14 -6.03123e-14 0 0 -4.6438e-14 5.30245e-13 -1.03033e-13 1.70339e-13 0 0 2.32718e-13 3.35047e-13 -8.58839e-14 3.66893e-13 0 0 4.23104e-13 1.67089e-13 -1.01863e-13 5.67799e-13 0 0 5.28563e-13 5.96077e-14 -6.84351e-14 6.24261e-13 0 0 5.32994e-13 6.77068e-14 -2.6083e-14 5.96835e-13 0 0 5.16966e-13 1.11758e-13 1.08259e-14 5.37272e-13 0 0 4.67175e-13 1.36739e-13 1.19387e-13 3.61129e-13 0 0 3.52623e-13 1.90344e-13 2.76131e-13 1.30519e-13 0 0 2.49648e-13 2.9857e-13 3.60207e-13 -2.65987e-14 0 0 1.89385e-13 3.75607e-13 3.80542e-13 -5.63034e-14 0 0 1.67776e-13 4.26287e-13 3.7777e-13 -4.4079e-14 0 0 1.29054e-13 4.99806e-13 3.17155e-13 1.94688e-14 0 0 9.88623e-14 5.84292e-13 2.71646e-13 8.73576e-14 0 0 1.07566e-13 6.44292e-13 2.75137e-13 8.53728e-14 0 0 1.05833e-13 6.7751e-13 3.05257e-13 1.92222e-14 0 0 9.71877e-14 6.60947e-13 5.19996e-13 -2.44274e-13 0 0 6.27293e-14 5.84077e-13 7.11504e-13 -4.85867e-13 0 0 5.19239e-14 5.15728e-13 5.93301e-13 -4.04704e-13 0 0 9.83642e-14 4.64947e-13 3.30075e-13 -1.73258e-13 0 0 1.69943e-13 4.31575e-13 2.33593e-13 -5.7428e-14 0 0 1.85423e-13 3.86606e-13 2.30644e-13 -4.08866e-14 0 0 1.75379e-13 3.12857e-13 2.5875e-13 -3.19427e-14 0 0 1.65488e-13 3.03756e-13 2.9385e-13 -1.16253e-14 0 0 1.62055e-13 3.00366e-13 3.12243e-13 6.64913e-14 0 0 1.47183e-13 3.17456e-13 2.98107e-13 1.21081e-13 0 0 9.93781e-14 4.10634e-13 1.8275e-13 2.19878e-13 0 0 2.80563e-14 5.60953e-13 6.15279e-14 2.43194e-13 0 0 3.2871e-15 6.1549e-13 6.64917e-14 1.94574e-13 0 0 2.2321e-14 6.12593e-13 7.75106e-14 1.50504e-13 0 0 1.10708e-13 5.18798e-13 1.72419e-13 1.00009e-13 0 0 1.66697e-13 3.06026e-13 2.83511e-13 9.3203e-14 0 0 2.03244e-13 1.20242e-13 3.39545e-13 1.43966e-13 0 0 2.21445e-13 -1.60956e-14 3.68812e-13 2.55675e-13 0 0 1.8618e-13 -1.17405e-14 3.52339e-13 3.251e-13 0 0 1.08743e-13 5.74727e-14 2.63246e-13 3.08518e-13 0 0 6.98453e-14 2.1266e-13 1.72853e-13 2.90393e-13 0 0 7.43333e-14 2.53478e-13 2.05765e-13 2.31812e-13 0 0 9.71979e-14 2.2641e-13 2.81487e-13 1.26207e-13 0 0 1.26526e-13 2.15529e-13 2.68864e-13 1.12029e-13 0 0 1.37276e-13 2.39056e-13 2.34663e-13 1.44826e-13 0 0 1.10602e-13 3.43318e-13 1.60652e-13 1.4641e-13 0 0 1.15609e-13 3.36918e-13 1.48736e-13 1.57052e-13 0 0 1.40389e-13 2.77387e-13 1.72454e-13 1.78351e-13 0 0 1.34118e-13 2.51377e-13 2.04026e-13 1.99286e-13 0 0 1.03582e-13 2.33331e-13 2.51131e-13 2.3049e-13 0 0 8.75224e-14 2.51161e-13 2.52586e-13 2.87817e-13 0 0 9.75271e-14 2.56967e-13 2.7895e-13 2.7921e-13 0 0 1.08079e-13 2.97092e-13 2.7542e-13 1.94801e-13 0 0 1.28241e-13 3.3398e-13 3.25185e-13 4.18203e-14 0 0 1.37102e-13 3.60897e-13 3.76769e-13 -9.22682e-15 0 0 1.62427e-13 4.01794e-13 3.5636e-13 2.20694e-14 0 0 2.14011e-13 3.53914e-13 4.30795e-13 2.00005e-14 0 0 1.73806e-13 4.16551e-13 3.8453e-13 1.04928e-13 0 0 1.50017e-13 4.32016e-13 3.26247e-13 2.0342e-13 0 0 1.62993e-13 4.16272e-13 3.0391e-13 2.41954e-13 0 0 1.68626e-13 4.01746e-13 3.13703e-13 1.7928e-13 0 0 2.15096e-13 2.8457e-13 4.1631e-13 1.58364e-13 0 0 1.0513e-13 4.31398e-13 2.78718e-13 2.23935e-13 0 0 9.5016e-14 4.17437e-13 3.27277e-13 1.31989e-13 0 0 1.66631e-13 2.89223e-13 4.9599e-13 3.85881e-14 0 0 1.44888e-13 3.44145e-13 4.31806e-13 1.21595e-13 0 0 1.9564e-13 2.91956e-13 4.84477e-13 1.45504e-13 0 0 1.2923e-13 4.3022e-13 4.14846e-13 2.27449e-13 0 0 1.46178e-13 4.8074e-13 3.68148e-13 3.30779e-13 0 0 1.78673e-13 4.97776e-13 4.23292e-13 2.94708e-13 0 0 2.2596e-13 4.6439e-13 5.78145e-13 1.87498e-13 0 0 2.73613e-13 4.78326e-13 6.08342e-13 3.06997e-13 0 0 3.03987e-13 5.99158e-13 4.99343e-13 4.24579e-13 0 0 4.15666e-13 6.34185e-13 4.03862e-13 4.59265e-13 0 0 4.76496e-13 6.71386e-13 4.21944e-13 3.42581e-13 0 0 6.39397e-13 4.67984e-13 8.05394e-13 -4.93601e-14 0 0 6.01981e-13 6.61274e-13 6.23525e-13 1.47346e-13 0 0 3.55428e-13 1.12996e-12 1.54668e-13 4.49283e-13 0 0 1.82796e-13 1.38765e-12 -2.09335e-14 4.36201e-13 0 0 3.47336e-13 1.11052e-12 3.93932e-13 9.84273e-14 0 0 6.65344e-13 6.56404e-13 7.94459e-13 -1.93545e-13 0 0 6.31993e-13 8.00102e-13 4.17825e-13 1.58326e-13 0 0 5.45209e-13 9.00002e-13 2.90589e-13 3.08303e-13 0 0 5.08319e-13 8.64481e-13 4.16167e-13 1.71251e-13 0 0 3.76376e-13 1.01893e-12 2.78258e-13 2.70684e-13 0 0 4.05541e-13 9.32117e-13 3.42442e-13 2.72572e-13 0 0 7.36616e-13 4.12834e-13 7.5631e-13 1.19984e-13 0 0 8.02299e-13 2.96337e-13 8.45908e-13 1.08464e-13 0 0 4.67883e-13 7.50473e-13 4.61699e-13 3.5476e-13 0 0 3.9875e-13 8.12342e-13 4.59673e-13 3.47332e-13 0 0 6.09944e-13 5.01391e-13 7.92142e-13 2.12952e-13 0 0 5.24269e-13 6.89476e-13 6.12695e-13 3.64078e-13 0 0 3.43321e-13 9.01964e-13 5.93286e-13 2.10834e-13 0 0 4.21095e-13 7.45575e-13 7.85475e-13 3.90802e-15 0 0 3.36195e-13 8.12819e-13 7.0596e-13 -2.15361e-14 0 0 2.57864e-13 9.12918e-13 5.01025e-13 8.38693e-14 0 0 3.29678e-13 8.65855e-13 4.88293e-13 1.33638e-13 0 0 3.33329e-13 8.36032e-13 6.23767e-13 1.34059e-13 0 0 4.66297e-13 6.78042e-13 6.48789e-13 3.04695e-13 0 0 5.08251e-13 7.14943e-13 4.14662e-13 5.75234e-13 0 0 6.75881e-13 5.29621e-13 4.20717e-13 5.82253e-13 0 0 5.97859e-13 5.21679e-13 4.49876e-13 4.74607e-13 0 0 4.46866e-13 5.27479e-13 6.02877e-13 2.71769e-13 0 0 5.62513e-13 2.77954e-13 8.69173e-13 2.19748e-13 0 0 1.88739e-13 8.06862e-13 5.00595e-13 4.61372e-13 0 0 9.61404e-15 9.85244e-13 6.46814e-13 2.07865e-13 0 0 2.3134e-13 6.3461e-13 1.16604e-12 -2.03431e-13 0 0 1.1811e-13 9.75123e-13 6.16917e-13 2.31077e-13 0 0 1.04255e-13 1.07126e-12 2.84319e-13 6.51815e-13 0 0 6.56011e-14 1.02159e-12 4.05847e-13 5.82718e-13 0 0 1.36525e-13 8.195e-13 5.76132e-13 5.31868e-13 0 0 3.25389e-13 4.16636e-13 9.523e-13 3.58098e-13 0 0 1.28286e-13 5.72926e-13 1.05668e-12 9.28286e-14 0 0 -1.43112e-13 1.02332e-12 7.30658e-13 1.80518e-13 0 0 3.38046e-14 8.46358e-13 6.86304e-13 4.12386e-13 0 0 5.4923e-13 -2.29749e-14 1.56977e-12 -6.44851e-14 0 0 7.2064e-13 -3.33078e-13 2.04705e-12 -4.68401e-13 0
				</DataArray>
				<DataArray Name="VitesseY" type="Float32" format="ascii">