<?xml version="1.0"?>
<VTKFile type="PolyData">
	<PolyData>
		<Piece NumberOfPoints="1206" NumberOfPolys="1000">
			<Points>
				<DataArray type="Float32" NumberOfComponents="3" format="ascii">
 0 0 0 0.02 0 0 0.04 0 0 0.06 0 0 0.08 0 0 0.1 0 0 0 0.005 0 0.02 0.005 0 0.04 0.005 0 0.06 0.005 0 0.08 0.005 0 0.1 0.005 0 0 0.01 0 0.02 0.01 0 0.04 0.01 0 0.06 0.01 0 0.08 0.01 0 0.1 0.01 0 0 0.015 0 0.02 0.015 0 0.04 0.015 0 0.06 0.015 0 0.08 0.015 0 0.1 0.015 0 0 0.02 0 0.02 0.02 0 0.04 0.02 0 0.06 0.02 0 0.08 0.02 0 0.1 0.02 0 0 0.025 0 0.02 0.025 0 0.04 0.025 0 0.06 0.025 0 0.08 0.025 0 0.1 0.025 0 0 0.03 0 0.02 0.03 0 0.04 0.03 0 0.06 0.03 0 0.08 0.03 0 0.1 0.03 0 0 0.035 0 0.02 0.035 0 0.04 0.035 0 0.06 0.035 0 0.08 0.035 0 0.1 0.035 0 0 0.04 0 0.02 0.04 0 0.04 0.04 0 0.06 0.04 0 0.08 0.04 0 0.1 0.04 0 0 0.045 0 0.02 0.045 0 0.04 0.045 0 0.06 0.045 0 0.08 0.045 0 0.1 0.045 0 0 0.05 0 0.02 0.05 0 0.04 0.05 0 0.06 0.05 0 0.08 0.05 0 0.1 0.05 0 0 0.055 0 0.02 0.055 0 0.04 0.055 0 0.06 0.055 0 0.08 0.055 0 0.1 0.055 0 0 0.06 0 0.02 0.06 0 0.04 0.06 0 0.06 0.06 0 0.08 0.06 0 0.1 0.06 0 0 0.065 0 0.02 0.065 0 0.04 0.065 0 0.06 0.065 0 0.08 0.065 0 0.1 0.065 0 0 0.07 0 0.02 0.07 0 0.04 0.07 0 0.06 0.07 0 0.08 0.07 0 0.1 0.07 0 0 0.075 0 0.02 0.075 0 0.04 0.075 0 0.06 0.075 0 0.08 0.075 0 0.1 0.075 0 0 0.08 0 0.02 0.08 0 0.04 0.08 0 0.06 0.08 0 0.08 0.08 0 0.1 0.08 0 0 0.085 0 0.02 0.085 0 0.04 0.085 0 0.06 0.085 0 0.08 0.085 0 0.1 0.085 0 0 0.09 0 0.02 0.09 0 0.04 0.09 0 0.06 0.09 0 0.08 0.09 0 0.1 0.09 0 0 0.095 0 0.02 0.095 0 0.04 0.095 0 0.06 0.095 0 0.08 0.095 0 0.1 0.095 0 0 0.1 0 0.02 0.1 0 0.04 0.1 0 0.06 0.1 0 0.08 0.1 0 0.1 0.1 0 0 0.105 0 0.02 0.105 0 0.04 0.105 0 0.06 0.105 0 0.08 0.105 0 0.1 0.105 0 0 0.11 0 0.02 0.11 0 0.04 0.11 0 0.06 0.11 0 0.08 0.11 0 0.1 0.11 0 0 0.115 0 0.02 0.115 0 0.04 0.115 0 0.06 0.115 0 0.08 0.115 0 0.1 0.115 0 0 0.12 0 0.02 0.12 0 0.04 0.12 0 0.06 0.12 0 0.08 0.12 0 0.1 0.12 0 0 0.125 0 0.02 0.125 0 0.04 0.125 0 0.06 0.125 0 0.08 0.125 0 0.1 0.125 0 0 0.13 0 0.02 0.13 0 0.04 0.13 0 0.06 0.13 0 0.08 0.13 0 0.1 0.13 0 0 0.135 0 0.02 0.135 0 0.04 0.135 0 0.06 0.135 0 0.08 0.135 0 0.1 0.135 0 0 0.14 0 0.02 0.14 0 0.04 0.14 0 0.06 0.14 0 0.08 0.14 0 0.1 0.14 0 0 0.145 0 0.02 0.145 0 0.04 0.145 0 0.06 0.145 0 0.08 0.145 0 0.1 0.145 0 0 0.15 0 0.02 0.15 0 0.04 0.15 0 0.06 0.15 0 0.08 0.15 0 0.1 0.15 0 0 0.155 0 0.02 0.155 0 0.04 0.155 0 0.06 0.155 0 0.08 0.155 0 0.1 0.155 0 0 0.16 0 0.02 0.16 0 0.04 0.16 0 0.06 0.16 0 0.08 0.16 0 0.1 0.16 0 0 0.165 0 0.02 0.165 0 0.04 0.165 0 0.06 0.165 0 0.08 0.165 0 0.1 0.165 0 0 0.17 0 0.02 0.17 0 0.04 0.17 0 0.06 0.17 0 0.08 0.17 0 0.1 0.17 0 0 0.175 0 0.02 0.175 0 0.04 0.175 0 0.06 0.175 0 0.08 0.175 0 0.1 0.175 0 0 0.18 0 0.02 0.18 0 0.04 0.18 0 0.06 0.18 0 0.08 0.18 0 0.1 0.18 0 0 0.185 0 0.02 0.185 0 0.04 0.185 0 0.06 0.185 0 0.08 0.185 0 0.1 0.185 0 0 0.19 0 0.02 0.19 0 0.04 0.19 0 0.06 0.19 0 0.08 0.19 0 0.1 0.19 0 0 0.195 0 0.02 0.195 0 0.04 0.195 0 0.06 0.195 0 0.08 0.195 0 0.1 0.195 0 0 0.2 0 0.02 0.2 0 0.04 0.2 0 0.06 0.2 0 0.08 0.2 0 0.1 0.2 0 0 0.205 0 0.02 0.205 0 0.04 0.205 0 0.06 0.205 0 0.08 0.205 0 0.1 0.205 0 0 0.21 0 0.02 0.21 0 0.04 0.21 0 0.06 0.21 0 0.08 0.21 0 0.1 0.21 0 0 0.215 0 0.02 0.215 0 0.04 0.215 0 0.06 0.215 0 0.08 0.215 0 0.1 0.215 0 0 0.22 0 0.02 0.22 0 0.04 0.22 0 0.06 0.22 0 0.08 0.22 0 0.1 0.22 0 0 0.225 0 0.02 0.225 0 0.04 0.225 0 0.06 0.225 0 0.08 0.225 0 0.1 0.225 0 0 0.23 0 0.02 0.23 0 0.04 0.23 0 0.06 0.23 0 0.08 0.23 0 0.1 0.23 0 0 0.235 0 0.02 0.235 0 0.04 0.235 0 0.06 0.235 0 0.08 0.235 0 0.1 0.235 0 0 0.24 0 0.02 0.24 0 0.04 0.24 0 0.06 0.24 0 0.08 0.24 0 0.1 0.24 0 0 0.245 0 0.02 0.245 0 0.04 0.245 0 0.06 0.245 0 0.08 0.245 0 0.1 0.245 0 0 0.25 0 0.02 0.25 0 0.04 0.25 0 0.06 0.25 0 0.08 0.25 0 0.1 0.25 0 0 0.255 0 0.02 0.255 0 0.04 0.255 0 0.06 0.255 0 0.08 0.255 0 0.1 0.255 0 0 0.26 0 0.02 0.26 0 0.04 0.26 0 0.06 0.26 0 0.08 0.26 0 0.1 0.26 0 0 0.265 0 0.02 0.265 0 0.04 0.265 0 0.06 0.265 0 0.08 0.265 0 0.1 0.265 0 0 0.27 0 0.02 0.27 0 0.04 0.27 0 0.06 0.27 0 0.08 0.27 0 0.1 0.27 0 0 0.275 0 0.02 0.275 0 0.04 0.275 0 0.06 0.275 0 0.08 0.275 0 0.1 0.275 0 0 0.28 0 0.02 0.28 0 0.04 0.28 0 0.06 0.28 0 0.08 0.28 0 0.1 0.28 0 0 0.285 0 0.02 0.285 0 0.04 0.285 0 0.06 0.285 0 0.08 0.285 0 0.1 0.285 0 0 0.29 0 0.02 0.29 0 0.04 0.29 0 0.06 0.29 0 0.08 0.29 0 0.1 0.29 0 0 0.295 0 0.02 0.295 0 0.04 0.295 0 0.06 0.295 0 0.08 0.295 0 0.1 0.295 0 0 0.3 0 0.02 0.3 0 0.04 0.3 0 0.06 0.3 0 0.08 0.3 0 0.1 0.3 0 0 0.305 0 0.02 0.305 0 0.04 0.305 0 0.06 0.305 0 0.08 0.305 0 0.1 0.305 0 0 0.31 0 0.02 0.31 0 0.04 0.31 0 0.06 0.31 0 0.08 0.31 0 0.1 0.31 0 0 0.315 0 0.02 0.315 0 0.04 0.315 0 0.06 0.315 0 0.08 0.315 0 0.1 0.315 0 0 0.32 0 0.02 0.32 0 0.04 0.32 0 0.06 0.32 0 0.08 0.32 0 0.1 0.32 0 0 0.325 0 0.02 0.325 0 0.04 0.325 0 0.06 0.325 0 0.08 0.325 0 0.1 0.325 0 0 0.33 0 0.02 0.33 0 0.04 0.33 0 0.06 0.33 0 0.08 0.33 0 0.1 0.33 0 0 0.335 0 0.02 0.335 0 0.04 0.335 0 0.06 0.335 0 0.08 0.335 0 0.1 0.335 0 0 0.34 0 0.02 0.34 0 0.04 0.34 0 0.06 0.34 0 0.08 0.34 0 0.1 0.34 0 0 0.345 0 0.02 0.345 0 0.04 0.345 0 0.06 0.345 0 0.08 0.345 0 0.1 0.345 0 0 0.35 0 0.02 0.35 0 0.04 0.35 0 0.06 0.35 0 0.08 0.35 0 0.1 0.35 0 0 0.355 0 0.02 0.355 0 0.04 0.355 0 0.06 0.355 0 0.08 0.355 0 0.1 0.355 0 0 0.36 0 0.02 0.36 0 0.04 0.36 0 0.06 0.36 0 0.08 0.36 0 0.1 0.36 0 0 0.365 0 0.02 0.365 0 0.04 0.365 0 0.06 0.365 0 0.08 0.365 0 0.1 0.365 0 0 0.37 0 0.02 0.37 0 0.04 0.37 0 0.06 0.37 0 0.08 0.37 0 0.1 0.37 0 0 0.375 0 0.02 0.375 0 0.04 0.375 0 0.06 0.375 0 0.08 0.375 0 0.1 0.375 0 0 0.38 0 0.02 0.38 0 0.04 0.38 0 0.06 0.38 0 0.08 0.38 0 0.1 0.38 0 0 0.385 0 0.02 0.385 0 0.04 0.385 0 0.06 0.385 0 0.08 0.385 0 0.1 0.385 0 0 0.39 0 0.02 0.39 0 0.04 0.39 0 0.06 0.39 0 0.08 0.39 0 0.1 0.39 0 0 0.395 0 0.02 0.395 0 0.04 0.395 0 0.06 0.395 0 0.08 0.395 0 0.1 0.395 0 0 0.4 0 0.02 0.4 0 0.04 0.4 0 0.06 0.4 0 0.08 0.4 0 0.1 0.4 0 0 0.405 0 0.02 0.405 0 0.04 0.405 0 0.06 0.405 0 0.08 0.405 0 0.1 0.405 0 0 0.41 0 0.02 0.41 0 0.04 0.41 0 0.06 0.41 0 0.08 0.41 0 0.1 0.41 0 0 0.415 0 0.02 0.415 0 0.04 0.415 0 0.06 0.415 0 0.08 0.415 0 0.1 0.415 0 0 0.42 0 0.02 0.42 0 0.04 0.42 0 0.06 0.42 0 0.08 0.42 0 0.1 0.42 0 0 0.425 0 0.02 0.425 0 0.04 0.425 0 0.06 0.425 0 0.08 0.425 0 0.1 0.425 0 0 0.43 0 0.02 0.43 0 0.04 0.43 0 0.06 0.43 0 0.08 0.43 0 0.1 0.43 0 0 0.435 0 0.02 0.435 0 0.04 0.435 0 0.06 0.435 0 0.08 0.435 0 0.1 0.435 0 0 0.44 0 0.02 0.44 0 0.04 0.44 0 0.06 0.44 0 0.08 0.44 0 0.1 0.44 0 0 0.445 0 0.02 0.445 0 0.04 0.445 0 0.06 0.445 0 0.08 0.445 0 0.1 0.445 0 0 0.45 0 0.02 0.45 0 0.04 0.45 0 0.06 0.45 0 0.08 0.45 0 0.1 0.45 0 0 0.455 0 0.02 0.455 0 0.04 0.455 0 0.06 0.455 0 0.08 0.455 0 0.1 0.455 0 0 0.46 0 0.02 0.46 0 0.04 0.46 0 0.06 0.46 0 0.08 0.46 0 0.1 0.46 0 0 0.465 0 0.02 0.465 0 0.04 0.465 0 0.06 0.465 0 0.08 0.465 0 0.1 0.465 0 0 0.47 0 0.02 0.47 0 0.04 0.47 0 0.06 0.47 0 0.08 0.47 0 0.1 0.47 0 0 0.475 0 0.02 0.475 0 0.04 0.475 0 0.06 0.475 0 0.08 0.475 0 0.1 0.475 0 0 0.48 0 0.02 0.48 0 0.04 0.48 0 0.06 0.48 0 0.08 0.48 0 0.1 0.48 0 0 0.485 0 0.02 0.485 0 0.04 0.485 0 0.06 0.485 0 0.08 0.485 0 0.1 0.485 0 0 0.49 0 0.02 0.49 0 0.04 0.49 0 0.06 0.49 0 0.08 0.49 0 0.1 0.49 0 0 0.495 0 0.02 0.495 0 0.04 0.495 0 0.06 0.495 0 0.08 0.495 0 0.1 0.495 0 0 0.5 0 0.02 0.5 0 0.04 0.5 0 0.06 0.5 0 0.08 0.5 0 0.1 0.5 0 0 0.505 0 0.02 0.505 0 0.04 0.505 0 0.06 0.505 0 0.08 0.505 0 0.1 0.505 0 0 0.51 0 0.02 0.51 0 0.04 0.51 0 0.06 0.51 0 0.08 0.51 0 0.1 0.51 0 0 0.515 0 0.02 0.515 0 0.04 0.515 0 0.06 0.515 0 0.08 0.515 0 0.1 0.515 0 0 0.52 0 0.02 0.52 0 0.04 0.52 0 0.06 0.52 0 0.08 0.52 0 0.1 0.52 0 0 0.525 0 0.02 0.525 0 0.04 0.525 0 0.06 0.525 0 0.08 0.525 0 0.1 0.525 0 0 0.53 0 0.02 0.53 0 0.04 0.53 0 0.06 0.53 0 0.08 0.53 0 0.1 0.53 0 0 0.535 0 0.02 0.535 0 0.04 0.535 0 0.06 0.535 0 0.08 0.535 0 0.1 0.535 0 0 0.54 0 0.02 0.54 0 0.04 0.54 0 0.06 0.54 0 0.08 0.54 0 0.1 0.54 0 0 0.545 0 0.02 0.545 0 0.04 0.545 0 0.06 0.545 0 0.08 0.545 0 0.1 0.545 0 0 0.55 0 0.02 0.55 0 0.04 0.55 0 0.06 0.55 0 0.08 0.55 0 0.1 0.55 0 0 0.555 0 0.02 0.555 0 0.04 0.555 0 0.06 0.555 0 0.08 0.555 0 0.1 0.555 0 0 0.56 0 0.02 0.56 0 0.04 0.56 0 0.06 0.56 0 0.08 0.56 0 0.1 0.56 0 0 0.565 0 0.02 0.565 0 0.04 0.565 0 0.06 0.565 0 0.08 0.565 0 0.1 0.565 0 0 0.57 0 0.02 0.57 0 0.04 0.57 0 0.06 0.57 0 0.08 0.57 0 0.1 0.57 0 0 0.575 0 0.02 0.575 0 0.04 0.575 0 0.06 0.575 0 0.08 0.575 0 0.1 0.575 0 0 0.58 0 0.02 0.58 0 0.04 0.58 0 0.06 0.58 0 0.08 0.58 0 0.1 0.58 0 0 0.585 0 0.02 0.585 0 0.04 0.585 0 0.06 0.585 0 0.08 0.585 0 0.1 0.585 0 0 0.59 0 0.02 0.59 0 0.04 0.59 0 0.06 0.59 0 0.08 0.59 0 0.1 0.59 0 0 0.595 0 0.02 0.595 0 0.04 0.595 0 0.06 0.595 0 0.08 0.595 0 0.1 0.595 0 0 0.6 0 0.02 0.6 0 0.04 0.6 0 0.06 0.6 0 0.08 0.6 0 0.1 0.6 0 0 0.605 0 0.02 0.605 0 0.04 0.605 0 0.06 0.605 0 0.08 0.605 0 0.1 0.605 0 0 0.61 0 0.02 0.61 0 0.04 0.61 0 0.06 0.61 0 0.08 0.61 0 0.1 0.61 0 0 0.615 0 0.02 0.615 0 0.04 0.615 0 0.06 0.615 0 0.08 0.615 0 0.1 0.615 0 0 0.62 0 0.02 0.62 0 0.04 0.62 0 0.06 0.62 0 0.08 0.62 0 0.1 0.62 0 0 0.625 0 0.02 0.625 0 0.04 0.625 0 0.06 0.625 0 0.08 0.625 0 0.1 0.625 0 0 0.63 0 0.02 0.63 0 0.04 0.63 0 0.06 0.63 0 0.08 0.63 0 0.1 0.63 0 0 0.635 0 0.02 0.635 0 0.04 0.635 0 0.06 0.635 0 0.08 0.635 0 0.1 0.635 0 0 0.64 0 0.02 0.64 0 0.04 0.64 0 0.06 0.64 0 0.08 0.64 0 0.1 0.64 0 0 0.645 0 0.02 0.645 0 0.04 0.645 0 0.06 0.645 0 0.08 0.645 0 0.1 0.645 0 0 0.65 0 0.02 0.65 0 0.04 0.65 0 0.06 0.65 0 0.08 0.65 0 0.1 0.65 0 0 0.655 0 0.02 0.655 0 0.04 0.655 0 0.06 0.655 0 0.08 0.655 0 0.1 0.655 0 0 0.66 0 0.02 0.66 0 0.04 0.66 0 0.06 0.66 0 0.08 0.66 0 0.1 0.66 0 0 0.665 0 0.02 0.665 0 0.04 0.665 0 0.06 0.665 0 0.08 0.665 0 0.1 0.665 0 0 0.67 0 0.02 0.67 0 0.04 0.67 0 0.06 0.67 0 0.08 0.67 0 0.1 0.67 0 0 0.675 0 0.02 0.675 0 0.04 0.675 0 0.06 0.675 0 0.08 0.675 0 0.1 0.675 0 0 0.68 0 0.02 0.68 0 0.04 0.68 0 0.06 0.68 0 0.08 0.68 0 0.1 0.68 0 0 0.685 0 0.02 0.685 0 0.04 0.685 0 0.06 0.685 0 0.08 0.685 0 0.1 0.685 0 0 0.69 0 0.02 0.69 0 0.04 0.69 0 0.06 0.69 0 0.08 0.69 0 0.1 
[...]
			<PointData Scalars="VitesseX">
				<DataArray Name="VitesseX" type="Float32" format="ascii">
 0 3.32398e-14 -2.30167e-14 1.52574e-14 -1.3249e-14 0 0 2.76767e-14 -8.68068e-15 4.61483e-16 7.88664e-16 0 0 2.16297e-14 9.95354e-15 -9.13191e-15 1.1629e-14 0 0 2.36915e-14 1.3824e-14 6.66349e-15 -1.05204e-16 0 0 4.37194e-15 4.47332e-14 3.48726e-15 -2.76822e-15 0 0 -2.35037e-15 6.08631e-14 2.63018e-15 -3.59655e-15 0 0 5.19447e-14 -1.76349e-15 5.31504e-14 -3.0186e-14 0 0 7.30873e-14 -2.11277e-14 7.13298e-14 -4.15681e-14 0 0 5.87717e-14 3.84075e-15 4.36906e-14 -2.10723e-14 0 0 2.68224e-14 5.59625e-14 -1.80996e-14 2.22008e-14 0 0 1.09961e-14 7.82139e-14 -5.56414e-14 5.16098e-14 0 0 4.31781e-14 2.71074e-14 -1.73377e-14 2.8785e-14 0 0 7.55067e-14 -2.03301e-14 4.21248e-14 -1.64826e-14 0 0 6.79711e-14 -2.04e-15 3.92921e-14 -1.84615e-14 0 0 4.16856e-14 4.84151e-14 -3.2327e-15 1.02286e-14 0 0 7.12056e-14 8.02845e-15 3.79291e-14 -1.54767e-14 0 0 5.22326e-14 3.29273e-14 2.21886e-14 -6.83848e-15 0 0 5.5294e-15 8.39184e-14 -9.91507e-15 2.24574e-14 0 0 -1.46208e-15 9.14528e-14 -3.34717e-14 5.11456e-14 0 0 2.71995e-14 4.82317e-14 -2.02717e-14 5.35265e-14 0 0 8.87326e-14 -5.65708e-14 7.89591e-14 -2.41151e-15 0 0 8.27348e-14 -4.50105e-14 6.12082e-14 2.07475e-14 0 0 2.48881e-14 5.81684e-14 -3.8365e-14 8.63373e-14 0 0 -1.34708e-14 1.37363e-13 -1.15396e-13 1.49642e-13 0 0 5.7482e-14 1.05987e-14 2.82347e-14 7.79057e-14 0 0 1.60106e-13 -1.60293e-13 2.30215e-13 -4.47812e-14 0 0 6.03885e-14 3.37154e-14 4.36144e-14 8.63879e-14 0 0 -2.04703e-14 1.69658e-13 -8.6129e-14 1.87827e-13 0 0 6.0116e-14 4.78087e-14 1.59413e-14 1.44632e-13 0 0 1.10518e-13 -2.51607e-14 9.10884e-14 6.09007e-14 0 0 9.11242e-14 -1.24551e-14 1.0687e-13 -1.34363e-14 0 0 8.52129e-14 1.23793e-14 7.09481e-14 -1.2834e-14 0 0 5.49326e-14 8.11469e-14 -1.94736e-14 4.30057e-14 0 0 -1.38713e-14 1.97863e-13 -1.58641e-13 1.59221e-13 0 0 1.19023e-13 -9.67762e-15 2.13312e-14 7.405e-14 0 0 2.1697e-13 -1.5099e-13 1.36601e-13 -2.26087e-14 0 0 1.28342e-13 1.79608e-14 -3.61629e-14 2.61191e-14 0 0 6.06242e-14 1.32567e-13 -1.53212e-13 9.48134e-14 0 0 5.34573e-14 1.32124e-13 -1.65444e-13 1.4399e-13 0 0 1.12646e-13 3.26553e-14 -3.31185e-14 4.96197e-14 0 0 1.86088e-13 -8.80976e-14 1.31435e-13 -6.0408e-14 0 0 9.4149e-14 5.23153e-14 1.33186e-14 4.1146e-14 0 0 7.18028e-14 1.43258e-13 -1.00429e-13 1.45187e-13 0 0 2.5617e-13 -5.58795e-14 6.93447e-14 4.34321e-14 0 0 3.65715e-13 -1.36022e-13 1.25671e-13 -1.85023e-14 0 0 2.78736e-13 6.86903e-14 -9.99953e-14 1.07685e-13 0 0 1.45567e-13 2.54379e-13 -2.5694e-13 2.00289e-13 0 0 1.0905e-13 2.52059e-13 -2.46723e-13 2.46463e-13 0 0 2.02541e-13 8.40291e-14 -1.21357e-13 2.51723e-13 0 0 4.1392e-13 -2.6696e-13 1.96727e-13 7.98407e-14 0 0 5.50592e-13 -5.52313e-13 4.98282e-13 -1.23238e-13 0 0 3.14009e-13 -2.581e-13 2.59098e-13 -4.82781e-14 0 0 -3.66905e-14 2.89607e-13 -2.68411e-13 2.19613e-13 0 0 9.18234e-14 1.61177e-13 -2.45133e-13 2.5069e-13 0 0 3.74475e-13 -1.90094e-13 -1.5246e-14 1.7104e-13 0 0 4.043e-13 -1.74763e-13 -3.15805e-14 1.7251e-13 0 0 3.41521e-13 -5.17339e-14 -1.26503e-13 1.6251e-13 0 0 3.23272e-13 -3.80233e-14 -1.37376e-13 1.36967e-13 0 0 2.28064e-13 6.53686e-14 -1.60603e-13 8.56853e-14 0 0 2.11167e-13 6.14687e-14 -8.80727e-14 -4.06566e-14 0 0 2.69201e-13 -4.7603e-14 1.55908e-14 -7.00732e-14 0 0 1.5449e-13 7.10435e-14 -9.02567e-14 9.45805e-14 0 0 1.52818e-13 -1.88704e-14 7.20542e-14 -9.5099e-15 0 0 2.38077e-13 -1.88911e-13 3.07815e-13 -2.12879e-13 0 0 1.28595e-13 -1.51552e-14 1.74665e-13 -1.50223e-13 0 0 1.07636e-14 1.52949e-13 4.46622e-14 -9.60882e-14 0 0 -6.16304e-15 2.27302e-13 -9.16891e-14 -7.45143e-15 0 0 1.93268e-13 1.77337e-14 -1.19795e-14 -2.0641e-14 0 0 4.00308e-13 -2.5991e-13 2.22196e-13 -1.84363e-13 0 0 2.99662e-13 -7.7041e-14 3.11912e-14 -8.37441e-14 0 0 2.05383e-13 1.04711e-13 -1.29092e-13 3.46224e-14 0 0 2.72139e-13 4.1422e-14 -7.11629e-14 6.52625e-14 0 0 5.12127e-13 -2.638e-13 1.65602e-13 5.44417e-14 0 0 5.8828e-13 -2.32901e-13 1.41115e-13 9.37861e-14 0 0 4.14228e-13 1.54018e-13 -1.6524e-13 2.86063e-13 0 0 2.47829e-13 3.73967e-13 -2.72242e-13 3.29334e-13 0 0 3.43911e-13 1.21898e-13 9.07209e-14 -1.34862e-15 0 0 6.41033e-13 -3.45367e-13 5.32981e-13 -2.39854e-13 0 0 7.0028e-13 -2.96413e-13 2.96205e-13 1.15807e-13 0 0 4.63127e-13 5.8139e-14 6.52498e-14 3.33839e-13 0 0 2.98176e-13 1.26676e-13 3.60863e-13 8.76453e-14 0 0 3.71647e-13 2.17129e-13 1.0604e-13 3.071e-13 0 0 4.12241e-13 4.43685e-13 -4.72851e-13 8.25549e-13 0 0 4.65529e-13 1.40397e-13 2.04088e-14 5.18564e-13 0 0 3.96427e-13 -3.45881e-13 9.96977e-13 -1.69101e-13 0 0 -1.19675e-13 2.98345e-13 6.28491e-13 3.10063e-14 0 0 -2.26075e-13 1.03893e-12 -2.84536e-13 6.29313e-13 0 0 2.30327e-13 4.91822e-13 3.95296e-14 5.26241e-13 0 0 4.5126e-13 -7.77783e-14 8.77809e-13 -1.29769e-13 0 0 5.32135e-13 -6.37488e-14 8.67967e-13 -1.26936e-13 0 0 3.46682e-13 1.14132e-13 4.95156e-13 -3.93172e-14 0 0 -4.37591e-13 8.76102e-13 2.94518e-13 -2.74505e-13 0 0 -4.82339e-13 1.04092e-12 -3.95119e-14 -1.11303e-13 0 0 -1.85968e-13 7.78338e-13 -6.36373e-14 1.47766e-13 0 0 4.29682e-13 1.09927e-13 1.36937e-13 3.07437e-13 0 0 9.48047e-13 -5.46562e-13 4.71289e-13 3.74058e-13 0 0 9.40215e-13 -6.09832e-13 5.02074e-13 3.93776e-13 0 0 7.02276e-13 -5.02834e-13 4.57894e-13 3.8976e-13 0 0 2.83484e-14 -3.60702e-14 2.89674e-13 3.8942e-13 0 0 -5.21685e-13 4.61662e-13 -1.77806e-13 4.27978e-13 0 0 -5.59857e-13 5.13702e-13 -6.225e-13 6.22201e-13 0 0 -4.20012e-13 4.1945e-13 -6.53043e-13 7.44457e-13 0 0 4.67554e-14 1.43713e-14 -5.92812e-13 7.241e-13 0 0 4.79163e-13 -4.55028e-13 -3.65251e-13 6.64219e-13 0 0 6.22355e-13 -7.06397e-13 2.33173e-14 4.8793e-13 0 0 5.9314e-13 -6.8331e-13 2.49594e-13 2.77773e-13 0 0 3.68477e-13 -4.57117e-13 2.54722e-13 2.25005e-13 0 0 1.01597e-13 -1.34904e-13 2.164e-13 1.96986e-13 0 0 -8.83081e-14 1.343e-13 1.64933e-13 1.27831e-13 0 0 -1.40033e-13 2.52827e-13 1.81482e-13 6.62024e-14 0 0 -1.1538e-13 2.41699e-13 2.69938e-13 -4.01255e-14 0 0 2.57233e-14 6.89259e-14 4.68251e-13 -1.99247e-13 0 0 9.18107e-14 -7.77754e-14 4.45453e-13 -1.91263e-13 0 0 8.46624e-14 -6.32812e-14 3.41861e-13 -1.37755e-13 0 0 4.9114e-14 6.56965e-15 2.13429e-13 -9.94165e-14 0 0 8.53377e-15 1.21404e-13 -8.48111e-16 -3.91431e-14 0 0 4.76806e-14 1.03522e-13 -2.69523e-14 6.72649e-15 0 0 1.17103e-13 5.51901e-14 -3.52027e-14 -1.18602e-14 0 0 1.0335e-13 2.14775e-14 -7.73404e-15 -2.24742e-14 0 0 8.86648e-14 2.39268e-14 6.53801e-15 -7.03465e-14 0 0 6.31198e-14 5.22358e-14 5.31437e-14 -1.09136e-13 0 0 1.16484e-13 -8.31387e-14 2.1637e-13 -5.33886e-14 0 0 1.9461e-13 -9.59461e-14 1.89131e-13 -4.75685e-17 0 0 1.03443e-13 8.39693e-14 7.02223e-14 4.66271e-14 0 0 1.05387e-13 1.36818e-13 8.92149e-14 6.49656e-14 0 0 1.23385e-13 2.24312e-13 -5.47613e-14 1.9062e-13 0 0 2.49902e-13 8.36133e-14 5.53855e-14 1.25533e-13 0 0 4.73251e-13 -2.39834e-13 3.72753e-13 -8.21925e-14 0 0 2.80965e-13 5.00606e-14 1.53688e-13 4.74726e-15 0 0 1.40921e-13 2.62209e-13 -3.34289e-14 1.06815e-13 0 0 1.25717e-13 2.97798e-13 -8.81616e-14 1.71414e-13 0 0 1.79636e-13 2.03347e-13 -1.87919e-14 1.58947e-13 0 0 3.73001e-13 -1.0225e-13 2.41048e-13 -3.91269e-14 0 0 2.59116e-13 8.70012e-14 4.1877e-14 4.38092e-14 0 0 1.77529e-13 2.27206e-13 -8.00769e-14 1.44529e-13 0 0 1.49349e-13 2.72383e-13 -1.0833e-13 2.14408e-13 0 0 2.47546e-13 8.57141e-14 1.11082e-13 1.22815e-13 0 0 4.78685e-13 -2.77874e-13 5.20927e-13 -8.0599e-14 0 0 1.93186e-13 1.87497e-13 1.00289e-13 2.47279e-13 0 0 1.15784e-13 2.92236e-13 8.48247e-14 2.14095e-13 0 0 2.42198e-13 1.17791e-13 3.06101e-13 7.46328e-14 0 0 7.19234e-14 4.67605e-13 -8.9288e-14 3.97131e-13 0 0 4.41097e-13 -2.36662e-14 3.90919e-13 6.06643e-14 0 0 6.44852e-13 -2.51887e-13 5.45373e-13 6.26269e-15 0 0 2.32845e-13 4.2332e-13 -1.03304e-13 4.27306e-13 0 0 2.033e-13 3.95985e-13 1.3759e-13 1.60738e-13 0 0 2.3546e-13 3.18031e-13 2.10447e-13 8.51685e-14 0 0 5.31802e-13 -2.30129e-13 6.69678e-13 -1.54082e-13 0 0 6.57713e-13 -4.52362e-13 8.53092e-13 -1.92084e-13 0 0 5.33858e-14 6.82267e-13 -3.16456e-13 5.45455e-13 0 0 2.09552e-13 5.72329e-13 -1.49806e-13 2.67908e-13 0 0 5.42135e-13 9.81373e-14 2.33663e-13 -2.90478e-14 0 0 6.19851e-13 -9.14338e-14 3.53865e-13 -4.16398e-14 0 0 3.82578e-13 1.21153e-13 2.72467e-13 -2.29361e-14 0 0 1.95761e-15 5.62993e-13 -5.76661e-16 7.00108e-14 0 0 -2.9064e-14 5.02034e-13 -1.86134e-14 1.51242e-13 0 0 3.57421e-13 -1.53623e-13 2.66314e-13 2.1991e-13 0 0 7.11648e-13 -7.71512e-13 7.64147e-13 -8.10688e-14 0 0 2.35121e-13 -8.15439e-14 2.26396e-13 1.50513e-13 0 0 -2.3458e-13 5.62103e-13 -2.00023e-13 4.30579e-13 0 0 -3.54751e-13 6.31139e-13 -1.10625e-13 3.40518e-13 0 0 1.96335e-13 -3.58931e-13 7.56465e-13 7.09473e-14 0 0 4.74495e-13 -9.9707e-13 1.35295e-12 -1.29583e-13 0 0 -7.55899e-15 -2.53815e-13 4.41511e-13 4.24728e-13 0 0 -2.8548e-13 3.97847e-13 -4.7763e-13 9.95922e-13 0 0 -4.51014e-14 1.46507e-13 -2.64653e-13 9.36305e-13 0 0 2.73916e-13 -5.00609e-13 5.59116e-13 5.25452e-13 0 0 6.36937e-14 -4.22947e-13 9.07392e-13 1.32858e-13 0 0 -4.02296e-13 2.12176e-13 5.03025e-13 1.70313e-13 0 0 -1.44308e-13 -1.06816e-13 6.87635e-13 -6.55485e-14 0 0 1.94875e-14 -2.23253e-13 5.34841e-13 1.08804e-13 0 0 -2.01937e-13 2.25153e-13 -1.48475e-13 5.99348e-13 0 0 4.83501e-14 -2.76046e-13 2.92715e-13 3.30429e-13 0 0 5.25094e-14 -3.46167e-13 3.31231e-13 3.17004e-13 0 0 1.27591e-13 -3.55022e-13 2.67163e-13 2.74469e-13 0 0 2.00556e-14 -1.56268e-13 1.78174e-13 1.40407e-13 0 0 -2.1045e-13 2.01035e-13 -1.5675e-13 3.16582e-13 0 0 8.70514e-15 -1.57423e-13 1.72748e-13 9.85808e-14 0 0 3.58474e-14 -1.47257e-13 1.0065e-13 1.23449e-14 0 0 2.81124e-13 -4.94529e-13 2.81388e-13 -7.50498e-14 0 0 2.69899e-13 -3.89786e-13 1.69612e-13 8.10704e-14 0 0 -1.65592e-13 2.97616e-13 -3.79964e-13 4.24554e-13 0 0 -5.79263e-14 1.86583e-14 6.20682e-14 1.29226e-13 0 0 1.39088e-13 -1.99634e-13 3.0373e-13 1.5523e-13 0 0 2.64273e-13 -3.3958e-13 3.57177e-13 3.58328e-13 0 0 -1.31622e-13 6.58771e-14 4.82122e-14 4.55132e-13 0 0 -6.16313e-13 7.71127e-13 -5.79207e-13 6.44596e-13 0 0 -8.6889e-14 1.54116e-13 -6.35547e-14 3.06928e-13 0 0 2.65809e-13 -1.33686e-13 1.23746e-13 2.00911e-13 0 0 6.11084e-13 -4.86943e-13 3.73245e-13 8.77936e-14 0 0 4.05257e-13 -2.30587e-13 1.55564e-13 3.52999e-13 0 0 -3.92389e-13 9.23948e-13 -8.40096e-13 9.40397e-13 0 0 4.18479e-13 -3.26755e-13 4.43511e-13 3.14794e-14 0 0 1.15078e-12 -1.28436e-12 1.09721e-12 -2.97185e-13 0 0 4.27204e-13 -7.63492e-14 -2.40066e-13 4.97659e-13 0 0 -2.04432e-13 7.08312e-13 -7.68171e-13 6.76712e-13 0 0 -7.57312e-14 4.63429e-13 -4.91488e-13 5.87605e-13 0 0 9.88106e-13 -1.12062e-12 1.08785e-12 -3.18903e-13 0 0 1.05297e-12 -1.01153e-12 1.05547e-12 -3.24537e-13 0 0 -1.48603e-13 1.01811e-12 -8.1739e-13 6.18861e-13 0 0 -5.81569e-13 1.64279e-12 -1.28381e-12 6.89824e-13 0
				</DataArray>
				<DataArray Name="VitesseY" type="Float32" format="ascii">