<?xml version="1.0"?>
<VTKFile type="PolyData">
	<PolyData>
		<Piece NumberOfPoints="1206" NumberOfPolys="1000">
			<Points>
				<DataArray type="Float32" NumberOfComponents="3" format="ascii">
 0 0 0 0.02 0 0 0.04 0 0 0.06 0 0 0.08 0 0 0.1 0 0 0 0.005 0 0.02 0.005 0 0.04 0.005 0 0.06 0.005 0 0.08 0.005 0 0.1 0.005 0 0 0.01 0 0.02 0.01 0 0.04 0.01 0 0.06 0.01 0 0.08 0.01 0 0.1 0.01 0 0 0.015 0 0.02 0.015 0 0.04 0.015 0 0.06 0.015 0 0.08 0.015 0 0.1 0.015 0 0 0.02 0 0.02 0.02 0 0.04 0.02 0 0.06 0.02 0 0.08 0.02 0 0.1 0.02 0 0 0.025 0 0.02 0.025 0 0.04 0.025 0 0.06 0.025 0 0.08 0.025 0 0.1 0.025 0 0 0.03 0 0.02 0.03 0 0.04 0.03 0 0.06 0.03 0 0.08 0.03 0 0.1 0.03 0 0 0.035 0 0.02 0.035 0 0.04 0.035 0 0.06 0.035 0 0.08 0.035 0 0.1 0.035 0 0 0.04 0 0.02 0.04 0 0.04 0.04 0 0.06 0.04 0 0.08 0.04 0 0.1 0.04 0 0 0.045 0 0.02 0.045 0 0.04 0.045 0 0.06 0.045 0 0.08 0.045 0 0.1 0.045 0 0 0.05 0 0.02 0.05 0 0.04 0.05 0 0.06 0.05 0 0.08 0.05 0 0.1 0.05 0 0 0.055 0 0.02 0.055 0 0.04 0.055 0 0.06 0.055 0 0.08 0.055 0 0.1 0.055 0 0 0.06 0 0.02 0.06 0 0.04 0.06 0 0.06 0.06 0 0.08 0.06 0 0.1 0.06 0 0 0.065 0 0.02 0.065 0 0.04 0.065 0 0.06 0.065 0 0.08 0.065 0 0.1 0.065 0 0 0.07 0 0.02 0.07 0 0.04 0.07 0 0.06 0.07 0 0.08 0.07 0 0.1 0.07 0 0 0.075 0 0.02 0.075 0 0.04 0.075 0 0.06 0.075 0 0.08 0.075 0 0.1 0.075 0 0 0.08 0 0.02 0.08 0 0.04 0.08 0 0.06 0.08 0 0.08 0.08 0 0.1 0.08 0 0 0.085 0 0.02 0.085 0 0.04 0.085 0 0.06 0.085 0 0.08 0.085 0 0.1 0.085 0 0 0.09 0 0.02 0.09 0 0.04 0.09 0 0.06 0.09 0 0.08 0.09 0 0.1 0.09 0 0 0.095 0 0.02 0.095 0 0.04 0.095 0 0.06 0.095 0 0.08 0.095 0 0.1 0.095 0 0 0.1 0 0.02 0.1 0 0.04 0.1 0 0.06 0.1 0 0.08 0.1 0 0.1 0.1 0 0 0.105 0 0.02 0.105 0 0.04 0.105 0 0.06 0.105 0 0.08 0.105 0 0.1 0.105 0 0 0.11 0 0.02 0.11 0 0.04 0.11 0 0.06 0.11 0 0.08 0.11 0 0.1 0.11 0 0 0.115 0 0.02 0.115 0 0.04 0.115 0 0.06 0.115 0 0.08 0.115 0 0.1 0.115 0 0 0.12 0 0.02 0.12 0 0.04 0.12 0 0.06 0.12 0 0.08 0.12 0 0.1 0.12 0 0 0.125 0 0.02 0.125 0 0.04 0.125 0 0.06 0.125 0 0.08 0.125 0 0.1 0.125 0 0 0.13 0 0.02 0.13 0 0.04 0.13 0 0.06 0.13 0 0.08 0.13 0 0.1 0.13 0 0 0.135 0 0.02 0.135 0 0.04 0.135 0 0.06 0.135 0 0.08 0.135 0 0.1 0.135 0 0 0.14 0 0.02 0.14 0 0.04 0.14 0 0.06 0.14 0 0.08 0.14 0 0.1 0.14 0 0 0.145 0 0.02 0.145 0 0.04 0.145 0 0.06 0.145 0 0.08 0.145 0 0.1 0.145 0 0 0.15 0 0.02 0.15 0 0.04 0.15 0 0.06 0.15 0 0.08 0.15 0 0.1 0.15 0 0 0.155 0 0.02 0.155 0 0.04 0.155 0 0.06 0.155 0 0.08 0.155 0 0.1 0.155 0 0 0.16 0 0.02 0.16 0 0.04 0.16 0 0.06 0.16 0 0.08 0.16 0 0.1 0.16 0 0 0.165 0 0.02 0.165 0 0.04 0.165 0 0.06 0.165 0 0.08 0.165 0 0.1 0.165 0 0 0.17 0 0.02 0.17 0 0.04 0.17 0 0.06 0.17 0 0.08 0.17 0 0.1 0.17 0 0 0.175 0 0.02 0.175 0 0.04 0.175 0 0.06 0.175 0 0.08 0.175 0 0.1 0.175 0 0 0.18 0 0.02 0.18 0 0.04 0.18 0 0.06 0.18 0 0.08 0.18 0 0.1 0.18 0 0 0.185 0 0.02 0.185 0 0.04 0.185 0 0.06 0.185 0 0.08 0.185 0 0.1 0.185 0 0 0.19 0 0.02 0.19 0 0.04 0.19 0 0.06 0.19 0 0.08 0.19 0 0.1 0.19 0 0 0.195 0 0.02 0.195 0 0.04 0.195 0 0.06 0.195 0 0.08 0.195 0 0.1 0.195 0 0 0.2 0 0.02 0.2 0 0.04 0.2 0 0.06 0.2 0 0.08 0.2 0 0.1 0.2 0 0 0.205 0 0.02 0.205 0 0.04 0.205 0 0.06 0.205 0 0.08 0.205 0 0.1 0.205 0 0 0.21 0 0.02 0.21 0 0.04 0.21 0 0.06 0.21 0 0.08 0.21 0 0.1 0.21 0 0 0.215 0 0.02 0.215 0 0.04 0.215 0 0.06 0.215 0 0.08 0.215 0 0.1 0.215 0 0 0.22 0 0.02 0.22 0 0.04 0.22 0 0.06 0.22 0 0.08 0.22 0 0.1 0.22 0 0 0.225 0 0.02 0.225 0 0.04 0.225 0 0.06 0.225 0 0.08 0.225 0 0.1 0.225 0 0 0.23 0 0.02 0.23 0 0.04 0.23 0 0.06 0.23 0 0.08 0.23 0 0.1 0.23 0 0 0.235 0 0.02 0.235 0 0.04 0.235 0 0.06 0.235 0 0.08 0.235 0 0.1 0.235 0 0 0.24 0 0.02 0.24 0 0.04 0.24 0 0.06 0.24 0 0.08 0.24 0 0.1 0.24 0 0 0.245 0 0.02 0.245 0 0.04 0.245 0 0.06 0.245 0 0.08 0.245 0 0.1 0.245 0 0 0.25 0 0.02 0.25 0 0.04 0.25 0 0.06 0.25 0 0.08 0.25 0 0.1 0.25 0 0 0.255 0 0.02 0.255 0 0.04 0.255 0 0.06 0.255 0 0.08 0.255 0 0.1 0.255 0 0 0.26 0 0.02 0.26 0 0.04 0.26 0 0.06 0.26 0 0.08 0.26 0 0.1 0.26 0 0 0.265 0 0.02 0.265 0 0.04 0.265 0 0.06 0.265 0 0.08 0.265 0 0.1 0.265 0 0 0.27 0 0.02 0.27 0 0.04 0.27 0 0.06 0.27 0 0.08 0.27 0 0.1 0.27 0 0 0.275 0 0.02 0.275 0 0.04 0.275 0 0.06 0.275 0 0.08 0.275 0 0.1 0.275 0 0 0.28 0 0.02 0.28 0 0.04 0.28 0 0.06 0.28 0 0.08 0.28 0 0.1 0.28 0 0 0.285 0 0.02 0.285 0 0.04 0.285 0 0.06 0.285 0 0.08 0.285 0 0.1 0.285 0 0 0.29 0 0.02 0.29 0 0.04 0.29 0 0.06 0.29 0 0.08 0.29 0 0.1 0.29 0 0 0.295 0 0.02 0.295 0 0.04 0.295 0 0.06 0.295 0 0.08 0.295 0 0.1 0.295 0 0 0.3 0 0.02 0.3 0 0.04 0.3 0 0.06 0.3 0 0.08 0.3 0 0.1 0.3 0 0 0.305 0 0.02 0.305 0 0.04 0.305 0 0.06 0.305 0 0.08 0.305 0 0.1 0.305 0 0 0.31 0 0.02 0.31 0 0.04 0.31 0 0.06 0.31 0 0.08 0.31 0 0.1 0.31 0 0 0.315 0 0.02 0.315 0 0.04 0.315 0 0.06 0.315 0 0.08 0.315 0 0.1 0.315 0 0 0.32 0 0.02 0.32 0 0.04 0.32 0 0.06 0.32 0 0.08 0.32 0 0.1 0.32 0 0 0.325 0 0.02 0.325 0 0.04 0.325 0 0.06 0.325 0 0.08 0.325 0 0.1 0.325 0 0 0.33 0 0.02 0.33 0 0.04 0.33 0 0.06 0.33 0 0.08 0.33 0 0.1 0.33 0 0 0.335 0 0.02 0.335 0 0.04 0.335 0 0.06 0.335 0 0.08 0.335 0 0.1 0.335 0 0 0.34 0 0.02 0.34 0 0.04 0.34 0 0.06 0.34 0 0.08 0.34 0 0.1 0.34 0 0 0.345 0 0.02 0.345 0 0.04 0.345 0 0.06 0.345 0 0.08 0.345 0 0.1 0.345 0 0 0.35 0 0.02 0.35 0 0.04 0.35 0 0.06 0.35 0 0.08 0.35 0 0.1 0.35 0 0 0.355 0 0.02 0.355 0 0.04 0.355 0 0.06 0.355 0 0.08 0.355 0 0.1 0.355 0 0 0.36 0 0.02 0.36 0 0.04 0.36 0 0.06 0.36 0 0.08 0.36 0 0.1 0.36 0 0 0.365 0 0.02 0.365 0 0.04 0.365 0 0.06 0.365 0 0.08 0.365 0 0.1 0.365 0 0 0.37 0 0.02 0.37 0 0.04 0.37 0 0.06 0.37 0 0.08 0.37 0 0.1 0.37 0 0 0.375 0 0.02 0.375 0 0.04 0.375 0 0.06 0.375 0 0.08 0.375 0 0.1 0.375 0 0 0.38 0 0.02 0.38 0 0.04 0.38 0 0.06 0.38 0 0.08 0.38 0 0.1 0.38 0 0 0.385 0 0.02 0.385 0 0.04 0.385 0 0.06 0.385 0 0.08 0.385 0 0.1 0.385 0 0 0.39 0 0.02 0.39 0 0.04 0.39 0 0.06 0.39 0 0.08 0.39 0 0.1 0.39 0 0 0.395 0 0.02 0.395 0 0.04 0.395 0 0.06 0.395 0 0.08 0.395 0 0.1 0.395 0 0 0.4 0 0.02 0.4 0 0.04 0.4 0 0.06 0.4 0 0.08 0.4 0 0.1 0.4 0 0 0.405 0 0.02 0.405 0 0.04 0.405 0 0.06 0.405 0 0.08 0.405 0 0.1 0.405 0 0 0.41 0 0.02 0.41 0 0.04 0.41 0 0.06 0.41 0 0.08 0.41 0 0.1 0.41 0 0 0.415 0 0.02 0.415 0 0.04 0.415 0 0.06 0.415 0 0.08 0.415 0 0.1 0.415 0 0 0.42 0 0.02 0.42 0 0.04 0.42 0 0.06 0.42 0 0.08 0.42 0 0.1 0.42 0 0 0.425 0 0.02 0.425 0 0.04 0.425 0 0.06 0.425 0 0.08 0.425 0 0.1 0.425 0 0 0.43 0 0.02 0.43 0 0.04 0.43 0 0.06 0.43 0 0.08 0.43 0 0.1 0.43 0 0 0.435 0 0.02 0.435 0 0.04 0.435 0 0.06 0.435 0 0.08 0.435 0 0.1 0.435 0 0 0.44 0 0.02 0.44 0 0.04 0.44 0 0.06 0.44 0 0.08 0.44 0 0.1 0.44 0 0 0.445 0 0.02 0.445 0 0.04 0.445 0 0.06 0.445 0 0.08 0.445 0 0.1 0.445 0 0 0.45 0 0.02 0.45 0 0.04 0.45 0 0.06 0.45 0 0.08 0.45 0 0.1 0.45 0 0 0.455 0 0.02 0.455 0 0.04 0.455 0 0.06 0.455 0 0.08 0.455 0 0.1 0.455 0 0 0.46 0 0.02 0.46 0 0.04 0.46 0 0.06 0.46 0 0.08 0.46 0 0.1 0.46 0 0 0.465 0 0.02 0.465 0 0.04 0.465 0 0.06 0.465 0 0.08 0.465 0 0.1 0.465 0 0 0.47 0 0.02 0.47 0 0.04 0.47 0 0.06 0.47 0 0.08 0.47 0 0.1 0.47 0 0 0.475 0 0.02 0.475 0 0.04 0.475 0 0.06 0.475 0 0.08 0.475 0 0.1 0.475 0 0 0.48 0 0.02 0.48 0 0.04 0.48 0 0.06 0.48 0 0.08 0.48 0 0.1 0.48 0 0 0.485 0 0.02 0.485 0 0.04 0.485 0 0.06 0.485 0 0.08 0.485 0 0.1 0.485 0 0 0.49 0 0.02 0.49 0 0.04 0.49 0 0.06 0.49 0 0.08 0.49 0 0.1 0.49 0 0 0.495 0 0.02 0.495 0 0.04 0.495 0 0.06 0.495 0 0.08 0.495 0 0.1 0.495 0 0 0.5 0 0.02 0.5 0 0.04 0.5 0 0.06 0.5 0 0.08 0.5 0 0.1 0.5 0 0 0.505 0 0.02 0.505 0 0.04 0.505 0 0.06 0.505 0 0.08 0.505 0 0.1 0.505 0 0 0.51 0 0.02 0.51 0 0.04 0.51 0 0.06 0.51 0 0.08 0.51 0 0.1 0.51 0 0 0.515 0 0.02 0.515 0 0.04 0.515 0 0.06 0.515 0 0.08 0.515 0 0.1 0.515 0 0 0.52 0 0.02 0.52 0 0.04 0.52 0 0.06 0.52 0 0.08 0.52 0 0.1 0.52 0 0 0.525 0 0.02 0.525 0 0.04 0.525 0 0.06 0.525 0 0.08 0.525 0 0.1 0.525 0 0 0.53 0 0.02 0.53 0 0.04 0.53 0 0.06 0.53 0 0.08 0.53 0 0.1 0.53 0 0 0.535 0 0.02 0.535 0 0.04 0.535 0 0.06 0.535 0 0.08 0.535 0 0.1 0.535 0 0 0.54 0 0.02 0.54 0 0.04 0.54 0 0.06 0.54 0 0.08 0.54 0 0.1 0.54 0 0 0.545 0 0.02 0.545 0 0.04 0.545 0 0.06 0.545 0 0.08 0.545 0 0.1 0.545 0 0 0.55 0 0.02 0.55 0 0.04 0.55 0 0.06 0.55 0 0.08 0.55 0 0.1 0.55 0 0 0.555 0 0.02 0.555 0 0.04 0.555 0 0.06 0.555 0 0.08 0.555 0 0.1 0.555 0 0 0.56 0 0.02 0.56 0 0.04 0.56 0 0.06 0.56 0 0.08 0.56 0 0.1 0.56 0 0 0.565 0 0.02 0.565 0 0.04 0.565 0 0.06 0.565 0 0.08 0.565 0 0.1 0.565 0 0 0.57 0 0.02 0.57 0 0.04 0.57 0 0.06 0.57 0 0.08 0.57 0 0.1 0.57 0 0 0.575 0 0.02 0.575 0 0.04 0.575 0 0.06 0.575 0 0.08 0.575 0 0.1 0.575 0 0 0.58 0 0.02 0.58 0 0.04 0.58 0 0.06 0.58 0 0.08 0.58 0 0.1 0.58 0 0 0.585 0 0.02 0.585 0 0.04 0.585 0 0.06 0.585 0 0.08 0.585 0 0.1 0.585 0 0 0.59 0 0.02 0.59 0 0.04 0.59 0 0.06 0.59 0 0.08 0.59 0 0.1 0.59 0 0 0.595 0 0.02 0.595 0 0.04 0.595 0 0.06 0.595 0 0.08 0.595 0 0.1 0.595 0 0 0.6 0 0.02 0.6 0 0.04 0.6 0 0.06 0.6 0 0.08 0.6 0 0.1 0.6 0 0 0.605 0 0.02 0.605 0 0.04 0.605 0 0.06 0.605 0 0.08 0.605 0 0.1 0.605 0 0 0.61 0 0.02 0.61 0 0.04 0.61 0 0.06 0.61 0 0.08 0.61 0 0.1 0.61 0 0 0.615 0 0.02 0.615 0 0.04 0.615 0 0.06 0.615 0 0.08 0.615 0 0.1 0.615 0 0 0.62 0 0.02 0.62 0 0.04 0.62 0 0.06 0.62 0 0.08 0.62 0 0.1 0.62 0 0 0.625 0 0.02 0.625 0 0.04 0.625 0 0.06 0.625 0 0.08 0.625 0 0.1 0.625 0 0 0.63 0 0.02 0.63 0 0.04 0.63 0 0.06 0.63 0 0.08 0.63 0 0.1 0.63 0 0 0.635 0 0.02 0.635 0 0.04 0.635 0 0.06 0.635 0 0.08 0.635 0 0.1 0.635 0 0 0.64 0 0.02 0.64 0 0.04 0.64 0 0.06 0.64 0 0.08 0.64 0 0.1 0.64 0 0 0.645 0 0.02 0.645 0 0.04 0.645 0 0.06 0.645 0 0.08 0.645 0 0.1 0.645 0 0 0.65 0 0.02 0.65 0 0.04 0.65 0 0.06 0.65 0 0.08 0.65 0 0.1 0.65 0 0 0.655 0 0.02 0.655 0 0.04 0.655 0 0.06 0.655 0 0.08 0.655 0 0.1 0.655 0 0 0.66 0 0.02 0.66 0 0.04 0.66 0 0.06 0.66 0 0.08 0.66 0 0.1 0.66 0 0 0.665 0 0.02 0.665 0 0.04 0.665 0 0.06 0.665 0 0.08 0.665 0 0.1 0.665 0 0 0.67 0 0.02 0.67 0 0.04 0.67 0 0.06 0.67 0 0.08 0.67 0 0.1 0.67 0 0 0.675 0 0.02 0.675 0 0.04 0.675 0 0.06 0.675 0 0.08 0.675 0 0.1 0.675 0 0 0.68 0 0.02 0.68 0 0.04 0.68 0 0.06 0.68 0 0.08 0.68 0 0.1 0.68 0 0 0.685 0 0.02 0.685 0 0.04 0.685 0 0.06 0.685 0 0.08 0.685 0 0.1 0.685 0 0 0.69 0 0.02 0.69 0 0.04 0.69 0 0.06 0.69 0 0.08 0.69 0 0.1 
[...]
			<PointData Scalars="VitesseX">
				<DataArray Name="VitesseX" type="Float32" format="ascii">
 0 1.61166e-15 6.27571e-14 3.52908e-14 7.79213e-15 0 0 1.46988e-14 4.67198e-14 4.20025e-14 6.42067e-15 0 0 2.47191e-14 3.66853e-14 3.24691e-14 1.93426e-14 0 0 3.99066e-14 8.64322e-15 4.28078e-14 1.92765e-14 0 0 3.64795e-14 2.57265e-15 3.9796e-14 1.83628e-14 0 0 1.13581e-14 3.13955e-14 4.86134e-15 3.44754e-14 0 0 -3.41412e-15 5.04205e-14 -1.77882e-14 4.51921e-14 0 0 -1.60029e-15 4.32008e-14 -3.66012e-15 2.99636e-14 0 0 7.62032e-15 3.24344e-14 1.24941e-14 1.46238e-14 0 0 1.21205e-14 2.21874e-14 3.07653e-14 1.31767e-15 0 0 2.21497e-14 -4.07931e-15 7.07205e-14 -3.04226e-14 0 0 8.07061e-17 3.09692e-14 3.75514e-14 -1.85692e-14 0 0 2.06077e-14 -3.15333e-15 6.79497e-14 -3.76063e-14 0 0 -1.37028e-15 3.38381e-14 3.082e-14 -4.79562e-15 0 0 -2.18117e-14 7.8575e-14 -2.30029e-14 4.67378e-14 0 0 2.31692e-14 1.82332e-14 2.65243e-14 3.40627e-14 0 0 2.71861e-14 1.5764e-14 4.18657e-14 4.12098e-14 0 0 4.37847e-14 -3.66191e-15 8.21837e-14 3.0854e-14 0 0 2.32441e-14 4.81996e-14 4.53118e-14 5.36389e-14 0 0 1.83895e-14 9.82833e-14 -5.73231e-15 7.57482e-14 0 0 4.07767e-14 6.59706e-14 5.34541e-14 2.62897e-14 0 0 4.36118e-14 4.21758e-14 1.07929e-13 -1.83509e-14 0 0 5.53053e-14 4.42315e-14 9.57606e-14 -2.23931e-14 0 0 5.91911e-14 3.47456e-14 1.10833e-13 -4.07263e-14 0 0 2.03359e-14 7.65191e-14 8.50594e-14 -3.641e-14 0 0 -1.30229e-14 1.41442e-13 3.85674e-15 4.45345e-15 0 0 2.28797e-14 9.32587e-14 2.18004e-14 2.30856e-14 0 0 8.0852e-14 -2.10018e-14 1.53614e-13 -5.98219e-14 0 0 5.33474e-14 -1.52186e-15 1.75533e-13 -1.1584e-13 0 0 -1.06226e-15 8.30366e-14 6.21369e-14 -2.84607e-14 0 0 1.17822e-14 7.49782e-14 3.54851e-14 3.23146e-15 0 0 2.43187e-14 7.02836e-14 4.0782e-14 -1.06578e-14 0 0 2.85996e-14 6.79603e-14 3.9378e-14 -8.29369e-16 0 0 5.35854e-14 1.13462e-14 1.05965e-13 -1.1187e-14 0 0 1.35655e-14 7.0421e-14 8.76389e-14 1.72915e-14 0 0 -7.50945e-14 2.19376e-13 -3.58506e-15 7.16302e-14 0 0 -5.79505e-15 1.16804e-13 1.04818e-13 2.84772e-14 0 0 4.35149e-14 6.72904e-14 1.17403e-13 6.08228e-14 0 0 4.74615e-14 8.13046e-14 7.80039e-14 1.03889e-13 0 0 4.33233e-14 8.83878e-14 4.7665e-14 1.20905e-13 0 0 1.39596e-14 1.12482e-13 3.18254e-14 1.04631e-13 0 0 -2.86114e-14 1.2241e-13 6.72346e-14 3.54243e-14 0 0 -3.67714e-14 7.66914e-14 1.37889e-13 -2.20943e-14 0 0 -7.31964e-14 9.76399e-14 1.31299e-13 -1.41824e-14 0 0 -1.28471e-13 1.713e-13 8.47112e-14 -5.33313e-15 0 0 -5.14431e-14 5.94395e-14 2.0824e-13 -1.04599e-13 0 0 -3.43188e-15 -3.62218e-14 3.291e-13 -1.83968e-13 0 0 -2.61827e-14 -2.93314e-14 3.81777e-13 -2.08427e-13 0 0 -1.18312e-13 1.54105e-13 2.1165e-13 -9.95802e-14 0 0 -2.28152e-13 3.81297e-13 -4.47394e-14 6.12557e-14 0 0 -2.59054e-13 4.39708e-13 -1.22749e-13 1.25509e-13 0 0 -1.59755e-13 2.86247e-13 2.47738e-14 6.22722e-14 0 0 -9.72382e-14 2.51589e-13 2.04023e-14 1.08972e-13 0 0 -4.3698e-14 1.12545e-13 1.7116e-13 6.79317e-14 0 0 -1.08687e-13 1.1826e-13 2.65211e-13 3.3859e-14 0 0 -2.7702e-13 3.86491e-13 5.17382e-14 1.61192e-13 0 0 -2.10039e-13 2.81603e-13 2.21601e-13 3.82562e-14 0 0 -5.23567e-14 7.03612e-14 4.11304e-13 -5.02692e-14 0 0 -8.88942e-15 8.58422e-14 2.59713e-13 5.90155e-14 0 0 -7.70246e-14 1.93764e-13 1.30269e-13 8.75996e-14 0 0 -1.14399e-13 1.78186e-13 1.92042e-13 3.56557e-14 0 0 -1.07233e-14 -1.81353e-14 3.91496e-13 -4.70215e-14 0 0 1.84054e-14 1.37787e-14 2.98406e-13 5.33414e-14 0 0 -3.69953e-15 1.92789e-13 5.63493e-14 2.18006e-13 0 0 3.53229e-14 2.40986e-13 -4.26157e-14 2.80148e-13 0 0 5.5898e-14 2.09901e-13 1.96658e-14 2.0515e-13 0 0 1.04015e-13 7.53426e-15 3.48153e-13 -1.13634e-14 0 0 1.17905e-14 1.55391e-13 2.26817e-13 1.19241e-13 0 0 -8.01703e-14 4.30311e-13 -4.26422e-14 2.88542e-13 0 0 -4.47916e-15 2.58519e-13 2.00083e-13 8.59867e-14 0 0 -1.43303e-13 2.60037e-13 2.80371e-13 2.11019e-14 0 0 -2.13183e-13 2.26665e-13 3.56328e-13 1.07557e-14 0 0 -3.50792e-13 4.10423e-13 2.41172e-13 1.47989e-13 0 0 -2.97331e-13 2.83979e-13 4.26466e-13 9.70936e-14 0 0 -1.18494e-13 8.36833e-14 5.28903e-13 8.48555e-14 0 0 -1.71561e-13 2.35919e-13 2.72883e-13 2.10203e-13 0 0 -1.64087e-13 1.58175e-13 4.17222e-13 -2.61639e-14 0 0 -4.12986e-13 6.62552e-13 -6.27289e-14 2.31269e-13 0 0 -1.92146e-13 4.02927e-13 6.09729e-14 3.5648e-13 0 0 -3.4991e-13 4.23995e-13 2.66463e-13 2.89867e-13 0 0 -5.66792e-13 6.63177e-13 4.24107e-13 4.26522e-14 0 0 4.48838e-14 6.20197e-14 9.59836e-13 -3.67031e-13 0 0 1.95135e-13 3.20048e-13 4.39887e-13 -4.16426e-14 0 0 2.01368e-13 3.9978e-13 1.06332e-13 2.8441e-13 0 0 4.30757e-13 2.1607e-13 3.21516e-13 6.0865e-14 0 0 2.30723e-13 4.91336e-13 2.87608e-13 -1.53128e-13 0 0 1.4524e-13 6.50905e-13 1.57952e-13 -1.40482e-13 0 0 2.71593e-13 4.47495e-13 3.93301e-13 -3.26866e-13 0 0 3.81674e-13 3.09426e-13 4.3974e-13 -2.65474e-13 0 0 3.59231e-13 3.84068e-13 3.40906e-13 -5.86307e-14 0 0 2.58919e-13 6.74626e-13 1.74374e-16 3.29867e-13 0 0 3.03525e-13 6.85447e-13 -1.9276e-13 5.70511e-13 0 0 4.16652e-13 6.46547e-13 -1.64841e-13 5.49671e-13 0 0 4.93689e-13 5.20199e-13 3.38245e-15 3.97878e-13 0 0 6.60287e-13 2.23457e-13 2.94612e-13 1.62302e-13 0 0 6.57096e-13 7.02508e-14 4.80156e-13 6.19054e-14 0 0 6.23597e-13 9.46648e-14 4.80765e-13 9.72898e-14 0 0 5.45399e-13 1.79618e-13 3.98297e-13 2.14327e-13 0 0 3.72621e-13 4.16545e-13 1.97042e-13 2.84164e-13 0 0 1.70343e-13 6.96641e-13 3.4023e-14 2.82057e-13 0 0 7.22851e-14 8.23783e-13 2.86826e-14 2.1312e-13 0 0 7.87591e-14 8.14443e-13 7.57171e-14 5.98885e-14 0 0 1.2807e-13 7.104e-13 2.72787e-13 -1.02231e-13 0 0 2.26245e-13 4.57341e-13 5.05837e-13 -2.52207e-13 0 0 2.3752e-13 2.06333e-13 7.11558e-13 -3.96138e-13 0 0 2.33777e-13 1.19291e-13 6.97263e-13 -3.75188e-13 0 0 2.23142e-13 1.07529e-13 6.10761e-13 -2.502e-13 0 0 1.3309e-13 1.52562e-13 5.1621e-13 -1.70402e-13 0 0 -1.34989e-14 2.61223e-13 4.38165e-13 -1.35315e-13 0 0 -4.18679e-14 2.64661e-13 4.1815e-13 -9.4972e-14 0 0 -1.95322e-14 2.16107e-13 4.1841e-13 -5.38535e-15 0 0 3.34571e-14 1.98079e-13 3.86548e-13 1.29319e-13 0 0 1.90672e-14 2.622e-13 2.57746e-13 2.54684e-13 0 0 -2.77084e-14 4.67015e-13 7.60936e-14 3.06621e-13 0 0 -2.66647e-14 5.39672e-13 -1.15185e-14 3.57408e-13 0 0 1.5929e-14 5.34471e-13 -3.08494e-14 4.0527e-13 0 0 1.10604e-13 4.07109e-13 6.11769e-14 3.61949e-13 0 0 1.65396e-13 2.01179e-13 3.30054e-13 2.35389e-13 0 0 1.7184e-13 7.97151e-14 3.28139e-13 2.7798e-13 0 0 1.81173e-13 4.34261e-14 2.91392e-13 4.03519e-13 0 0 1.54975e-13 1.30937e-14 3.13325e-13 3.87799e-13 0 0 7.76429e-14 8.3499e-14 3.24071e-13 3.55923e-13 0 0 8.12991e-14 1.85689e-13 3.15348e-13 2.46885e-13 0 0 9.33424e-14 2.27416e-13 3.18508e-13 1.51329e-13 0 0 1.12136e-13 2.1493e-13 3.54072e-13 6.7195e-14 0 0 1.08354e-13 2.70231e-13 2.79515e-13 1.01506e-13 0 0 9.75658e-14 3.14887e-13 2.24605e-13 1.62266e-13 0 0 1.06943e-13 2.85044e-13 2.54304e-13 1.05106e-13 0 0 1.11904e-13 2.70191e-13 2.44069e-13 5.5349e-14 0 0 1.28952e-13 2.80344e-13 1.35608e-13 1.63423e-13 0 0 1.16054e-13 2.74746e-13 1.55484e-13 1.66629e-13 0 0 1.15279e-13 2.71832e-13 2.04551e-13 1.97613e-13 0 0 8.78593e-14 3.32404e-13 2.28946e-13 1.64171e-13 0 0 4.43094e-14 3.56598e-13 3.78474e-13 1.09184e-13 0 0 1.19892e-13 2.73007e-13 5.5045e-13 8.04171e-14 0 0 2.08232e-13 2.71148e-13 5.77161e-13 4.1125e-14 0 0 1.81112e-13 4.0199e-13 4.77655e-13 1.11534e-13 0 0 1.64389e-13 5.56774e-13 3.22977e-13 1.85133e-13 0 0 2.78823e-13 4.57129e-13 3.79562e-13 2.26023e-13 0 0 3.19983e-13 4.09709e-13 4.27827e-13 1.61422e-13 0 0 3.46591e-13 3.98397e-13 4.26485e-13 1.1742e-13 0 0 3.78993e-13 3.34759e-13 5.09516e-13 5.5992e-14 0 0 2.35632e-13 5.39067e-13 2.81262e-13 1.55811e-13 0 0 1.79038e-13 6.33922e-13 1.01537e-13 2.68443e-13 0 0 3.32988e-13 3.53281e-13 3.63758e-13 1.95591e-13 0 0 3.77475e-13 2.70653e-13 4.42027e-13 1.64921e-13 0 0 3.0738e-13 3.96772e-13 2.99677e-13 2.17831e-13 0 0 1.96813e-13 5.91551e-13 9.59421e-14 3.38129e-13 0 0 1.70225e-13 6.10215e-13 8.31771e-14 3.41372e-13 0 0 3.74608e-13 2.17152e-13 5.23241e-13 4.73603e-14 0 0 3.51562e-13 2.15323e-13 5.3376e-13 -3.34527e-14 0 0 1.38703e-13 5.23495e-13 2.0906e-13 1.6144e-13 0 0 1.44173e-13 5.84942e-13 1.26808e-13 2.47733e-13 0 0 3.41856e-13 4.5009e-13 1.70422e-13 3.36027e-13 0 0 5.35681e-13 2.31932e-13 4.00838e-13 3.64162e-13 0 0 4.74754e-13 3.11248e-13 5.65862e-13 2.72603e-13 0 0 1.66479e-13 8.04231e-13 3.62345e-13 3.49068e-13 0 0 1.30661e-13 1.05187e-12 7.66505e-14 6.00936e-13 0 0 3.49165e-13 9.23869e-13 6.37245e-14 6.31213e-13 0 0 6.03882e-13 6.04083e-13 4.06823e-13 4.26187e-13 0 0 6.56021e-13 5.43132e-13 6.3422e-13 1.73513e-13 0 0 2.67206e-13 1.08067e-12 2.35748e-13 4.45577e-13 0 0 8.51279e-14 1.31736e-12 6.05793e-14 6.06547e-13 0 0 3.15225e-13 9.52109e-13 4.963e-13 1.44161e-13 0 0 4.83929e-13 6.86346e-13 8.0345e-13 -1.78771e-13 0 0 4.99575e-13 7.56314e-13 5.61906e-13 1.15316e-13 0 0 4.08279e-13 7.9545e-13 4.62517e-13 2.58349e-13 0 0 3.33259e-13 7.91482e-13 5.62055e-13 8.74061e-14 0 0 4.2625e-13 6.5744e-13 6.03319e-13 1.19459e-13 0 0 4.72886e-13 6.04002e-13 5.53664e-13 1.9138e-13 0 0 4.80004e-13 5.65973e-13 6.68846e-13 7.79063e-14 0 0 5.65567e-13 3.6934e-13 8.93149e-13 4.8002e-14 0 0 4.50725e-13 6.12938e-13 5.09901e-13 4.11072e-13 0 0 2.70107e-13 8.1288e-13 4.27439e-13 3.83591e-13 0 0 1.98434e-13 7.90026e-13 5.37219e-13 2.82388e-13 0 0 3.91455e-13 6.04754e-13 5.67226e-13 3.18716e-13 0 0 6.23998e-13 4.68894e-13 6.14638e-13 2.37993e-13 0 0 4.36386e-13 6.86932e-13 5.65284e-13 4.63716e-14 0 0 3.24024e-13 6.48529e-13 8.29956e-13 -3.04866e-13 0 0 1.49537e-13 8.54215e-13 7.13833e-13 -1.5038e-13 0 0 1.42028e-13 8.53072e-13 6.19378e-13 1.47461e-13 0 0 4.13951e-13 4.63689e-13 7.26769e-13 2.0584e-13 0 0 2.64475e-13 7.30183e-13 3.9084e-13 3.9539e-13 0 0 2.56963e-13 8.42839e-13 2.19399e-13 4.71378e-13 0 0 5.60124e-13 4.39474e-13 4.44524e-13 3.45767e-13 0 0 6.02569e-13 4.07697e-13 4.00701e-13 4.86722e-13 0 0 6.43185e-13 3.77813e-13 4.62324e-13 5.03619e-13 0 0 6.8088e-13 2.7004e-13 6.5159e-13 3.44454e-13 0 0 5.15084e-13 5.04131e-13 5.28129e-13 3.82949e-13 0 0 9.807e-14 1.09185e-12 2.29365e-13 4.56731e-13 0 0 3.1235e-13 6.56552e-13 7.37125e-13 2.54702e-13 0 0 6.28896e-13 1.3384e-13 1.15303e-12 7.24174e-14 0 0 9.78156e-14 1.0173e-12 2.91968e-13 4.74399e-13 0 0 -5.60306e-14 1.37053e-12 -1.48383e-13 7.6456e-13 0 0 4.01203e-13 5.8452e-13 4.67632e-13 5.58765e-13 0 0 7.03962e-13 1.15216e-14 1.00245e-12 3.28935e-13 0 0 3.50963e-13 5.77727e-13 6.0184e-13 4.34652e-13 0 0 -1.45009e-13 1.28818e-12 -7.1339e-14 8.89587e-13 0 0 9.36956e-14 8.55111e-13 1.68767e-13 8.87504e-13 0 0 8.06328e-13 -2.60758e-13 1.00687e-12 4.85273e-13 0 0 1.15148e-12 -7.84403e-13 1.3372e-12 4.16546e-13 0
				</DataArray>
				<DataArray Name="VitesseY" type="Float32" format="ascii">