<?xml version="1.0"?>
<VTKFile type="PolyData">
	<PolyData>
		<Piece NumberOfPoints="1206" NumberOfPolys="1000">
			<Points>
				<DataArray type="Float32" NumberOfComponents="3" format="ascii">
 0 0 0 0.02 0 0 0.04 0 0 0.06 0 0 0.08 0 0 0.1 0 0 0 0.005 0 0.02 0.005 0 0.04 0.005 0 0.06 0.005 0 0.08 0.005 0 0.1 0.005 0 0 0.01 0 0.02 0.01 0 0.04 0.01 0 0.06 0.01 0 0.08 0.01 0 0.1 0.01 0 0 0.015 0 0.02 0.015 0 0.04 0.015 0 0.06 0.015 0 0.08 0.015 0 0.1 0.015 0 0 0.02 0 0.02 0.02 0 0.04 0.02 0 0.06 0.02 0 0.08 0.02 0 0.1 0.02 0 0 0.025 0 0.02 0.025 0 0.04 0.025 0 0.06 0.025 0 0.08 0.025 0 0.1 0.025 0 0 0.03 0 0.02 0.03 0 0.04 0.03 0 0.06 0.03 0 0.08 0.03 0 0.1 0.03 0 0 0.035 0 0.02 0.035 0 0.04 0.035 0 0.06 0.035 0 0.08 0.035 0 0.1 0.035 0 0 0.04 0 0.02 0.04 0 0.04 0.04 0 0.06 0.04 0 0.08 0.04 0 0.1 0.04 0 0 0.045 0 0.02 0.045 0 0.04 0.045 0 0.06 0.045 0 0.08 0.045 0 0.1 0.045 0 0 0.05 0 0.02 0.05 0 0.04 0.05 0 0.06 0.05 0 0.08 0.05 0 0.1 0.05 0 0 0.055 0 0.02 0.055 0 0.04 0.055 0 0.06 0.055 0 0.08 0.055 0 0.1 0.055 0 0 0.06 0 0.02 0.06 0 0.04 0.06 0 0.06 0.06 0 0.08 0.06 0 0.1 0.06 0 0 0.065 0 0.02 0.065 0 0.04 0.065 0 0.06 0.065 0 0.08 0.065 0 0.1 0.065 0 0 0.07 0 0.02 0.07 0 0.04 0.07 0 0.06 0.07 0 0.08 0.07 0 0.1 0.07 0 0 0.075 0 0.02 0.075 0 0.04 0.075 0 0.06 0.075 0 0.08 0.075 0 0.1 0.075 0 0 0.08 0 0.02 0.08 0 0.04 0.08 0 0.06 0.08 0 0.08 0.08 0 0.1 0.08 0 0 0.085 0 0.02 0.085 0 0.04 0.085 0 0.06 0.085 0 0.08 0.085 0 0.1 0.085 0 0 0.09 0 0.02 0.09 0 0.04 0.09 0 0.06 0.09 0 0.08 0.09 0 0.1 0.09 0 0 0.095 0 0.02 0.095 0 0.04 0.095 0 0.06 0.095 0 0.08 0.095 0 0.1 0.095 0 0 0.1 0 0.02 0.1 0 0.04 0.1 0 0.06 0.1 0 0.08 0.1 0 0.1 0.1 0 0 0.105 0 0.02 0.105 0 0.04 0.105 0 0.06 0.105 0 0.08 0.105 0 0.1 0.105 0 0 0.11 0 0.02 0.11 0 0.04 0.11 0 0.06 0.11 0 0.08 0.11 0 0.1 0.11 0 0 0.115 0 0.02 0.115 0 0.04 0.115 0 0.06 0.115 0 0.08 0.115 0 0.1 0.115 0 0 0.12 0 0.02 0.12 0 0.04 0.12 0 0.06 0.12 0 0.08 0.12 0 0.1 0.12 0 0 0.125 0 0.02 0.125 0 0.04 0.125 0 0.06 0.125 0 0.08 0.125 0 0.1 0.125 0 0 0.13 0 0.02 0.13 0 0.04 0.13 0 0.06 0.13 0 0.08 0.13 0 0.1 0.13 0 0 0.135 0 0.02 0.135 0 0.04 0.135 0 0.06 0.135 0 0.08 0.135 0 0.1 0.135 0 0 0.14 0 0.02 0.14 0 0.04 0.14 0 0.06 0.14 0 0.08 0.14 0 0.1 0.14 0 0 0.145 0 0.02 0.145 0 0.04 0.145 0 0.06 0.145 0 0.08 0.145 0 0.1 0.145 0 0 0.15 0 0.02 0.15 0 0.04 0.15 0 0.06 0.15 0 0.08 0.15 0 0.1 0.15 0 0 0.155 0 0.02 0.155 0 0.04 0.155 0 0.06 0.155 0 0.08 0.155 0 0.1 0.155 0 0 0.16 0 0.02 0.16 0 0.04 0.16 0 0.06 0.16 0 0.08 0.16 0 0.1 0.16 0 0 0.165 0 0.02 0.165 0 0.04 0.165 0 0.06 0.165 0 0.08 0.165 0 0.1 0.165 0 0 0.17 0 0.02 0.17 0 0.04 0.17 0 0.06 0.17 0 0.08 0.17 0 0.1 0.17 0 0 0.175 0 0.02 0.175 0 0.04 0.175 0 0.06 0.175 0 0.08 0.175 0 0.1 0.175 0 0 0.18 0 0.02 0.18 0 0.04 0.18 0 0.06 0.18 0 0.08 0.18 0 0.1 0.18 0 0 0.185 0 0.02 0.185 0 0.04 0.185 0 0.06 0.185 0 0.08 0.185 0 0.1 0.185 0 0 0.19 0 0.02 0.19 0 0.04 0.19 0 0.06 0.19 0 0.08 0.19 0 0.1 0.19 0 0 0.195 0 0.02 0.195 0 0.04 0.195 0 0.06 0.195 0 0.08 0.195 0 0.1 0.195 0 0 0.2 0 0.02 0.2 0 0.04 0.2 0 0.06 0.2 0 0.08 0.2 0 0.1 0.2 0 0 0.205 0 0.02 0.205 0 0.04 0.205 0 0.06 0.205 0 0.08 0.205 0 0.1 0.205 0 0 0.21 0 0.02 0.21 0 0.04 0.21 0 0.06 0.21 0 0.08 0.21 0 0.1 0.21 0 0 0.215 0 0.02 0.215 0 0.04 0.215 0 0.06 0.215 0 0.08 0.215 0 0.1 0.215 0 0 0.22 0 0.02 0.22 0 0.04 0.22 0 0.06 0.22 0 0.08 0.22 0 0.1 0.22 0 0 0.225 0 0.02 0.225 0 0.04 0.225 0 0.06 0.225 0 0.08 0.225 0 0.1 0.225 0 0 0.23 0 0.02 0.23 0 0.04 0.23 0 0.06 0.23 0 0.08 0.23 0 0.1 0.23 0 0 0.235 0 0.02 0.235 0 0.04 0.235 0 0.06 0.235 0 0.08 0.235 0 0.1 0.235 0 0 0.24 0 0.02 0.24 0 0.04 0.24 0 0.06 0.24 0 0.08 0.24 0 0.1 0.24 0 0 0.245 0 0.02 0.245 0 0.04 0.245 0 0.06 0.245 0 0.08 0.245 0 0.1 0.245 0 0 0.25 0 0.02 0.25 0 0.04 0.25 0 0.06 0.25 0 0.08 0.25 0 0.1 0.25 0 0 0.255 0 0.02 0.255 0 0.04 0.255 0 0.06 0.255 0 0.08 0.255 0 0.1 0.255 0 0 0.26 0 0.02 0.26 0 0.04 0.26 0 0.06 0.26 0 0.08 0.26 0 0.1 0.26 0 0 0.265 0 0.02 0.265 0 0.04 0.265 0 0.06 0.265 0 0.08 0.265 0 0.1 0.265 0 0 0.27 0 0.02 0.27 0 0.04 0.27 0 0.06 0.27 0 0.08 0.27 0 0.1 0.27 0 0 0.275 0 0.02 0.275 0 0.04 0.275 0 0.06 0.275 0 0.08 0.275 0 0.1 0.275 0 0 0.28 0 0.02 0.28 0 0.04 0.28 0 0.06 0.28 0 0.08 0.28 0 0.1 0.28 0 0 0.285 0 0.02 0.285 0 0.04 0.285 0 0.06 0.285 0 0.08 0.285 0 0.1 0.285 0 0 0.29 0 0.02 0.29 0 0.04 0.29 0 0.06 0.29 0 0.08 0.29 0 0.1 0.29 0 0 0.295 0 0.02 0.295 0 0.04 0.295 0 0.06 0.295 0 0.08 0.295 0 0.1 0.295 0 0 0.3 0 0.02 0.3 0 0.04 0.3 0 0.06 0.3 0 0.08 0.3 0 0.1 0.3 0 0 0.305 0 0.02 0.305 0 0.04 0.305 0 0.06 0.305 0 0.08 0.305 0 0.1 0.305 0 0 0.31 0 0.02 0.31 0 0.04 0.31 0 0.06 0.31 0 0.08 0.31 0 0.1 0.31 0 0 0.315 0 0.02 0.315 0 0.04 0.315 0 0.06 0.315 0 0.08 0.315 0 0.1 0.315 0 0 0.32 0 0.02 0.32 0 0.04 0.32 0 0.06 0.32 0 0.08 0.32 0 0.1 0.32 0 0 0.325 0 0.02 0.325 0 0.04 0.325 0 0.06 0.325 0 0.08 0.325 0 0.1 0.325 0 0 0.33 0 0.02 0.33 0 0.04 0.33 0 0.06 0.33 0 0.08 0.33 0 0.1 0.33 0 0 0.335 0 0.02 0.335 0 0.04 0.335 0 0.06 0.335 0 0.08 0.335 0 0.1 0.335 0 0 0.34 0 0.02 0.34 0 0.04 0.34 0 0.06 0.34 0 0.08 0.34 0 0.1 0.34 0 0 0.345 0 0.02 0.345 0 0.04 0.345 0 0.06 0.345 0 0.08 0.345 0 0.1 0.345 0 0 0.35 0 0.02 0.35 0 0.04 0.35 0 0.06 0.35 0 0.08 0.35 0 0.1 0.35 0 0 0.355 0 0.02 0.355 0 0.04 0.355 0 0.06 0.355 0 0.08 0.355 0 0.1 0.355 0 0 0.36 0 0.02 0.36 0 0.04 0.36 0 0.06 0.36 0 0.08 0.36 0 0.1 0.36 0 0 0.365 0 0.02 0.365 0 0.04 0.365 0 0.06 0.365 0 0.08 0.365 0 0.1 0.365 0 0 0.37 0 0.02 0.37 0 0.04 0.37 0 0.06 0.37 0 0.08 0.37 0 0.1 0.37 0 0 0.375 0 0.02 0.375 0 0.04 0.375 0 0.06 0.375 0 0.08 0.375 0 0.1 0.375 0 0 0.38 0 0.02 0.38 0 0.04 0.38 0 0.06 0.38 0 0.08 0.38 0 0.1 0.38 0 0 0.385 0 0.02 0.385 0 0.04 0.385 0 0.06 0.385 0 0.08 0.385 0 0.1 0.385 0 0 0.39 0 0.02 0.39 0 0.04 0.39 0 0.06 0.39 0 0.08 0.39 0 0.1 0.39 0 0 0.395 0 0.02 0.395 0 0.04 0.395 0 0.06 0.395 0 0.08 0.395 0 0.1 0.395 0 0 0.4 0 0.02 0.4 0 0.04 0.4 0 0.06 0.4 0 0.08 0.4 0 0.1 0.4 0 0 0.405 0 0.02 0.405 0 0.04 0.405 0 0.06 0.405 0 0.08 0.405 0 0.1 0.405 0 0 0.41 0 0.02 0.41 0 0.04 0.41 0 0.06 0.41 0 0.08 0.41 0 0.1 0.41 0 0 0.415 0 0.02 0.415 0 0.04 0.415 0 0.06 0.415 0 0.08 0.415 0 0.1 0.415 0 0 0.42 0 0.02 0.42 0 0.04 0.42 0 0.06 0.42 0 0.08 0.42 0 0.1 0.42 0 0 0.425 0 0.02 0.425 0 0.04 0.425 0 0.06 0.425 0 0.08 0.425 0 0.1 0.425 0 0 0.43 0 0.02 0.43 0 0.04 0.43 0 0.06 0.43 0 0.08 0.43 0 0.1 0.43 0 0 0.435 0 0.02 0.435 0 0.04 0.435 0 0.06 0.435 0 0.08 0.435 0 0.1 0.435 0 0 0.44 0 0.02 0.44 0 0.04 0.44 0 0.06 0.44 0 0.08 0.44 0 0.1 0.44 0 0 0.445 0 0.02 0.445 0 0.04 0.445 0 0.06 0.445 0 0.08 0.445 0 0.1 0.445 0 0 0.45 0 0.02 0.45 0 0.04 0.45 0 0.06 0.45 0 0.08 0.45 0 0.1 0.45 0 0 0.455 0 0.02 0.455 0 0.04 0.455 0 0.06 0.455 0 0.08 0.455 0 0.1 0.455 0 0 0.46 0 0.02 0.46 0 0.04 0.46 0 0.06 0.46 0 0.08 0.46 0 0.1 0.46 0 0 0.465 0 0.02 0.465 0 0.04 0.465 0 0.06 0.465 0 0.08 0.465 0 0.1 0.465 0 0 0.47 0 0.02 0.47 0 0.04 0.47 0 0.06 0.47 0 0.08 0.47 0 0.1 0.47 0 0 0.475 0 0.02 0.475 0 0.04 0.475 0 0.06 0.475 0 0.08 0.475 0 0.1 0.475 0 0 0.48 0 0.02 0.48 0 0.04 0.48 0 0.06 0.48 0 0.08 0.48 0 0.1 0.48 0 0 0.485 0 0.02 0.485 0 0.04 0.485 0 0.06 0.485 0 0.08 0.485 0 0.1 0.485 0 0 0.49 0 0.02 0.49 0 0.04 0.49 0 0.06 0.49 0 0.08 0.49 0 0.1 0.49 0 0 0.495 0 0.02 0.495 0 0.04 0.495 0 0.06 0.495 0 0.08 0.495 0 0.1 0.495 0 0 0.5 0 0.02 0.5 0 0.04 0.5 0 0.06 0.5 0 0.08 0.5 0 0.1 0.5 0 0 0.505 0 0.02 0.505 0 0.04 0.505 0 0.06 0.505 0 0.08 0.505 0 0.1 0.505 0 0 0.51 0 0.02 0.51 0 0.04 0.51 0 0.06 0.51 0 0.08 0.51 0 0.1 0.51 0 0 0.515 0 0.02 0.515 0 0.04 0.515 0 0.06 0.515 0 0.08 0.515 0 0.1 0.515 0 0 0.52 0 0.02 0.52 0 0.04 0.52 0 0.06 0.52 0 0.08 0.52 0 0.1 0.52 0 0 0.525 0 0.02 0.525 0 0.04 0.525 0 0.06 0.525 0 0.08 0.525 0 0.1 0.525 0 0 0.53 0 0.02 0.53 0 0.04 0.53 0 0.06 0.53 0 0.08 0.53 0 0.1 0.53 0 0 0.535 0 0.02 0.535 0 0.04 0.535 0 0.06 0.535 0 0.08 0.535 0 0.1 0.535 0 0 0.54 0 0.02 0.54 0 0.04 0.54 0 0.06 0.54 0 0.08 0.54 0 0.1 0.54 0 0 0.545 0 0.02 0.545 0 0.04 0.545 0 0.06 0.545 0 0.08 0.545 0 0.1 0.545 0 0 0.55 0 0.02 0.55 0 0.04 0.55 0 0.06 0.55 0 0.08 0.55 0 0.1 0.55 0 0 0.555 0 0.02 0.555 0 0.04 0.555 0 0.06 0.555 0 0.08 0.555 0 0.1 0.555 0 0 0.56 0 0.02 0.56 0 0.04 0.56 0 0.06 0.56 0 0.08 0.56 0 0.1 0.56 0 0 0.565 0 0.02 0.565 0 0.04 0.565 0 0.06 0.565 0 0.08 0.565 0 0.1 0.565 0 0 0.57 0 0.02 0.57 0 0.04 0.57 0 0.06 0.57 0 0.08 0.57 0 0.1 0.57 0 0 0.575 0 0.02 0.575 0 0.04 0.575 0 0.06 0.575 0 0.08 0.575 0 0.1 0.575 0 0 0.58 0 0.02 0.58 0 0.04 0.58 0 0.06 0.58 0 0.08 0.58 0 0.1 0.58 0 0 0.585 0 0.02 0.585 0 0.04 0.585 0 0.06 0.585 0 0.08 0.585 0 0.1 0.585 0 0 0.59 0 0.02 0.59 0 0.04 0.59 0 0.06 0.59 0 0.08 0.59 0 0.1 0.59 0 0 0.595 0 0.02 0.595 0 0.04 0.595 0 0.06 0.595 0 0.08 0.595 0 0.1 0.595 0 0 0.6 0 0.02 0.6 0 0.04 0.6 0 0.06 0.6 0 0.08 0.6 0 0.1 0.6 0 0 0.605 0 0.02 0.605 0 0.04 0.605 0 0.06 0.605 0 0.08 0.605 0 0.1 0.605 0 0 0.61 0 0.02 0.61 0 0.04 0.61 0 0.06 0.61 0 0.08 0.61 0 0.1 0.61 0 0 0.615 0 0.02 0.615 0 0.04 0.615 0 0.06 0.615 0 0.08 0.615 0 0.1 0.615 0 0 0.62 0 0.02 0.62 0 0.04 0.62 0 0.06 0.62 0 0.08 0.62 0 0.1 0.62 0 0 0.625 0 0.02 0.625 0 0.04 0.625 0 0.06 0.625 0 0.08 0.625 0 0.1 0.625 0 0 0.63 0 0.02 0.63 0 0.04 0.63 0 0.06 0.63 0 0.08 0.63 0 0.1 0.63 0 0 0.635 0 0.02 0.635 0 0.04 0.635 0 0.06 0.635 0 0.08 0.635 0 0.1 0.635 0 0 0.64 0 0.02 0.64 0 0.04 0.64 0 0.06 0.64 0 0.08 0.64 0 0.1 0.64 0 0 0.645 0 0.02 0.645 0 0.04 0.645 0 0.06 0.645 0 0.08 0.645 0 0.1 0.645 0 0 0.65 0 0.02 0.65 0 0.04 0.65 0 0.06 0.65 0 0.08 0.65 0 0.1 0.65 0 0 0.655 0 0.02 0.655 0 0.04 0.655 0 0.06 0.655 0 0.08 0.655 0 0.1 0.655 0 0 0.66 0 0.02 0.66 0 0.04 0.66 0 0.06 0.66 0 0.08 0.66 0 0.1 0.66 0 0 0.665 0 0.02 0.665 0 0.04 0.665 0 0.06 0.665 0 0.08 0.665 0 0.1 0.665 0 0 0.67 0 0.02 0.67 0 0.04 0.67 0 0.06 0.67 0 0.08 0.67 0 0.1 0.67 0 0 0.675 0 0.02 0.675 0 0.04 0.675 0 0.06 0.675 0 0.08 0.675 0 0.1 0.675 0 0 0.68 0 0.02 0.68 0 0.04 0.68 0 0.06 0.68 0 0.08 0.68 0 0.1 0.68 0 0 0.685 0 0.02 0.685 0 0.04 0.685 0 0.06 0.685 0 0.08 0.685 0 0.1 0.685 0 0 0.69 0 0.02 0.69 0 0.04 0.69 0 0.06 0.69 0 0.08 0.69 0 0.1 
[...]
			<PointData Scalars="VitesseX">
				<DataArray Name="VitesseX" type="Float32" format="ascii">
 0 -1.64911e-14 -1.51963e-14 -1.52817e-14 -2.09058e-14 0 0 -1.61528e-14 -1.63291e-14 -1.52238e-14 -1.83753e-14 0 0 -1.51892e-14 -2.00887e-14 -1.56195e-14 -1.41653e-14 0 0 -1.25967e-14 -2.83426e-14 -1.3144e-14 -9.29884e-15 0 0 -1.21214e-14 -3.53763e-14 -9.06903e-15 -8.24498e-15 0 0 -1.5173e-14 -3.07224e-14 -2.40505e-14 3.10463e-15 0 0 -1.64718e-14 -2.73365e-14 -3.38272e-14 1.06113e-14 0 0 -1.73839e-14 -2.01667e-14 -4.41669e-14 1.30425e-14 0 0 -1.84266e-14 -2.22474e-14 -3.74798e-14 2.76388e-15 0 0 -1.76307e-14 -3.31343e-14 -6.93835e-15 -2.34339e-14 0 0 -2.63758e-14 -2.24984e-14 -1.83529e-15 -2.51046e-14 0 0 -3.44213e-14 -8.26279e-15 -1.54464e-14 -5.58851e-15 0 0 -1.72895e-14 -2.43606e-14 1.3693e-15 -1.0965e-14 0 0 -5.87182e-15 -2.7685e-14 8.73789e-15 -2.27406e-14 0 0 -1.20987e-14 -8.59294e-15 -1.38431e-14 -1.40732e-14 0 0 -2.09876e-14 5.38729e-16 -1.70135e-14 -2.06379e-14 0 0 -2.89912e-14 2.36151e-14 -4.47256e-14 -7.17831e-15 0 0 -6.15008e-15 -9.1547e-16 -1.48936e-14 -2.64704e-14 0 0 -4.77775e-15 -1.27048e-14 5.31464e-15 -3.28774e-14 0 0 -2.58016e-14 1.72798e-15 -2.76202e-14 3.41796e-16 0 0 -6.55223e-15 -3.08777e-14 -3.7434e-14 1.54967e-14 0 0 -3.64924e-15 -3.67181e-14 -4.43954e-14 1.81579e-14 0 0 6.97977e-15 -6.53436e-14 2.80342e-15 -1.83619e-14 0 0 -3.43546e-15 -4.06691e-14 -7.31049e-15 -2.81512e-14 0 0 -1.40896e-14 -9.37761e-15 -1.28092e-14 -5.10943e-14 0 0 3.81395e-15 -2.62074e-14 1.03235e-14 -7.83941e-14 0 0 6.86244e-14 -1.04537e-13 4.99962e-14 -7.33604e-14 0 0 8.88771e-14 -1.04821e-13 2.50194e-14 -2.95511e-14 0 0 3.63678e-15 3.05673e-14 -9.31862e-14 3.09413e-14 0 0 -3.27873e-14 7.49716e-14 -1.06866e-13 1.0232e-14 0 0 -9.0225e-15 3.33357e-14 -5.07591e-14 -5.69782e-14 0 0 -1.99015e-14 9.03626e-15 -2.69361e-14 -7.8538e-14 0 0 -3.53123e-14 1.84615e-15 -3.06551e-14 -6.02894e-14 0 0 1.38321e-14 -7.33377e-14 1.07268e-14 -4.22842e-14 0 0 -2.31301e-14 -3.62059e-14 -1.96824e-14 2.05788e-14 0 0 -1.54385e-14 -4.69382e-14 -3.69106e-14 6.60433e-14 0 0 -2.57224e-14 -4.57972e-14 -3.82164e-14 5.52324e-14 0 0 -3.41944e-14 -6.68988e-14 3.05401e-14 -1.92258e-14 0 0 -5.41988e-14 -3.0351e-14 1.04056e-14 -3.58177e-14 0 0 -1.02454e-13 3.56746e-14 -3.70877e-14 -3.78077e-14 0 0 -7.79916e-15 -9.75392e-14 9.7427e-14 -1.13299e-13 0 0 1.63985e-14 -9.1456e-14 7.18089e-14 -8.30695e-14 0 0 -8.59139e-15 -4.19627e-15 -6.16868e-14 4.15288e-14 0 0 -1.60711e-14 -2.89886e-14 -6.2277e-14 1.13599e-13 0 0 -6.50099e-14 -6.52813e-14 7.36108e-17 9.67842e-14 0 0 -4.95019e-14 -1.03209e-13 1.51165e-14 5.72845e-14 0 0 -3.50283e-14 -5.50128e-14 -1.03438e-13 1.05023e-13 0 0 -9.6891e-15 -5.0976e-14 -1.90118e-13 1.73539e-13 0 0 5.19629e-14 -2.1554e-13 -5.49576e-14 8.64174e-14 0 0 -4.97969e-14 -9.4377e-14 -1.23605e-13 7.19228e-14 0 0 -8.30723e-14 1.11131e-14 -2.44985e-13 9.72032e-14 0 0 -6.72629e-14 -8.42241e-14 -9.25554e-14 -2.99994e-14 0 0 6.24501e-14 -2.68684e-13 7.57679e-14 -1.00223e-13 0 0 2.11325e-13 -3.91456e-13 1.26866e-15 -7.21053e-15 0 0 1.19906e-13 -2.83837e-13 -1.61916e-13 5.94076e-14 0 0 -6.23208e-14 -5.32461e-14 -3.27914e-13 6.45267e-14 0 0 -9.86529e-14 -1.90037e-14 -2.76942e-13 -3.05764e-14 0 0 1.44908e-14 -2.18005e-13 -2.66149e-14 -1.34414e-13 0 0 -3.29996e-14 -1.11035e-13 -1.31722e-13 -2.10436e-14 0 0 -1.08378e-13 2.08371e-14 -2.57115e-13 6.95264e-14 0 0 -7.76953e-14 -1.42703e-13 -9.17583e-14 2.24739e-14 0 0 -6.49814e-14 -3.10356e-13 1.09543e-14 3.33137e-14 0 0 -5.16816e-14 -4.06046e-13 7.48892e-14 6.87933e-14 0 0 -1.38085e-13 -3.39604e-13 -1.0637e-15 1.09596e-13 0 0 -3.15836e-13 -1.64485e-13 -1.34965e-13 1.19788e-13 0 0 -3.2023e-13 -1.61453e-13 -1.233e-13 1.16215e-14 0 0 -2.37856e-13 -2.68197e-13 -5.05423e-14 -1.19314e-13 0 0 -6.41882e-14 -4.16673e-13 -6.90854e-14 -8.62884e-14 0 0 -8.7157e-14 -3.88531e-13 -1.72047e-13 3.2466e-14 0 0 -1.84997e-13 -2.68464e-13 -3.2162e-13 1.90959e-13 0 0 -2.68008e-13 -2.58177e-13 -3.00141e-13 1.78527e-13 0 0 -2.61878e-13 -3.05241e-13 -1.82472e-13 9.04587e-14 0 0 -2.4229e-13 -3.99126e-13 -1.53122e-13 5.97498e-14 0 0 -2.50393e-13 -3.80762e-13 -1.82742e-13 7.6318e-14 0 0 -2.88464e-13 -3.35233e-13 -2.6552e-13 1.87572e-13 0 0 -3.03699e-13 -2.93426e-13 -4.124e-13 2.24749e-13 0 0 -2.92051e-13 -2.63895e-13 -4.42078e-13 1.95187e-13 0 0 -2.49097e-13 -2.32583e-13 -4.25136e-13 1.03534e-13 0 0 -1.8577e-13 -2.36224e-13 -3.56084e-13 -1.15652e-14 0 0 -1.10604e-13 -2.52822e-13 -2.736e-13 -7.71205e-15 0 0 -1.24007e-14 -3.04266e-13 -2.08842e-13 3.41354e-14 0 0 7.51309e-14 -3.36576e-13 -1.9463e-13 1.571e-13 0 0 1.29212e-13 -3.22864e-13 -2.19174e-13 2.90253e-13 0 0 1.42553e-13 -2.89534e-13 -2.734e-13 3.10022e-13 0 0 1.36942e-13 -2.60683e-13 -3.26273e-13 3.06009e-13 0 0 1.54678e-13 -2.56905e-13 -3.31621e-13 2.85199e-13 0 0 2.00184e-13 -2.69669e-13 -2.91639e-13 2.0176e-13 0 0 1.96344e-13 -2.73946e-13 -1.88602e-13 5.04388e-14 0 0 1.80924e-13 -2.6586e-13 -1.17052e-13 -5.57263e-14 0 0 1.36151e-13 -2.28208e-13 -1.10537e-13 -6.96522e-14 0 0 6.38741e-14 -1.72884e-13 -1.46823e-13 -9.05815e-14 0 0 -8.20328e-15 -1.19873e-13 -1.76679e-13 -1.11847e-13 0 0 -4.35104e-14 -9.13013e-14 -1.95836e-13 -9.70072e-14 0 0 -4.48384e-14 -7.57408e-14 -2.44461e-13 -3.84399e-14 0 0 -4.11389e-14 -7.22842e-14 -2.8824e-13 2.73418e-14 0 0 -2.69732e-14 -7.308e-14 -3.25064e-13 8.91376e-14 0 0 -6.45153e-15 -7.82693e-14 -3.64304e-13 1.20075e-13 0 0 1.18208e-14 -8.59798e-14 -3.93538e-13 1.16282e-13 0 0 2.57469e-14 -1.0955e-13 -3.89067e-13 9.4708e-14 0 0 5.03252e-14 -1.60882e-13 -3.68099e-13 4.68442e-14 0 0 8.83843e-14 -2.12458e-13 -3.38265e-13 -1.35268e-14 0 0 1.26086e-13 -2.56913e-13 -3.35916e-13 -6.31381e-14 0 0 1.58076e-13 -2.88633e-13 -3.33607e-13 -1.02745e-13 0 0 1.75919e-13 -3.00821e-13 -3.2563e-13 -1.41628e-13 0 0 1.833e-13 -2.9444e-13 -2.97679e-13 -1.82464e-13 0 0 1.68294e-13 -2.72693e-13 -2.66706e-13 -2.13279e-13 0 0 1.22223e-13 -2.62047e-13 -1.78235e-13 -2.73051e-13 0 0 7.29663e-14 -2.48086e-13 -1.61494e-13 -2.97281e-13 0 0 1.25378e-14 -2.13008e-13 -1.7658e-13 -3.14773e-13 0 0 -4.38962e-14 -1.18029e-13 -2.7355e-13 -3.03859e-13 0 0 -9.18862e-14 -7.5099e-14 -3.29869e-13 -3.21172e-13 0 0 -1.0932e-13 -1.14951e-13 -2.65536e-13 -3.9957e-13 0 0 -1.08073e-13 -1.7667e-13 -2.38973e-13 -4.30099e-13 0 0 -1.16085e-13 -1.74313e-13 -2.57681e-13 -4.12026e-13 0 0 -1.09838e-13 -1.78901e-13 -2.81987e-13 -3.99381e-13 0 0 -9.19588e-14 -1.89925e-13 -3.46671e-13 -3.53144e-13 0 0 -8.86699e-14 -1.74259e-13 -4.08487e-13 -2.94143e-13 0 0 -7.97503e-14 -1.82761e-13 -4.08565e-13 -2.16857e-13 0 0 -5.82399e-14 -2.22502e-13 -3.84968e-13 -1.75097e-13 0 0 -5.57428e-14 -2.74966e-13 -2.80323e-13 -1.92017e-13 0 0 -6.30802e-14 -2.86276e-13 -2.08125e-13 -2.36316e-13 0 0 -1.04112e-13 -2.83019e-13 -2.19922e-13 -2.47028e-13 0 0 -1.62654e-13 -2.8541e-13 -2.34904e-13 -2.5328e-13 0 0 -2.58285e-13 -2.69348e-13 -2.58919e-13 -2.77824e-13 0 0 -2.84655e-13 -2.45809e-13 -3.31182e-13 -2.23905e-13 0 0 -2.80104e-13 -2.57358e-13 -3.77716e-13 -2.11453e-13 0 0 -2.67444e-13 -2.65409e-13 -3.98039e-13 -2.14535e-13 0 0 -2.22628e-13 -2.84658e-13 -3.95276e-13 -1.78339e-13 0 0 -1.51449e-13 -3.65061e-13 -2.54668e-13 -2.44068e-13 0 0 -1.21492e-13 -3.87386e-13 -1.08215e-13 -2.98238e-13 0 0 -1.27727e-13 -3.66077e-13 -1.3335e-13 -2.57516e-13 0 0 -1.38759e-13 -2.97846e-13 -1.53097e-13 -1.51377e-13 0 0 -1.82246e-13 -2.00758e-13 -1.42551e-13 -1.20289e-13 0 0 -2.03963e-13 -1.69291e-13 -7.74861e-14 -1.50312e-13 0 0 -2.49091e-13 -6.8676e-14 -1.28897e-13 -1.24681e-13 0 0 -2.75609e-13 3.26315e-14 -2.17396e-13 -1.3263e-13 0 0 -2.15575e-13 -8.69883e-14 -7.58487e-14 -2.78573e-13 0 0 -8.77874e-14 -4.03283e-13 5.44014e-14 -2.87098e-13 0 0 -3.47692e-14 -4.51817e-13 -1.07493e-14 -1.57637e-13 0 0 -5.0775e-14 -4.31884e-13 -1.84774e-13 6.31857e-14 0 0 -1.77897e-13 -2.91086e-13 -1.80548e-13 3.37656e-14 0 0 -2.40485e-13 -1.67881e-13 -1.35741e-13 -1.08872e-13 0 0 -2.1906e-13 -1.6675e-13 -1.3748e-13 -1.89797e-13 0 0 -1.8031e-13 -1.49001e-13 -1.40967e-13 -2.35351e-13 0 0 -1.43499e-13 -1.45094e-13 -1.34839e-13 -2.56787e-13 0 0 -1.32691e-13 -1.53414e-13 -1.5445e-13 -2.27083e-13 0 0 -1.37277e-13 -1.59995e-13 -1.65635e-13 -1.93937e-13 0 0 -1.55141e-13 -1.60247e-13 -1.63661e-13 -2.02657e-13 0 0 -1.70558e-13 -1.60755e-13 -1.79371e-13 -1.8985e-13 0 0 -1.8913e-13 -1.71067e-13 -2.07125e-13 -1.26971e-13 0 0 -2.05365e-13 -2.0979e-13 -2.09379e-13 -1.21932e-13 0 0 -2.02176e-13 -2.77278e-13 -2.04034e-13 -1.35553e-13 0 0 -2.07704e-13 -3.24412e-13 -2.20891e-13 -1.68151e-13 0 0 -2.05898e-13 -4.02003e-13 -1.98681e-13 -3.13415e-13 0 0 -1.91728e-13 -3.95216e-13 -2.52486e-13 -4.48398e-13 0 0 -1.95975e-13 -3.37179e-13 -3.84235e-13 -6.09039e-13 0 0 -1.7687e-13 -2.61248e-13 -4.81894e-13 -7.02852e-13 0 0 -1.58476e-13 -2.57641e-13 -4.85073e-13 -6.7204e-13 0 0 -1.61718e-13 -2.79886e-13 -4.25972e-13 -4.88665e-13 0 0 -1.74167e-13 -2.98794e-13 -3.34244e-13 -4.31128e-14 0 0 -1.6372e-13 -3.45321e-13 -2.24625e-13 7.17686e-14 0 0 -1.56151e-13 -3.73869e-13 -6.9346e-14 -5.35027e-14 0 0 -2.00059e-13 -2.49018e-13 -1.46366e-13 -1.43879e-13 0 0 -2.09838e-13 -1.12989e-13 -2.97497e-13 -2.12157e-13 0 0 -1.26861e-13 -1.94441e-13 -1.91805e-13 -4.15323e-13 0 0 -5.07845e-14 -3.0432e-13 -6.69924e-14 -5.22846e-13 0 0 -2.39164e-14 -3.78524e-13 -1.43523e-13 -3.26901e-13 0 0 -5.2397e-14 -3.30632e-13 -4.75438e-13 1.35192e-13 0 0 -1.20816e-13 -3.90769e-13 -3.83009e-13 7.09155e-15 0 0 -1.61957e-13 -5.54479e-13 -2.46294e-13 -1.66784e-13 0 0 -2.9541e-13 -3.92991e-13 -4.66112e-13 -2.36034e-13 0 0 -3.19581e-13 -3.74251e-13 -5.53647e-13 -2.75105e-13 0 0 -2.37472e-13 -5.67924e-13 -4.07278e-13 -3.37385e-13 0 0 -2.82925e-13 -5.5543e-13 -3.57659e-13 -4.45419e-13 0 0 -3.46861e-13 -4.75045e-13 -5.03398e-13 -2.80419e-13 0 0 -3.2614e-13 -4.82056e-13 -5.22506e-13 -2.15796e-13 0 0 -2.94919e-13 -5.03061e-13 -5.21425e-13 -2.09451e-13 0 0 -2.4317e-13 -5.60021e-13 -4.74411e-13 -2.09983e-13 0 0 -2.42118e-13 -4.95335e-13 -4.96378e-13 -2.55746e-13 0 0 -2.90105e-13 -3.7301e-13 -5.03615e-13 -3.76775e-13 0 0 -1.99605e-13 -4.98815e-13 -3.34553e-13 -5.12468e-13 0 0 -2.13719e-13 -4.6922e-13 -4.31758e-13 -2.93786e-13 0 0 -2.1707e-13 -4.06771e-13 -5.96473e-13 -6.84378e-14 0 0 -2.26586e-13 -3.80747e-13 -5.98455e-13 -1.75005e-13 0 0 -2.37103e-13 -3.98152e-13 -5.44192e-13 -2.86492e-13 0 0 -1.49347e-13 -4.87984e-13 -5.64914e-13 -1.96577e-13 0 0 -2.21263e-13 -3.50344e-13 -6.82933e-13 -1.46774e-13 0 0 -2.43056e-13 -2.99094e-13 -6.90986e-13 -2.03022e-13 0 0 -1.28463e-13 -5.07731e-13 -4.53199e-13 -3.48418e-13 0 0 -7.24642e-14 -5.91655e-13 -2.45782e-13 -5.06998e-13 0 0 -1.98388e-13 -4.00092e-13 -3.85627e-13 -3.16015e-13 0 0 -3.04223e-13 -2.32097e-13 -5.25917e-13 -2.11889e-13 0 0 -3.21203e-13 -1.8131e-13 -5.81623e-13 -2.08016e-13 0 0 -2.7692e-13 -3.2617e-13 -4.63219e-13 -2.25961e-13 0 0 -1.15515e-13 -6.19561e-13 -2.30972e-13 -2.7355e-13 0 0 -1.51256e-13 -4.99956e-13 -4.6964e-13 -4.11213e-14 0 0 -5.20063e-13 3.63706e-14 -9.28954e-13 1.08337e-13 0 0 -4.74845e-13 -6.54136e-14 -8.95946e-13 -6.18719e-14 0 0 -3.85032e-13 -2.9581e-13 -6.09417e-13 -3.01218e-13 0 0 -5.3751e-13 -1.51549e-13 -6.84963e-13 -3.15918e-13 0 0 -5.11899e-13 -1.21866e-13 -8.99154e-13 -1.93608e-13 0
				</DataArray>
				<DataArray Name="VitesseY" type="Float32" format="ascii">