<?xml version="1.0"?>
<VTKFile type="PolyData">
	<PolyData>
		<Piece NumberOfPoints="1206" NumberOfPolys="1000">
			<Points>
				<DataArray type="Float32" NumberOfComponents="3" format="ascii">
 0 0 0 0.02 0 0 0.04 0 0 0.06 0 0 0.08 0 0 0.1 0 0 0 0.005 0 0.02 0.005 0 0.04 0.005 0 0.06 0.005 0 0.08 0.005 0 0.1 0.005 0 0 0.01 0 0.02 0.01 0 0.04 0.01 0 0.06 0.01 0 0.08 0.01 0 0.1 0.01 0 0 0.015 0 0.02 0.015 0 0.04 0.015 0 0.06 0.015 0 0.08 0.015 0 0.1 0.015 0 0 0.02 0 0.02 0.02 0 0.04 0.02 0 0.06 0.02 0 0.08 0.02 0 0.1 0.02 0 0 0.025 0 0.02 0.025 0 0.04 0.025 0 0.06 0.025 0 0.08 0.025 0 0.1 0.025 0 0 0.03 0 0.02 0.03 0 0.04 0.03 0 0.06 0.03 0 0.08 0.03 0 0.1 0.03 0 0 0.035 0 0.02 0.035 0 0.04 0.035 0 0.06 0.035 0 0.08 0.035 0 0.1 0.035 0 0 0.04 0 0.02 0.04 0 0.04 0.04 0 0.06 0.04 0 0.08 0.04 0 0.1 0.04 0 0 0.045 0 0.02 0.045 0 0.04 0.045 0 0.06 0.045 0 0.08 0.045 0 0.1 0.045 0 0 0.05 0 0.02 0.05 0 0.04 0.05 0 0.06 0.05 0 0.08 0.05 0 0.1 0.05 0 0 0.055 0 0.02 0.055 0 0.04 0.055 0 0.06 0.055 0 0.08 0.055 0 0.1 0.055 0 0 0.06 0 0.02 0.06 0 0.04 0.06 0 0.06 0.06 0 0.08 0.06 0 0.1 0.06 0 0 0.065 0 0.02 0.065 0 0.04 0.065 0 0.06 0.065 0 0.08 0.065 0 0.1 0.065 0 0 0.07 0 0.02 0.07 0 0.04 0.07 0 0.06 0.07 0 0.08 0.07 0 0.1 0.07 0 0 0.075 0 0.02 0.075 0 0.04 0.075 0 0.06 0.075 0 0.08 0.075 0 0.1 0.075 0 0 0.08 0 0.02 0.08 0 0.04 0.08 0 0.06 0.08 0 0.08 0.08 0 0.1 0.08 0 0 0.085 0 0.02 0.085 0 0.04 0.085 0 0.06 0.085 0 0.08 0.085 0 0.1 0.085 0 0 0.09 0 0.02 0.09 0 0.04 0.09 0 0.06 0.09 0 0.08 0.09 0 0.1 0.09 0 0 0.095 0 0.02 0.095 0 0.04 0.095 0 0.06 0.095 0 0.08 0.095 0 0.1 0.095 0 0 0.1 0 0.02 0.1 0 0.04 0.1 0 0.06 0.1 0 0.08 0.1 0 0.1 0.1 0 0 0.105 0 0.02 0.105 0 0.04 0.105 0 0.06 0.105 0 0.08 0.105 0 0.1 0.105 0 0 0.11 0 0.02 0.11 0 0.04 0.11 0 0.06 0.11 0 0.08 0.11 0 0.1 0.11 0 0 0.115 0 0.02 0.115 0 0.04 0.115 0 0.06 0.115 0 0.08 0.115 0 0.1 0.115 0 0 0.12 0 0.02 0.12 0 0.04 0.12 0 0.06 0.12 0 0.08 0.12 0 0.1 0.12 0 0 0.125 0 0.02 0.125 0 0.04 0.125 0 0.06 0.125 0 0.08 0.125 0 0.1 0.125 0 0 0.13 0 0.02 0.13 0 0.04 0.13 0 0.06 0.13 0 0.08 0.13 0 0.1 0.13 0 0 0.135 0 0.02 0.135 0 0.04 0.135 0 0.06 0.135 0 0.08 0.135 0 0.1 0.135 0 0 0.14 0 0.02 0.14 0 0.04 0.14 0 0.06 0.14 0 0.08 0.14 0 0.1 0.14 0 0 0.145 0 0.02 0.145 0 0.04 0.145 0 0.06 0.145 0 0.08 0.145 0 0.1 0.145 0 0 0.15 0 0.02 0.15 0 0.04 0.15 0 0.06 0.15 0 0.08 0.15 0 0.1 0.15 0 0 0.155 0 0.02 0.155 0 0.04 0.155 0 0.06 0.155 0 0.08 0.155 0 0.1 0.155 0 0 0.16 0 0.02 0.16 0 0.04 0.16 0 0.06 0.16 0 0.08 0.16 0 0.1 0.16 0 0 0.165 0 0.02 0.165 0 0.04 0.165 0 0.06 0.165 0 0.08 0.165 0 0.1 0.165 0 0 0.17 0 0.02 0.17 0 0.04 0.17 0 0.06 0.17 0 0.08 0.17 0 0.1 0.17 0 0 0.175 0 0.02 0.175 0 0.04 0.175 0 0.06 0.175 0 0.08 0.175 0 0.1 0.175 0 0 0.18 0 0.02 0.18 0 0.04 0.18 0 0.06 0.18 0 0.08 0.18 0 0.1 0.18 0 0 0.185 0 0.02 0.185 0 0.04 0.185 0 0.06 0.185 0 0.08 0.185 0 0.1 0.185 0 0 0.19 0 0.02 0.19 0 0.04 0.19 0 0.06 0.19 0 0.08 0.19 0 0.1 0.19 0 0 0.195 0 0.02 0.195 0 0.04 0.195 0 0.06 0.195 0 0.08 0.195 0 0.1 0.195 0 0 0.2 0 0.02 0.2 0 0.04 0.2 0 0.06 0.2 0 0.08 0.2 0 0.1 0.2 0 0 0.205 0 0.02 0.205 0 0.04 0.205 0 0.06 0.205 0 0.08 0.205 0 0.1 0.205 0 0 0.21 0 0.02 0.21 0 0.04 0.21 0 0.06 0.21 0 0.08 0.21 0 0.1 0.21 0 0 0.215 0 0.02 0.215 0 0.04 0.215 0 0.06 0.215 0 0.08 0.215 0 0.1 0.215 0 0 0.22 0 0.02 0.22 0 0.04 0.22 0 0.06 0.22 0 0.08 0.22 0 0.1 0.22 0 0 0.225 0 0.02 0.225 0 0.04 0.225 0 0.06 0.225 0 0.08 0.225 0 0.1 0.225 0 0 0.23 0 0.02 0.23 0 0.04 0.23 0 0.06 0.23 0 0.08 0.23 0 0.1 0.23 0 0 0.235 0 0.02 0.235 0 0.04 0.235 0 0.06 0.235 0 0.08 0.235 0 0.1 0.235 0 0 0.24 0 0.02 0.24 0 0.04 0.24 0 0.06 0.24 0 0.08 0.24 0 0.1 0.24 0 0 0.245 0 0.02 0.245 0 0.04 0.245 0 0.06 0.245 0 0.08 0.245 0 0.1 0.245 0 0 0.25 0 0.02 0.25 0 0.04 0.25 0 0.06 0.25 0 0.08 0.25 0 0.1 0.25 0 0 0.255 0 0.02 0.255 0 0.04 0.255 0 0.06 0.255 0 0.08 0.255 0 0.1 0.255 0 0 0.26 0 0.02 0.26 0 0.04 0.26 0 0.06 0.26 0 0.08 0.26 0 0.1 0.26 0 0 0.265 0 0.02 0.265 0 0.04 0.265 0 0.06 0.265 0 0.08 0.265 0 0.1 0.265 0 0 0.27 0 0.02 0.27 0 0.04 0.27 0 0.06 0.27 0 0.08 0.27 0 0.1 0.27 0 0 0.275 0 0.02 0.275 0 0.04 0.275 0 0.06 0.275 0 0.08 0.275 0 0.1 0.275 0 0 0.28 0 0.02 0.28 0 0.04 0.28 0 0.06 0.28 0 0.08 0.28 0 0.1 0.28 0 0 0.285 0 0.02 0.285 0 0.04 0.285 0 0.06 0.285 0 0.08 0.285 0 0.1 0.285 0 0 0.29 0 0.02 0.29 0 0.04 0.29 0 0.06 0.29 0 0.08 0.29 0 0.1 0.29 0 0 0.295 0 0.02 0.295 0 0.04 0.295 0 0.06 0.295 0 0.08 0.295 0 0.1 0.295 0 0 0.3 0 0.02 0.3 0 0.04 0.3 0 0.06 0.3 0 0.08 0.3 0 0.1 0.3 0 0 0.305 0 0.02 0.305 0 0.04 0.305 0 0.06 0.305 0 0.08 0.305 0 0.1 0.305 0 0 0.31 0 0.02 0.31 0 0.04 0.31 0 0.06 0.31 0 0.08 0.31 0 0.1 0.31 0 0 0.315 0 0.02 0.315 0 0.04 0.315 0 0.06 0.315 0 0.08 0.315 0 0.1 0.315 0 0 0.32 0 0.02 0.32 0 0.04 0.32 0 0.06 0.32 0 0.08 0.32 0 0.1 0.32 0 0 0.325 0 0.02 0.325 0 0.04 0.325 0 0.06 0.325 0 0.08 0.325 0 0.1 0.325 0 0 0.33 0 0.02 0.33 0 0.04 0.33 0 0.06 0.33 0 0.08 0.33 0 0.1 0.33 0 0 0.335 0 0.02 0.335 0 0.04 0.335 0 0.06 0.335 0 0.08 0.335 0 0.1 0.335 0 0 0.34 0 0.02 0.34 0 0.04 0.34 0 0.06 0.34 0 0.08 0.34 0 0.1 0.34 0 0 0.345 0 0.02 0.345 0 0.04 0.345 0 0.06 0.345 0 0.08 0.345 0 0.1 0.345 0 0 0.35 0 0.02 0.35 0 0.04 0.35 0 0.06 0.35 0 0.08 0.35 0 0.1 0.35 0 0 0.355 0 0.02 0.355 0 0.04 0.355 0 0.06 0.355 0 0.08 0.355 0 0.1 0.355 0 0 0.36 0 0.02 0.36 0 0.04 0.36 0 0.06 0.36 0 0.08 0.36 0 0.1 0.36 0 0 0.365 0 0.02 0.365 0 0.04 0.365 0 0.06 0.365 0 0.08 0.365 0 0.1 0.365 0 0 0.37 0 0.02 0.37 0 0.04 0.37 0 0.06 0.37 0 0.08 0.37 0 0.1 0.37 0 0 0.375 0 0.02 0.375 0 0.04 0.375 0 0.06 0.375 0 0.08 0.375 0 0.1 0.375 0 0 0.38 0 0.02 0.38 0 0.04 0.38 0 0.06 0.38 0 0.08 0.38 0 0.1 0.38 0 0 0.385 0 0.02 0.385 0 0.04 0.385 0 0.06 0.385 0 0.08 0.385 0 0.1 0.385 0 0 0.39 0 0.02 0.39 0 0.04 0.39 0 0.06 0.39 0 0.08 0.39 0 0.1 0.39 0 0 0.395 0 0.02 0.395 0 0.04 0.395 0 0.06 0.395 0 0.08 0.395 0 0.1 0.395 0 0 0.4 0 0.02 0.4 0 0.04 0.4 0 0.06 0.4 0 0.08 0.4 0 0.1 0.4 0 0 0.405 0 0.02 0.405 0 0.04 0.405 0 0.06 0.405 0 0.08 0.405 0 0.1 0.405 0 0 0.41 0 0.02 0.41 0 0.04 0.41 0 0.06 0.41 0 0.08 0.41 0 0.1 0.41 0 0 0.415 0 0.02 0.415 0 0.04 0.415 0 0.06 0.415 0 0.08 0.415 0 0.1 0.415 0 0 0.42 0 0.02 0.42 0 0.04 0.42 0 0.06 0.42 0 0.08 0.42 0 0.1 0.42 0 0 0.425 0 0.02 0.425 0 0.04 0.425 0 0.06 0.425 0 0.08 0.425 0 0.1 0.425 0 0 0.43 0 0.02 0.43 0 0.04 0.43 0 0.06 0.43 0 0.08 0.43 0 0.1 0.43 0 0 0.435 0 0.02 0.435 0 0.04 0.435 0 0.06 0.435 0 0.08 0.435 0 0.1 0.435 0 0 0.44 0 0.02 0.44 0 0.04 0.44 0 0.06 0.44 0 0.08 0.44 0 0.1 0.44 0 0 0.445 0 0.02 0.445 0 0.04 0.445 0 0.06 0.445 0 0.08 0.445 0 0.1 0.445 0 0 0.45 0 0.02 0.45 0 0.04 0.45 0 0.06 0.45 0 0.08 0.45 0 0.1 0.45 0 0 0.455 0 0.02 0.455 0 0.04 0.455 0 0.06 0.455 0 0.08 0.455 0 0.1 0.455 0 0 0.46 0 0.02 0.46 0 0.04 0.46 0 0.06 0.46 0 0.08 0.46 0 0.1 0.46 0 0 0.465 0 0.02 0.465 0 0.04 0.465 0 0.06 0.465 0 0.08 0.465 0 0.1 0.465 0 0 0.47 0 0.02 0.47 0 0.04 0.47 0 0.06 0.47 0 0.08 0.47 0 0.1 0.47 0 0 0.475 0 0.02 0.475 0 0.04 0.475 0 0.06 0.475 0 0.08 0.475 0 0.1 0.475 0 0 0.48 0 0.02 0.48 0 0.04 0.48 0 0.06 0.48 0 0.08 0.48 0 0.1 0.48 0 0 0.485 0 0.02 0.485 0 0.04 0.485 0 0.06 0.485 0 0.08 0.485 0 0.1 0.485 0 0 0.49 0 0.02 0.49 0 0.04 0.49 0 0.06 0.49 0 0.08 0.49 0 0.1 0.49 0 0 0.495 0 0.02 0.495 0 0.04 0.495 0 0.06 0.495 0 0.08 0.495 0 0.1 0.495 0 0 0.5 0 0.02 0.5 0 0.04 0.5 0 0.06 0.5 0 0.08 0.5 0 0.1 0.5 0 0 0.505 0 0.02 0.505 0 0.04 0.505 0 0.06 0.505 0 0.08 0.505 0 0.1 0.505 0 0 0.51 0 0.02 0.51 0 0.04 0.51 0 0.06 0.51 0 0.08 0.51 0 0.1 0.51 0 0 0.515 0 0.02 0.515 0 0.04 0.515 0 0.06 0.515 0 0.08 0.515 0 0.1 0.515 0 0 0.52 0 0.02 0.52 0 0.04 0.52 0 0.06 0.52 0 0.08 0.52 0 0.1 0.52 0 0 0.525 0 0.02 0.525 0 0.04 0.525 0 0.06 0.525 0 0.08 0.525 0 0.1 0.525 0 0 0.53 0 0.02 0.53 0 0.04 0.53 0 0.06 0.53 0 0.08 0.53 0 0.1 0.53 0 0 0.535 0 0.02 0.535 0 0.04 0.535 0 0.06 0.535 0 0.08 0.535 0 0.1 0.535 0 0 0.54 0 0.02 0.54 0 0.04 0.54 0 0.06 0.54 0 0.08 0.54 0 0.1 0.54 0 0 0.545 0 0.02 0.545 0 0.04 0.545 0 0.06 0.545 0 0.08 0.545 0 0.1 0.545 0 0 0.55 0 0.02 0.55 0 0.04 0.55 0 0.06 0.55 0 0.08 0.55 0 0.1 0.55 0 0 0.555 0 0.02 0.555 0 0.04 0.555 0 0.06 0.555 0 0.08 0.555 0 0.1 0.555 0 0 0.56 0 0.02 0.56 0 0.04 0.56 0 0.06 0.56 0 0.08 0.56 0 0.1 0.56 0 0 0.565 0 0.02 0.565 0 0.04 0.565 0 0.06 0.565 0 0.08 0.565 0 0.1 0.565 0 0 0.57 0 0.02 0.57 0 0.04 0.57 0 0.06 0.57 0 0.08 0.57 0 0.1 0.57 0 0 0.575 0 0.02 0.575 0 0.04 0.575 0 0.06 0.575 0 0.08 0.575 0 0.1 0.575 0 0 0.58 0 0.02 0.58 0 0.04 0.58 0 0.06 0.58 0 0.08 0.58 0 0.1 0.58 0 0 0.585 0 0.02 0.585 0 0.04 0.585 0 0.06 0.585 0 0.08 0.585 0 0.1 0.585 0 0 0.59 0 0.02 0.59 0 0.04 0.59 0 0.06 0.59 0 0.08 0.59 0 0.1 0.59 0 0 0.595 0 0.02 0.595 0 0.04 0.595 0 0.06 0.595 0 0.08 0.595 0 0.1 0.595 0 0 0.6 0 0.02 0.6 0 0.04 0.6 0 0.06 0.6 0 0.08 0.6 0 0.1 0.6 0 0 0.605 0 0.02 0.605 0 0.04 0.605 0 0.06 0.605 0 0.08 0.605 0 0.1 0.605 0 0 0.61 0 0.02 0.61 0 0.04 0.61 0 0.06 0.61 0 0.08 0.61 0 0.1 0.61 0 0 0.615 0 0.02 0.615 0 0.04 0.615 0 0.06 0.615 0 0.08 0.615 0 0.1 0.615 0 0 0.62 0 0.02 0.62 0 0.04 0.62 0 0.06 0.62 0 0.08 0.62 0 0.1 0.62 0 0 0.625 0 0.02 0.625 0 0.04 0.625 0 0.06 0.625 0 0.08 0.625 0 0.1 0.625 0 0 0.63 0 0.02 0.63 0 0.04 0.63 0 0.06 0.63 0 0.08 0.63 0 0.1 0.63 0 0 0.635 0 0.02 0.635 0 0.04 0.635 0 0.06 0.635 0 0.08 0.635 0 0.1 0.635 0 0 0.64 0 0.02 0.64 0 0.04 0.64 0 0.06 0.64 0 0.08 0.64 0 0.1 0.64 0 0 0.645 0 0.02 0.645 0 0.04 0.645 0 0.06 0.645 0 0.08 0.645 0 0.1 0.645 0 0 0.65 0 0.02 0.65 0 0.04 0.65 0 0.06 0.65 0 0.08 0.65 0 0.1 0.65 0 0 0.655 0 0.02 0.655 0 0.04 0.655 0 0.06 0.655 0 0.08 0.655 0 0.1 0.655 0 0 0.66 0 0.02 0.66 0 0.04 0.66 0 0.06 0.66 0 0.08 0.66 0 0.1 0.66 0 0 0.665 0 0.02 0.665 0 0.04 0.665 0 0.06 0.665 0 0.08 0.665 0 0.1 0.665 0 0 0.67 0 0.02 0.67 0 0.04 0.67 0 0.06 0.67 0 0.08 0.67 0 0.1 0.67 0 0 0.675 0 0.02 0.675 0 0.04 0.675 0 0.06 0.675 0 0.08 0.675 0 0.1 0.675 0 0 0.68 0 0.02 0.68 0 0.04 0.68 0 0.06 0.68 0 0.08 0.68 0 0.1 0.68 0 0 0.685 0 0.02 0.685 0 0.04 0.685 0 0.06 0.685 0 0.08 0.685 0 0.1 0.685 0 0 0.69 0 0.02 0.69 0 0.04 0.69 0 0.06 0.69 0 0.08 0.69 0 0.1 
[...]
			<PointData Scalars="VitesseX">
				<DataArray Name="VitesseX" type="Float32" format="ascii">
 0 8.04245e-15 -6.5972e-15 -2.46521e-14 -2.59375e-14 0 0 8.49302e-15 -1.01314e-14 -1.98273e-14 -2.89083e-14 0 0 4.26443e-15 -9.03382e-15 -1.74515e-14 -3.19739e-14 0 0 -6.30254e-15 9.82769e-16 -2.32908e-14 -3.04691e-14 0 0 -6.85769e-15 -4.09132e-15 -1.72875e-14 -3.12304e-14 0 0 -5.22916e-15 -1.21899e-14 -5.98269e-15 -3.93951e-14 0 0 -1.45685e-14 -1.01845e-14 -5.9343e-15 -3.99678e-14 0 0 -8.77595e-15 -2.98095e-14 8.51111e-15 -4.76753e-14 0 0 -6.08159e-15 -4.21344e-14 4.86826e-15 -3.70248e-14 0 0 -5.04681e-15 -4.85705e-14 -1.49647e-14 -1.34026e-14 0 0 -6.03582e-15 -4.47044e-14 -4.06775e-14 -2.89134e-15 0 0 -1.44089e-14 -3.71083e-14 -5.36417e-14 -7.87353e-15 0 0 -1.15509e-14 -5.30646e-14 -2.37639e-14 -3.23289e-14 0 0 -1.9182e-14 -4.35005e-14 -2.75297e-14 -1.93359e-14 0 0 -4.38282e-15 -5.01525e-14 -4.23439e-14 1.12258e-14 0 0 -2.51427e-15 -3.7229e-14 -5.55881e-14 2.67209e-14 0 0 7.95513e-15 -4.37277e-14 -2.62258e-14 -1.35366e-15 0 0 1.84368e-14 -6.10722e-14 2.04747e-14 -3.94588e-14 0 0 -1.2094e-14 -5.92788e-15 -2.26181e-14 -1.1424e-14 0 0 7.09052e-15 -1.40972e-14 -2.41337e-14 -9.16581e-15 0 0 1.91117e-14 -3.5159e-14 2.13624e-14 -5.62649e-14 0 0 -6.37214e-15 7.51101e-16 -1.22956e-14 -4.35411e-14 0 0 -7.91849e-15 8.27518e-15 -4.50376e-14 -2.50887e-14 0 0 -1.68004e-15 -1.20302e-17 -7.00243e-14 -8.16257e-15 0 0 -2.09437e-14 -6.92214e-15 -6.50967e-14 -1.00307e-14 0 0 -2.22293e-14 -4.89463e-14 -8.59996e-15 -5.19947e-14 0 0 -6.01147e-14 3.77824e-15 -5.11242e-14 -4.60012e-14 0 0 -9.37953e-14 5.15787e-14 -8.10695e-14 -5.09738e-14 0 0 -6.97939e-14 1.21117e-14 -4.87756e-14 -7.50267e-14 0 0 -4.70896e-14 -7.31587e-15 -4.95823e-14 -8.68189e-14 0 0 -3.15638e-14 -1.59909e-14 -5.08077e-14 -1.06812e-13 0 0 -1.54399e-14 -4.37904e-14 -2.9422e-14 -1.10018e-13 0 0 3.97569e-15 -5.85693e-14 -4.54485e-14 -7.76343e-14 0 0 -7.0084e-15 -2.12343e-14 -8.06873e-14 -7.04876e-14 0 0 -1.29006e-14 -2.95859e-14 -1.344e-14 -1.42821e-13 0 0 -2.63518e-15 -3.54971e-14 -1.64093e-14 -1.37397e-13 0 0 2.02983e-14 -4.76678e-14 -6.92217e-14 -5.25797e-14 0 0 -2.84784e-14 1.45333e-14 -1.2644e-13 3.30918e-14 0 0 -3.04877e-14 6.44591e-15 -8.94266e-14 2.09702e-15 0 0 -5.94164e-16 -2.511e-14 -6.90721e-14 -1.16634e-14 0 0 -6.04213e-14 5.8486e-14 -1.66605e-13 6.18334e-14 0 0 -7.47391e-14 1.79847e-14 -7.78023e-14 -2.8171e-14 0 0 -3.7231e-14 -7.82441e-14 7.05522e-14 -1.74806e-13 0 0 -2.11814e-14 -6.25802e-14 4.35845e-14 -1.67587e-13 0 0 -3.27015e-14 -1.26052e-14 -3.61835e-14 -8.81939e-14 0 0 -4.76064e-14 3.92662e-14 -8.02596e-14 -4.94017e-14 0 0 -2.53551e-14 -1.48072e-14 3.88564e-14 -1.23627e-13 0 0 -4.15298e-14 -5.6172e-14 1.14829e-13 -1.40176e-13 0 0 -1.30183e-13 2.56677e-14 3.00175e-14 -4.53557e-14 0 0 -2.99092e-14 -1.23438e-13 1.56541e-13 -1.3539e-13 0 0 1.06519e-13 -2.37153e-13 1.93827e-13 -1.71247e-13 0 0 2.55481e-14 -1.46721e-13 6.29223e-14 -7.87434e-14 0 0 -1.37975e-13 6.69347e-15 -9.08532e-14 2.03021e-15 0 0 -2.17893e-13 6.03521e-14 -6.49312e-14 -8.93971e-14 0 0 -1.81719e-13 -5.04588e-14 6.79081e-14 -2.17629e-13 0 0 -4.99783e-14 -2.13532e-13 1.35358e-13 -2.13196e-13 0 0 -1.11952e-14 -2.20109e-13 3.96269e-14 -8.28364e-14 0 0 -1.68606e-13 -3.79075e-14 -2.16609e-13 8.90477e-14 0 0 -1.10016e-13 -1.88462e-13 -1.25361e-13 -2.70297e-14 0 0 -3.59e-14 -3.00286e-13 -4.57059e-14 -1.69959e-13 0 0 -1.82909e-13 -1.02183e-13 -2.03379e-13 -1.28721e-13 0 0 -2.16505e-13 1.36684e-14 -2.96636e-13 -7.36885e-14 0 0 -2.00248e-13 3.74483e-14 -2.46591e-13 -1.37039e-13 0 0 -1.54727e-13 -8.58144e-14 -4.92547e-14 -2.60396e-13 0 0 -1.40531e-13 -2.49027e-13 1.14887e-13 -2.7525e-13 0 0 -2.21363e-13 -1.88884e-13 2.59697e-14 -2.11289e-13 0 0 -3.13196e-13 -6.40135e-14 -7.14263e-14 -1.8811e-13 0 0 -2.94476e-13 -7.22705e-14 -4.10006e-14 -2.37646e-13 0 0 -2.45359e-13 -1.0727e-13 -6.69953e-14 -2.23354e-13 0 0 -1.48419e-13 -1.78654e-13 -1.2977e-13 -1.76443e-13 0 0 -8.34488e-14 -2.94322e-13 -1.13597e-13 -2.08047e-13 0 0 -8.91532e-14 -3.02338e-13 -1.61274e-13 -1.97713e-13 0 0 -9.58168e-14 -2.99223e-13 -1.76762e-13 -1.45664e-13 0 0 -9.73885e-14 -3.43844e-13 -6.78933e-14 -2.01691e-13 0 0 -1.14763e-13 -3.29063e-13 -1.07221e-13 -2.00596e-13 0 0 -1.76054e-13 -2.882e-13 -1.42427e-13 -2.42086e-13 0 0 -2.76442e-13 -2.23329e-13 -1.38193e-13 -2.6182e-13 0 0 -3.69192e-13 -1.6276e-13 -8.46985e-14 -2.23166e-13 0 0 -4.57054e-13 -1.80016e-13 2.68919e-14 -1.58684e-13 0 0 -4.65105e-13 -1.97199e-13 1.56896e-13 -1.41105e-13 0 0 -4.47907e-13 -2.13508e-13 2.56924e-13 -1.45709e-13 0 0 -4.10551e-13 -2.57609e-13 3.26337e-13 -2.32678e-13 0 0 -3.46367e-13 -3.07652e-13 3.17764e-13 -2.81159e-13 0 0 -2.75978e-13 -3.25489e-13 2.69516e-13 -2.71002e-13 0 0 -2.1433e-13 -3.18662e-13 1.62785e-13 -2.433e-13 0 0 -1.75168e-13 -2.70197e-13 3.78834e-14 -1.81206e-13 0 0 -1.61861e-13 -2.04996e-13 -9.94414e-14 -1.03724e-13 0 0 -1.65316e-13 -1.49458e-13 -2.2725e-13 -2.28117e-14 0 0 -1.70356e-13 -1.0118e-13 -3.43693e-13 -1.05761e-14 0 0 -1.62537e-13 -9.69626e-14 -3.4647e-13 -3.13696e-14 0 0 -1.33025e-13 -1.10443e-13 -3.17945e-13 -1.0421e-13 0 0 -9.87219e-14 -1.7077e-13 -2.27527e-13 -2.29101e-13 0 0 -6.99711e-14 -2.72693e-13 -8.19354e-14 -3.46878e-13 0 0 -6.56365e-14 -3.25224e-13 3.99541e-15 -4.52791e-13 0 0 -6.42847e-14 -3.21248e-13 -6.39156e-15 -5.27733e-13 0 0 -6.54422e-14 -3.03006e-13 -4.49802e-14 -5.81652e-13 0 0 -9.35748e-14 -2.41767e-13 -1.51075e-13 -5.82693e-13 0 0 -1.28207e-13 -1.46136e-13 -3.02762e-13 -5.54726e-13 0 0 -1.22557e-13 -4.78421e-14 -4.42339e-13 -5.04729e-13 0 0 -1.02123e-13 -3.1528e-14 -5.48729e-13 -4.3825e-13 0 0 -4.40568e-14 -4.0813e-14 -6.42078e-13 -3.41943e-13 0 0 5.95825e-14 -9.82136e-14 -6.59359e-13 -2.42787e-13 0 0 1.63527e-13 -2.14543e-13 -6.47557e-13 -1.58821e-13 0 0 2.67289e-13 -3.17995e-13 -6.19907e-13 -8.33017e-14 0 0 2.85327e-13 -4.0776e-13 -5.9452e-13 -7.02342e-14 0 0 2.73892e-13 -4.37712e-13 -5.6027e-13 -8.13227e-14 0 0 2.05289e-13 -4.09817e-13 -5.54122e-13 -6.21204e-14 0 0 9.66479e-14 -3.70667e-13 -5.16807e-13 -7.17343e-14 0 0 -2.53126e-15 -3.39446e-13 -3.95771e-13 -1.79752e-13 0 0 -8.07615e-14 -3.00945e-13 -3.72574e-13 -2.59928e-13 0 0 -1.17731e-13 -3.0794e-13 -3.37603e-13 -3.34914e-13 0 0 -1.37615e-13 -2.92883e-13 -3.11194e-13 -3.76584e-13 0 0 -1.59291e-13 -1.81867e-13 -4.401e-13 -2.58471e-13 0 0 -1.53781e-13 -1.7562e-13 -4.80335e-13 -1.36972e-13 0 0 -1.23672e-13 -2.22404e-13 -4.23385e-13 -1.37727e-13 0 0 -1.22926e-13 -2.32322e-13 -3.53186e-13 -1.51293e-13 0 0 -1.46891e-13 -2.17401e-13 -2.49345e-13 -1.71961e-13 0 0 -1.9967e-13 -1.80211e-13 -1.94685e-13 -1.70176e-13 0 0 -2.44679e-13 -2.01769e-13 -1.14678e-13 -2.3772e-13 0 0 -2.90395e-13 -2.2369e-13 -1.21749e-13 -2.44224e-13 0 0 -2.97738e-13 -2.11572e-13 -1.84201e-13 -2.0711e-13 0 0 -2.97417e-13 -2.12867e-13 -2.46624e-13 -1.59227e-13 0 0 -2.95582e-13 -2.21619e-13 -2.58313e-13 -9.01483e-14 0 0 -2.54865e-13 -2.5513e-13 -2.16085e-13 -4.99893e-14 0 0 -1.99709e-13 -2.77153e-13 -1.55252e-13 -9.53316e-14 0 0 -1.40945e-13 -2.75289e-13 -1.0851e-13 -9.68164e-14 0 0 -1.27932e-13 -2.57856e-13 -1.07307e-13 -4.45434e-14 0 0 -1.42023e-13 -1.95373e-13 -1.49419e-13 9.06452e-15 0 0 -2.15342e-13 -1.63934e-14 -1.87253e-13 2.92346e-14 0 0 -2.95507e-13 9.30454e-14 -1.94121e-13 3.42504e-14 0 0 -3.08709e-13 1.15113e-13 -1.72814e-13 -7.71935e-15 0 0 -2.64181e-13 4.05839e-14 -8.90476e-14 -9.53342e-14 0 0 -2.03213e-13 -2.10859e-13 8.25059e-14 -2.06612e-13 0 0 -2.15694e-13 -2.51695e-13 7.87299e-14 -1.99615e-13 0 0 -1.8252e-13 -2.56979e-13 -9.5596e-14 -9.99734e-14 0 0 -1.47311e-13 -3.29605e-13 -2.45686e-13 1.72755e-13 0 0 -1.61043e-13 -3.6375e-13 -2.18837e-13 2.72984e-13 0 0 -1.9018e-13 -3.55941e-13 -7.89301e-14 1.14924e-13 0 0 -2.23015e-13 -3.06343e-13 -5.93708e-15 -8.37253e-14 0 0 -2.32236e-13 -2.04027e-13 -8.71046e-14 -8.22716e-14 0 0 -2.21944e-13 -1.5868e-13 -1.73638e-13 -8.45761e-14 0 0 -1.98328e-13 -1.54571e-13 -1.84942e-13 -1.12329e-13 0 0 -1.73379e-13 -1.80769e-13 -1.60698e-13 -1.63061e-13 0 0 -1.70259e-13 -2.1341e-13 -1.28011e-13 -2.30128e-13 0 0 -1.69034e-13 -2.12383e-13 -1.39048e-13 -2.43156e-13 0 0 -1.48425e-13 -2.23548e-13 -1.62891e-13 -2.27104e-13 0 0 -1.2419e-13 -2.81285e-13 -1.95052e-13 -1.36174e-13 0 0 -1.37525e-13 -2.80723e-13 -2.3683e-13 -4.72186e-14 0 0 -1.711e-13 -2.77715e-13 -2.44669e-13 -8.04661e-14 0 0 -1.58788e-13 -3.08247e-13 -2.94529e-13 -6.11015e-14 0 0 -1.53726e-13 -2.90968e-13 -4.60063e-13 -1.01269e-13 0 0 -1.556e-13 -2.69598e-13 -4.53609e-13 -2.36664e-13 0 0 -1.56561e-13 -2.67822e-13 -4.39254e-13 -4.88063e-13 0 0 -1.7053e-13 -2.92699e-13 -3.97843e-13 -5.81931e-13 0 0 -1.75499e-13 -3.15695e-13 -3.83888e-13 -4.91829e-13 0 0 -1.98467e-13 -3.11409e-13 -3.46345e-13 -1.29536e-13 0 0 -2.15363e-13 -3.77056e-13 -1.81175e-13 2.27298e-13 0 0 -1.87282e-13 -4.511e-13 -3.89004e-14 1.58308e-13 0 0 -1.70149e-13 -4.78552e-13 7.08541e-14 -5.97623e-14 0 0 -2.22428e-13 -4.23223e-13 4.10141e-14 -2.16427e-13 0 0 -1.98617e-13 -3.42059e-13 -1.07948e-13 -3.51726e-14 0 0 -7.09617e-14 -3.80552e-13 -1.47466e-13 -6.91355e-14 0 0 -1.41635e-13 -2.66836e-13 -2.81823e-13 -1.7872e-13 0 0 -3.17419e-13 -1.28095e-13 -3.85813e-13 -1.29618e-13 0 0 -3.12014e-13 -2.49238e-13 -2.29475e-13 -2.08221e-13 0 0 -3.19441e-13 -2.88856e-13 -2.66416e-13 -1.30489e-13 0 0 -2.76027e-13 -3.53481e-13 -2.70679e-13 -6.7759e-14 0 0 -2.27642e-13 -4.10909e-13 -2.34693e-13 -1.39868e-13 0 0 -2.82658e-13 -3.15e-13 -3.67393e-13 -9.9308e-14 0 0 -3.10844e-13 -3.02264e-13 -3.70881e-13 -7.84354e-14 0 0 -2.91722e-13 -3.04783e-13 -3.97628e-13 -1.93591e-17 0 0 -2.26212e-13 -3.98127e-13 -2.58607e-13 -1.05351e-13 0 0 -2.73269e-13 -2.98891e-13 -2.66188e-13 -1.59148e-13 0 0 -3.10354e-13 -1.67675e-13 -3.88866e-13 -3.50961e-14 0 0 -2.98562e-13 -1.67894e-13 -3.27863e-13 -7.42343e-14 0 0 -3.0613e-13 -1.46147e-13 -3.26776e-13 -6.7678e-14 0 0 -2.25384e-13 -2.64852e-13 -2.42562e-13 1.71189e-14 0 0 -2.12118e-13 -3.10838e-13 -1.99466e-13 6.53486e-14 0 0 -2.36831e-13 -2.65253e-13 -1.73345e-13 -6.60896e-14 0 0 -1.35579e-13 -3.52103e-13 -1.12108e-13 -1.33815e-13 0 0 -5.77921e-14 -3.78996e-13 -2.07714e-13 -5.66931e-14 0 0 -1.6014e-13 -1.72016e-13 -4.21189e-13 1.17439e-14 0 0 -1.1346e-13 -2.2781e-13 -3.27648e-13 -8.67767e-14 0 0 -1.20647e-14 -3.18436e-13 -1.40814e-13 -3.09917e-13 0 0 -1.3869e-14 -2.50152e-13 -1.5095e-13 -3.63882e-13 0 0 -1.00474e-13 -1.93839e-13 -9.85959e-14 -4.19076e-13 0 0 -2.42547e-13 -3.79103e-14 -7.50283e-14 -4.69257e-13 0 0 -2.40934e-13 1.31203e-14 -1.00258e-13 -4.36864e-13 0 0 -1.01507e-13 -1.25027e-13 -1.29059e-14 -3.73701e-13 0 0 -1.26287e-13 -1.0181e-13 3.23811e-14 -4.5176e-13 0 0 -2.8745e-13 1.76434e-13 -2.85297e-13 -3.4287e-13 0 0 -5.25578e-14 -1.50828e-13 -1.55066e-13 -2.83846e-13 0 0 4.63589e-15 -4.49689e-13 1.23063e-13 -3.26226e-13 0 0 -8.81094e-14 -3.96639e-13 -2.50993e-15 -1.53957e-13 0 0 -1.07671e-13 -2.95402e-13 -1.65519e-13 -6.4097e-14 0 0 -2.48561e-13 -1.75635e-14 -5.37143e-13 2.23538e-13 0 0 -1.21133e-13 -1.13785e-13 -6.06728e-13 2.58354e-13 0 0 1.03178e-13 -6.87339e-13 4.29034e-14 -1.91381e-13 0 0 1.5596e-15 -7.7866e-13 2.34306e-13 -2.41835e-13 0 0 -2.02231e-13 -4.65833e-13 2.29461e-13 -4.21131e-13 0 0 -2.12131e-13 -4.92151e-13 5.75702e-13 -8.43017e-13 0
				</DataArray>
				<DataArray Name="VitesseY" type="Float32" format="ascii">