<?xml version="1.0"?>
<VTKFile type="PolyData">
	<PolyData>
		<Piece NumberOfPoints="1206" NumberOfPolys="1000">
			<Points>
				<DataArray type="Float32" NumberOfComponents="3" format="ascii">
 0 0 0 0.02 0 0 0.04 0 0 0.06 0 0 0.08 0 0 0.1 0 0 0 0.005 0 0.02 0.005 0 0.04 0.005 0 0.06 0.005 0 0.08 0.005 0 0.1 0.005 0 0 0.01 0 0.02 0.01 0 0.04 0.01 0 0.06 0.01 0 0.08 0.01 0 0.1 0.01 0 0 0.015 0 0.02 0.015 0 0.04 0.015 0 0.06 0.015 0 0.08 0.015 0 0.1 0.015 0 0 0.02 0 0.02 0.02 0 0.04 0.02 0 0.06 0.02 0 0.08 0.02 0 0.1 0.02 0 0 0.025 0 0.02 0.025 0 0.04 0.025 0 0.06 0.025 0 0.08 0.025 0 0.1 0.025 0 0 0.03 0 0.02 0.03 0 0.04 0.03 0 0.06 0.03 0 0.08 0.03 0 0.1 0.03 0 0 0.035 0 0.02 0.035 0 0.04 0.035 0 0.06 0.035 0 0.08 0.035 0 0.1 0.035 0 0 0.04 0 0.02 0.04 0 0.04 0.04 0 0.06 0.04 0 0.08 0.04 0 0.1 0.04 0 0 0.045 0 0.02 0.045 0 0.04 0.045 0 0.06 0.045 0 0.08 0.045 0 0.1 0.045 0 0 0.05 0 0.02 0.05 0 0.04 0.05 0 0.06 0.05 0 0.08 0.05 0 0.1 0.05 0 0 0.055 0 0.02 0.055 0 0.04 0.055 0 0.06 0.055 0 0.08 0.055 0 0.1 0.055 0 0 0.06 0 0.02 0.06 0 0.04 0.06 0 0.06 0.06 0 0.08 0.06 0 0.1 0.06 0 0 0.065 0 0.02 0.065 0 0.04 0.065 0 0.06 0.065 0 0.08 0.065 0 0.1 0.065 0 0 0.07 0 0.02 0.07 0 0.04 0.07 0 0.06 0.07 0 0.08 0.07 0 0.1 0.07 0 0 0.075 0 0.02 0.075 0 0.04 0.075 0 0.06 0.075 0 0.08 0.075 0 0.1 0.075 0 0 0.08 0 0.02 0.08 0 0.04 0.08 0 0.06 0.08 0 0.08 0.08 0 0.1 0.08 0 0 0.085 0 0.02 0.085 0 0.04 0.085 0 0.06 0.085 0 0.08 0.085 0 0.1 0.085 0 0 0.09 0 0.02 0.09 0 0.04 0.09 0 0.06 0.09 0 0.08 0.09 0 0.1 0.09 0 0 0.095 0 0.02 0.095 0 0.04 0.095 0 0.06 0.095 0 0.08 0.095 0 0.1 0.095 0 0 0.1 0 0.02 0.1 0 0.04 0.1 0 0.06 0.1 0 0.08 0.1 0 0.1 0.1 0 0 0.105 0 0.02 0.105 0 0.04 0.105 0 0.06 0.105 0 0.08 0.105 0 0.1 0.105 0 0 0.11 0 0.02 0.11 0 0.04 0.11 0 0.06 0.11 0 0.08 0.11 0 0.1 0.11 0 0 0.115 0 0.02 0.115 0 0.04 0.115 0 0.06 0.115 0 0.08 0.115 0 0.1 0.115 0 0 0.12 0 0.02 0.12 0 0.04 0.12 0 0.06 0.12 0 0.08 0.12 0 0.1 0.12 0 0 0.125 0 0.02 0.125 0 0.04 0.125 0 0.06 0.125 0 0.08 0.125 0 0.1 0.125 0 0 0.13 0 0.02 0.13 0 0.04 0.13 0 0.06 0.13 0 0.08 0.13 0 0.1 0.13 0 0 0.135 0 0.02 0.135 0 0.04 0.135 0 0.06 0.135 0 0.08 0.135 0 0.1 0.135 0 0 0.14 0 0.02 0.14 0 0.04 0.14 0 0.06 0.14 0 0.08 0.14 0 0.1 0.14 0 0 0.145 0 0.02 0.145 0 0.04 0.145 0 0.06 0.145 0 0.08 0.145 0 0.1 0.145 0 0 0.15 0 0.02 0.15 0 0.04 0.15 0 0.06 0.15 0 0.08 0.15 0 0.1 0.15 0 0 0.155 0 0.02 0.155 0 0.04 0.155 0 0.06 0.155 0 0.08 0.155 0 0.1 0.155 0 0 0.16 0 0.02 0.16 0 0.04 0.16 0 0.06 0.16 0 0.08 0.16 0 0.1 0.16 0 0 0.165 0 0.02 0.165 0 0.04 0.165 0 0.06 0.165 0 0.08 0.165 0 0.1 0.165 0 0 0.17 0 0.02 0.17 0 0.04 0.17 0 0.06 0.17 0 0.08 0.17 0 0.1 0.17 0 0 0.175 0 0.02 0.175 0 0.04 0.175 0 0.06 0.175 0 0.08 0.175 0 0.1 0.175 0 0 0.18 0 0.02 0.18 0 0.04 0.18 0 0.06 0.18 0 0.08 0.18 0 0.1 0.18 0 0 0.185 0 0.02 0.185 0 0.04 0.185 0 0.06 0.185 0 0.08 0.185 0 0.1 0.185 0 0 0.19 0 0.02 0.19 0 0.04 0.19 0 0.06 0.19 0 0.08 0.19 0 0.1 0.19 0 0 0.195 0 0.02 0.195 0 0.04 0.195 0 0.06 0.195 0 0.08 0.195 0 0.1 0.195 0 0 0.2 0 0.02 0.2 0 0.04 0.2 0 0.06 0.2 0 0.08 0.2 0 0.1 0.2 0 0 0.205 0 0.02 0.205 0 0.04 0.205 0 0.06 0.205 0 0.08 0.205 0 0.1 0.205 0 0 0.21 0 0.02 0.21 0 0.04 0.21 0 0.06 0.21 0 0.08 0.21 0 0.1 0.21 0 0 0.215 0 0.02 0.215 0 0.04 0.215 0 0.06 0.215 0 0.08 0.215 0 0.1 0.215 0 0 0.22 0 0.02 0.22 0 0.04 0.22 0 0.06 0.22 0 0.08 0.22 0 0.1 0.22 0 0 0.225 0 0.02 0.225 0 0.04 0.225 0 0.06 0.225 0 0.08 0.225 0 0.1 0.225 0 0 0.23 0 0.02 0.23 0 0.04 0.23 0 0.06 0.23 0 0.08 0.23 0 0.1 0.23 0 0 0.235 0 0.02 0.235 0 0.04 0.235 0 0.06 0.235 0 0.08 0.235 0 0.1 0.235 0 0 0.24 0 0.02 0.24 0 0.04 0.24 0 0.06 0.24 0 0.08 0.24 0 0.1 0.24 0 0 0.245 0 0.02 0.245 0 0.04 0.245 0 0.06 0.245 0 0.08 0.245 0 0.1 0.245 0 0 0.25 0 0.02 0.25 0 0.04 0.25 0 0.06 0.25 0 0.08 0.25 0 0.1 0.25 0 0 0.255 0 0.02 0.255 0 0.04 0.255 0 0.06 0.255 0 0.08 0.255 0 0.1 0.255 0 0 0.26 0 0.02 0.26 0 0.04 0.26 0 0.06 0.26 0 0.08 0.26 0 0.1 0.26 0 0 0.265 0 0.02 0.265 0 0.04 0.265 0 0.06 0.265 0 0.08 0.265 0 0.1 0.265 0 0 0.27 0 0.02 0.27 0 0.04 0.27 0 0.06 0.27 0 0.08 0.27 0 0.1 0.27 0 0 0.275 0 0.02 0.275 0 0.04 0.275 0 0.06 0.275 0 0.08 0.275 0 0.1 0.275 0 0 0.28 0 0.02 0.28 0 0.04 0.28 0 0.06 0.28 0 0.08 0.28 0 0.1 0.28 0 0 0.285 0 0.02 0.285 0 0.04 0.285 0 0.06 0.285 0 0.08 0.285 0 0.1 0.285 0 0 0.29 0 0.02 0.29 0 0.04 0.29 0 0.06 0.29 0 0.08 0.29 0 0.1 0.29 0 0 0.295 0 0.02 0.295 0 0.04 0.295 0 0.06 0.295 0 0.08 0.295 0 0.1 0.295 0 0 0.3 0 0.02 0.3 0 0.04 0.3 0 0.06 0.3 0 0.08 0.3 0 0.1 0.3 0 0 0.305 0 0.02 0.305 0 0.04 0.305 0 0.06 0.305 0 0.08 0.305 0 0.1 0.305 0 0 0.31 0 0.02 0.31 0 0.04 0.31 0 0.06 0.31 0 0.08 0.31 0 0.1 0.31 0 0 0.315 0 0.02 0.315 0 0.04 0.315 0 0.06 0.315 0 0.08 0.315 0 0.1 0.315 0 0 0.32 0 0.02 0.32 0 0.04 0.32 0 0.06 0.32 0 0.08 0.32 0 0.1 0.32 0 0 0.325 0 0.02 0.325 0 0.04 0.325 0 0.06 0.325 0 0.08 0.325 0 0.1 0.325 0 0 0.33 0 0.02 0.33 0 0.04 0.33 0 0.06 0.33 0 0.08 0.33 0 0.1 0.33 0 0 0.335 0 0.02 0.335 0 0.04 0.335 0 0.06 0.335 0 0.08 0.335 0 0.1 0.335 0 0 0.34 0 0.02 0.34 0 0.04 0.34 0 0.06 0.34 0 0.08 0.34 0 0.1 0.34 0 0 0.345 0 0.02 0.345 0 0.04 0.345 0 0.06 0.345 0 0.08 0.345 0 0.1 0.345 0 0 0.35 0 0.02 0.35 0 0.04 0.35 0 0.06 0.35 0 0.08 0.35 0 0.1 0.35 0 0 0.355 0 0.02 0.355 0 0.04 0.355 0 0.06 0.355 0 0.08 0.355 0 0.1 0.355 0 0 0.36 0 0.02 0.36 0 0.04 0.36 0 0.06 0.36 0 0.08 0.36 0 0.1 0.36 0 0 0.365 0 0.02 0.365 0 0.04 0.365 0 0.06 0.365 0 0.08 0.365 0 0.1 0.365 0 0 0.37 0 0.02 0.37 0 0.04 0.37 0 0.06 0.37 0 0.08 0.37 0 0.1 0.37 0 0 0.375 0 0.02 0.375 0 0.04 0.375 0 0.06 0.375 0 0.08 0.375 0 0.1 0.375 0 0 0.38 0 0.02 0.38 0 0.04 0.38 0 0.06 0.38 0 0.08 0.38 0 0.1 0.38 0 0 0.385 0 0.02 0.385 0 0.04 0.385 0 0.06 0.385 0 0.08 0.385 0 0.1 0.385 0 0 0.39 0 0.02 0.39 0 0.04 0.39 0 0.06 0.39 0 0.08 0.39 0 0.1 0.39 0 0 0.395 0 0.02 0.395 0 0.04 0.395 0 0.06 0.395 0 0.08 0.395 0 0.1 0.395 0 0 0.4 0 0.02 0.4 0 0.04 0.4 0 0.06 0.4 0 0.08 0.4 0 0.1 0.4 0 0 0.405 0 0.02 0.405 0 0.04 0.405 0 0.06 0.405 0 0.08 0.405 0 0.1 0.405 0 0 0.41 0 0.02 0.41 0 0.04 0.41 0 0.06 0.41 0 0.08 0.41 0 0.1 0.41 0 0 0.415 0 0.02 0.415 0 0.04 0.415 0 0.06 0.415 0 0.08 0.415 0 0.1 0.415 0 0 0.42 0 0.02 0.42 0 0.04 0.42 0 0.06 0.42 0 0.08 0.42 0 0.1 0.42 0 0 0.425 0 0.02 0.425 0 0.04 0.425 0 0.06 0.425 0 0.08 0.425 0 0.1 0.425 0 0 0.43 0 0.02 0.43 0 0.04 0.43 0 0.06 0.43 0 0.08 0.43 0 0.1 0.43 0 0 0.435 0 0.02 0.435 0 0.04 0.435 0 0.06 0.435 0 0.08 0.435 0 0.1 0.435 0 0 0.44 0 0.02 0.44 0 0.04 0.44 0 0.06 0.44 0 0.08 0.44 0 0.1 0.44 0 0 0.445 0 0.02 0.445 0 0.04 0.445 0 0.06 0.445 0 0.08 0.445 0 0.1 0.445 0 0 0.45 0 0.02 0.45 0 0.04 0.45 0 0.06 0.45 0 0.08 0.45 0 0.1 0.45 0 0 0.455 0 0.02 0.455 0 0.04 0.455 0 0.06 0.455 0 0.08 0.455 0 0.1 0.455 0 0 0.46 0 0.02 0.46 0 0.04 0.46 0 0.06 0.46 0 0.08 0.46 0 0.1 0.46 0 0 0.465 0 0.02 0.465 0 0.04 0.465 0 0.06 0.465 0 0.08 0.465 0 0.1 0.465 0 0 0.47 0 0.02 0.47 0 0.04 0.47 0 0.06 0.47 0 0.08 0.47 0 0.1 0.47 0 0 0.475 0 0.02 0.475 0 0.04 0.475 0 0.06 0.475 0 0.08 0.475 0 0.1 0.475 0 0 0.48 0 0.02 0.48 0 0.04 0.48 0 0.06 0.48 0 0.08 0.48 0 0.1 0.48 0 0 0.485 0 0.02 0.485 0 0.04 0.485 0 0.06 0.485 0 0.08 0.485 0 0.1 0.485 0 0 0.49 0 0.02 0.49 0 0.04 0.49 0 0.06 0.49 0 0.08 0.49 0 0.1 0.49 0 0 0.495 0 0.02 0.495 0 0.04 0.495 0 0.06 0.495 0 0.08 0.495 0 0.1 0.495 0 0 0.5 0 0.02 0.5 0 0.04 0.5 0 0.06 0.5 0 0.08 0.5 0 0.1 0.5 0 0 0.505 0 0.02 0.505 0 0.04 0.505 0 0.06 0.505 0 0.08 0.505 0 0.1 0.505 0 0 0.51 0 0.02 0.51 0 0.04 0.51 0 0.06 0.51 0 0.08 0.51 0 0.1 0.51 0 0 0.515 0 0.02 0.515 0 0.04 0.515 0 0.06 0.515 0 0.08 0.515 0 0.1 0.515 0 0 0.52 0 0.02 0.52 0 0.04 0.52 0 0.06 0.52 0 0.08 0.52 0 0.1 0.52 0 0 0.525 0 0.02 0.525 0 0.04 0.525 0 0.06 0.525 0 0.08 0.525 0 0.1 0.525 0 0 0.53 0 0.02 0.53 0 0.04 0.53 0 0.06 0.53 0 0.08 0.53 0 0.1 0.53 0 0 0.535 0 0.02 0.535 0 0.04 0.535 0 0.06 0.535 0 0.08 0.535 0 0.1 0.535 0 0 0.54 0 0.02 0.54 0 0.04 0.54 0 0.06 0.54 0 0.08 0.54 0 0.1 0.54 0 0 0.545 0 0.02 0.545 0 0.04 0.545 0 0.06 0.545 0 0.08 0.545 0 0.1 0.545 0 0 0.55 0 0.02 0.55 0 0.04 0.55 0 0.06 0.55 0 0.08 0.55 0 0.1 0.55 0 0 0.555 0 0.02 0.555 0 0.04 0.555 0 0.06 0.555 0 0.08 0.555 0 0.1 0.555 0 0 0.56 0 0.02 0.56 0 0.04 0.56 0 0.06 0.56 0 0.08 0.56 0 0.1 0.56 0 0 0.565 0 0.02 0.565 0 0.04 0.565 0 0.06 0.565 0 0.08 0.565 0 0.1 0.565 0 0 0.57 0 0.02 0.57 0 0.04 0.57 0 0.06 0.57 0 0.08 0.57 0 0.1 0.57 0 0 0.575 0 0.02 0.575 0 0.04 0.575 0 0.06 0.575 0 0.08 0.575 0 0.1 0.575 0 0 0.58 0 0.02 0.58 0 0.04 0.58 0 0.06 0.58 0 0.08 0.58 0 0.1 0.58 0 0 0.585 0 0.02 0.585 0 0.04 0.585 0 0.06 0.585 0 0.08 0.585 0 0.1 0.585 0 0 0.59 0 0.02 0.59 0 0.04 0.59 0 0.06 0.59 0 0.08 0.59 0 0.1 0.59 0 0 0.595 0 0.02 0.595 0 0.04 0.595 0 0.06 0.595 0 0.08 0.595 0 0.1 0.595 0 0 0.6 0 0.02 0.6 0 0.04 0.6 0 0.06 0.6 0 0.08 0.6 0 0.1 0.6 0 0 0.605 0 0.02 0.605 0 0.04 0.605 0 0.06 0.605 0 0.08 0.605 0 0.1 0.605 0 0 0.61 0 0.02 0.61 0 0.04 0.61 0 0.06 0.61 0 0.08 0.61 0 0.1 0.61 0 0 0.615 0 0.02 0.615 0 0.04 0.615 0 0.06 0.615 0 0.08 0.615 0 0.1 0.615 0 0 0.62 0 0.02 0.62 0 0.04 0.62 0 0.06 0.62 0 0.08 0.62 0 0.1 0.62 0 0 0.625 0 0.02 0.625 0 0.04 0.625 0 0.06 0.625 0 0.08 0.625 0 0.1 0.625 0 0 0.63 0 0.02 0.63 0 0.04 0.63 0 0.06 0.63 0 0.08 0.63 0 0.1 0.63 0 0 0.635 0 0.02 0.635 0 0.04 0.635 0 0.06 0.635 0 0.08 0.635 0 0.1 0.635 0 0 0.64 0 0.02 0.64 0 0.04 0.64 0 0.06 0.64 0 0.08 0.64 0 0.1 0.64 0 0 0.645 0 0.02 0.645 0 0.04 0.645 0 0.06 0.645 0 0.08 0.645 0 0.1 0.645 0 0 0.65 0 0.02 0.65 0 0.04 0.65 0 0.06 0.65 0 0.08 0.65 0 0.1 0.65 0 0 0.655 0 0.02 0.655 0 0.04 0.655 0 0.06 0.655 0 0.08 0.655 0 0.1 0.655 0 0 0.66 0 0.02 0.66 0 0.04 0.66 0 0.06 0.66 0 0.08 0.66 0 0.1 0.66 0 0 0.665 0 0.02 0.665 0 0.04 0.665 0 0.06 0.665 0 0.08 0.665 0 0.1 0.665 0 0 0.67 0 0.02 0.67 0 0.04 0.67 0 0.06 0.67 0 0.08 0.67 0 0.1 0.67 0 0 0.675 0 0.02 0.675 0 0.04 0.675 0 0.06 0.675 0 0.08 0.675 0 0.1 0.675 0 0 0.68 0 0.02 0.68 0 0.04 0.68 0 0.06 0.68 0 0.08 0.68 0 0.1 0.68 0 0 0.685 0 0.02 0.685 0 0.04 0.685 0 0.06 0.685 0 0.08 0.685 0 0.1 0.685 0 0 0.69 0 0.02 0.69 0 0.04 0.69 0 0.06 0.69 0 0.08 0.69 0 0.1 
[...]
			<PointData Scalars="VitesseX">
				<DataArray Name="VitesseX" type="Float32" format="ascii">
 0 -1.92912e-14 -6.3583e-17 9.0573e-15 1.1028e-14 0 0 -1.29864e-14 -8.193e-15 1.34767e-14 8.45456e-15 0 0 -8.25171e-15 -1.19072e-14 1.25732e-14 8.62036e-15 0 0 -7.40278e-15 -1.06534e-14 1.16063e-14 1.1342e-14 0 0 -5.17777e-15 -1.26115e-14 1.21961e-14 1.71786e-14 0 0 -9.00679e-17 -1.49535e-14 1.17745e-14 1.95814e-14 0 0 -3.72001e-15 -6.67391e-15 1.15998e-14 1.70064e-14 0 0 -3.05556e-15 -3.88062e-15 2.30267e-14 3.78047e-15 0 0 7.5588e-15 -5.87776e-15 2.15768e-14 6.77923e-15 0 0 6.05747e-15 3.96261e-15 5.38565e-15 2.91939e-14 0 0 -1.59837e-14 3.82422e-14 -1.81946e-14 3.94307e-14 0 0 -1.93828e-14 4.72856e-14 -1.5713e-14 1.8969e-14 0 0 7.62395e-15 7.32656e-16 4.74038e-14 -3.63554e-14 0 0 -2.41504e-14 3.93112e-14 2.81136e-14 -3.26738e-14 0 0 -4.58947e-14 6.99858e-14 -2.57704e-14 1.24234e-14 0 0 -1.41648e-14 -1.56598e-15 1.60443e-14 -5.57617e-15 0 0 -7.41292e-15 -3.51392e-14 4.06265e-14 -1.66952e-14 0 0 -9.70701e-15 -2.78911e-14 3.14208e-14 -1.87188e-14 0 0 -8.68797e-15 -1.69104e-14 -6.3651e-15 9.85548e-15 0 0 1.69583e-14 -5.53647e-14 6.1653e-15 1.85743e-14 0 0 2.72032e-14 -7.01905e-14 4.94313e-15 3.06496e-14 0 0 -7.95826e-15 -2.01801e-14 -5.04298e-14 7.19527e-14 0 0 1.11754e-14 -6.72168e-14 1.15646e-14 3.49739e-14 0 0 2.35351e-14 -7.76978e-14 2.74423e-14 1.85448e-14 0 0 -3.00228e-14 1.69255e-14 -5.13261e-14 5.03318e-14 0 0 -4.33656e-14 4.33562e-14 -5.91017e-14 5.28583e-14 0 0 3.04573e-14 -5.67455e-14 3.70568e-14 2.12829e-14 0 0 4.66909e-14 -7.12347e-14 3.90038e-14 5.83332e-14 0 0 2.92815e-14 -3.65604e-14 4.30544e-14 3.90431e-14 0 0 1.68094e-14 -1.25917e-14 4.28298e-14 2.8543e-14 0 0 1.86592e-15 2.43818e-14 -1.73879e-14 7.25488e-14 0 0 1.99144e-14 -9.55921e-15 2.7437e-14 2.66078e-14 0 0 1.30023e-14 -1.79135e-14 3.22148e-14 2.24484e-14 0 0 5.05289e-14 -6.46071e-14 2.67535e-14 4.64438e-14 0 0 -2.06821e-14 3.90466e-14 -9.41399e-14 1.44382e-13 0 0 -7.01225e-14 6.58547e-14 -8.47443e-14 1.58126e-13 0 0 2.25461e-14 -1.21122e-13 1.35954e-13 5.31394e-14 0 0 -6.98079e-15 -6.83744e-14 7.50057e-14 9.35785e-14 0 0 -4.3717e-14 2.39385e-14 -1.17171e-14 8.27866e-14 0 0 -3.85148e-15 -1.14837e-14 4.80183e-14 -1.67603e-14 0 0 -9.15071e-15 2.13901e-14 3.72994e-14 -5.82416e-14 0 0 2.35711e-14 5.76947e-15 2.93663e-14 -5.67613e-14 0 0 8.28388e-14 -4.96318e-14 -7.27938e-16 1.00527e-14 0 0 5.2649e-14 1.74953e-14 -1.0022e-13 7.46869e-14 0 0 7.53697e-14 -1.1692e-14 -5.84672e-14 4.14065e-14 0 0 1.08779e-13 -5.26908e-14 -5.15775e-14 9.18217e-14 0 0 1.02558e-13 -4.22887e-14 -8.66859e-14 1.48637e-13 0 0 5.79797e-14 -9.11803e-16 -8.35317e-14 1.21055e-13 0 0 2.24702e-14 -1.93656e-15 -3.93893e-14 6.93597e-14 0 0 1.3713e-13 -1.76893e-13 7.92255e-14 1.594e-14 0 0 1.56836e-13 -1.65753e-13 1.37703e-14 6.19526e-14 0 0 1.85935e-13 -1.46181e-13 -2.25777e-14 5.89392e-14 0 0 2.02739e-13 -1.07697e-13 -4.33669e-14 2.1356e-14 0 0 2.1017e-13 -1.10848e-13 2.18606e-14 -7.31647e-14 0 0 1.86019e-13 -3.87551e-14 1.56754e-15 -4.89032e-14 0 0 5.06984e-14 1.25046e-13 -4.41854e-14 -1.55345e-14 0 0 1.27434e-13 4.51909e-14 1.47645e-14 -7.20182e-15 0 0 1.73608e-13 1.05605e-13 -1.47979e-13 1.7679e-13 0 0 2.09232e-13 5.04109e-14 -9.54733e-14 1.75404e-13 0 0 2.16926e-13 -6.1764e-16 2.45998e-14 7.99008e-14 0 0 1.02299e-13 9.54721e-14 1.1751e-15 7.54395e-14 0 0 1.09042e-13 -7.09956e-15 7.73701e-14 1.0497e-14 0 0 1.51848e-13 -1.89399e-14 1.2613e-14 4.37834e-14 0 0 1.49427e-13 1.14481e-14 4.94163e-15 1.07941e-13 0 0 9.62837e-14 4.96861e-14 8.79652e-14 7.52771e-14 0 0 1.25798e-13 8.98444e-14 4.74914e-14 3.28737e-14 0 0 2.41059e-13 -5.93419e-14 9.65932e-14 -5.70281e-14 0 0 1.77016e-13 -3.83712e-14 -1.35848e-14 6.309e-15 0 0 3.01062e-14 2.00412e-13 -2.50196e-13 1.10093e-13 0 0 2.24015e-13 3.49577e-14 -1.46408e-13 7.56025e-14 0 0 3.8805e-13 -1.14227e-13 -1.98501e-14 6.87887e-14 0 0 2.71651e-13 -1.33095e-14 4.22329e-14 -9.12684e-15 0 0 -1.9067e-15 3.19406e-13 -2.63703e-13 2.22647e-13 0 0 2.28787e-14 3.78699e-13 -4.94312e-13 4.05923e-13 0 0 3.35429e-13 3.36975e-14 -2.28108e-13 1.61412e-13 0 0 4.51216e-13 -1.18884e-13 -1.58877e-14 -1.83821e-14 0 0 4.4309e-13 -1.61571e-13 1.30201e-13 -1.56255e-13 0 0 3.70885e-13 8.3196e-15 -1.14556e-13 8.55257e-14 0 0 3.00187e-13 1.62788e-13 -5.3086e-13 4.0719e-13 0 0 3.85239e-13 -2.93025e-14 -4.39243e-13 3.6492e-13 0 0 4.82841e-13 -3.71142e-13 -1.36028e-13 1.9468e-13 0 0 3.87912e-13 -3.508e-13 -3.71136e-14 7.92846e-14 0 0 1.19642e-13 -5.35435e-14 -1.40063e-13 4.05024e-14 0 0 -1.31666e-13 -1.05789e-14 -1.08354e-13 -4.33693e-14 0 0 -1.29046e-13 -7.21421e-14 -3.17525e-14 -8.27408e-14 0 0 -9.56579e-14 -1.7929e-13 -5.88106e-15 -5.33809e-15 0 0 -1.04991e-13 -1.65859e-13 -5.10676e-14 1.26778e-13 0 0 -1.83669e-13 -8.38321e-14 -1.43626e-13 2.26831e-13 0 0 -2.45686e-13 -2.05841e-14 -3.01726e-13 3.18949e-13 0 0 -2.35903e-13 -4.93706e-14 -3.07325e-13 3.97602e-13 0 0 -1.46699e-13 -1.9426e-13 -2.59935e-13 3.71182e-13 0 0 -4.65156e-14 -3.77903e-13 -1.50954e-13 3.02804e-13 0 0 -4.8057e-14 -4.71814e-13 -8.5734e-15 1.66658e-13 0 0 -1.28428e-13 -4.57381e-13 1.14965e-13 3.62165e-14 0 0 -2.67697e-13 -4.06021e-13 2.03859e-13 -7.12596e-14 0 0 -4.01303e-13 -3.14626e-13 2.38704e-13 -1.33593e-13 0 0 -5.16867e-13 -2.20035e-13 2.34483e-13 -1.57366e-13 0 0 -5.72102e-13 -1.57259e-13 2.22082e-13 -2.07491e-13 0 0 -5.65389e-13 -1.30846e-13 2.02206e-13 -2.20469e-13 0 0 -5.54669e-13 -1.08721e-13 1.57784e-13 -2.12532e-13 0 0 -5.26012e-13 -7.37242e-14 9.52955e-14 -1.76383e-13 0 0 -4.66887e-13 -2.99777e-14 4.32352e-14 -1.20415e-13 0 0 -3.50075e-13 -4.28354e-14 4.16467e-14 -5.26273e-14 0 0 -2.18212e-13 -5.96235e-14 4.29746e-14 3.8758e-14 0 0 -9.76842e-14 -9.02491e-14 9.30038e-14 1.66552e-14 0 0 3.1233e-14 -1.76262e-13 2.59596e-13 -9.21404e-15 0 0 1.86614e-13 -1.52227e-13 2.15106e-13 7.76389e-14 0 0 2.56754e-13 -9.7472e-14 1.09275e-13 2.67581e-13 0 0 2.62919e-13 -1.65417e-14 4.36365e-15 4.48602e-13 0 0 2.51202e-13 8.30176e-14 -9.14149e-15 4.74207e-13 0 0 1.92211e-13 1.45143e-13 3.04795e-14 4.31671e-13 0 0 1.13894e-13 1.91359e-13 3.3147e-14 3.86021e-13 0 0 9.41252e-14 2.17567e-13 -4.96196e-14 3.91996e-13 0 0 1.01614e-13 1.93649e-13 -1.64501e-14 3.28571e-13 0 0 1.28045e-13 1.53193e-13 4.20484e-14 2.61093e-13 0 0 1.5948e-13 1.27379e-13 6.25551e-14 1.71744e-13 0 0 2.13575e-13 9.89213e-14 1.43864e-13 8.37487e-15 0 0 3.02002e-13 5.1019e-14 1.94243e-13 5.13158e-15 0 0 3.27144e-13 5.5458e-14 2.08754e-13 -1.74125e-14 0 0 3.1953e-13 7.40445e-14 2.418e-13 -4.06964e-14 0 0 2.95106e-13 1.46368e-13 1.99433e-13 1.69791e-14 0 0 1.86269e-13 3.26271e-13 5.19383e-14 1.45138e-13 0 0 9.46956e-14 4.53616e-13 -3.80201e-14 1.5814e-13 0 0 9.1924e-14 4.88548e-13 -5.74234e-14 1.33224e-13 0 0 1.3876e-13 4.16838e-13 9.34538e-15 4.6631e-15 0 0 2.03944e-13 1.37641e-13 3.15178e-13 -2.50599e-13 0 0 1.98527e-13 -6.77322e-14 3.43156e-13 -2.30399e-13 0 0 1.8336e-13 -4.55502e-14 2.1106e-13 -6.73786e-14 0 0 1.65772e-13 -2.99997e-14 1.3295e-13 -3.46473e-16 0 0 1.01008e-13 1.04335e-14 1.45288e-13 7.80082e-16 0 0 4.98e-14 7.06615e-14 1.3173e-13 -7.20257e-14 0 0 5.20111e-14 1.01867e-13 7.37852e-14 -9.38156e-14 0 0 6.3246e-14 9.07099e-14 7.99606e-14 -9.60174e-14 0 0 6.26122e-14 7.66984e-14 1.12849e-13 -1.3077e-13 0 0 3.7118e-14 9.59187e-14 6.98559e-14 -1.10812e-13 0 0 3.52468e-14 7.95693e-14 3.6401e-14 -4.35038e-14 0 0 2.54849e-14 6.69543e-14 4.28709e-14 -6.50517e-14 0 0 6.6803e-15 5.53891e-14 4.37885e-14 -5.39359e-14 0 0 3.42584e-15 -6.16045e-15 1.099e-13 -3.48822e-14 0 0 -1.67608e-14 -7.96158e-14 1.67628e-13 -4.99511e-14 0 0 -2.64451e-14 -8.48194e-14 1.35975e-13 3.3365e-14 0 0 -5.59729e-14 -6.92816e-14 -1.45183e-14 1.52285e-13 0 0 -7.03342e-14 -5.40772e-14 -1.12997e-13 1.45311e-13 0 0 -4.25472e-14 -9.4094e-14 -5.1124e-14 9.12898e-14 0 0 -3.78097e-16 -1.11449e-13 5.27864e-15 5.78729e-14 0 0 -8.8703e-15 -4.66498e-14 -4.28128e-14 1.33984e-13 0 0 1.75621e-14 -3.23998e-14 1.24039e-14 1.02638e-13 0 0 9.32027e-14 -2.86903e-14 1.09012e-13 5.80251e-14 0 0 6.58563e-14 4.99918e-14 1.26306e-13 6.12563e-16 0 0 7.76462e-14 7.06813e-14 2.39434e-13 3.2073e-14 0 0 8.10241e-14 1.85321e-13 1.60467e-13 3.45564e-13 0 0 1.00051e-13 2.20495e-13 2.1839e-13 3.29474e-13 0 0 1.43144e-13 1.88096e-13 3.0175e-13 2.38048e-13 0 0 1.38266e-13 2.28791e-13 2.70182e-13 2.32607e-13 0 0 1.00624e-13 2.62088e-13 2.97737e-13 1.5544e-13 0 0 7.3574e-14 3.24851e-13 2.51873e-13 1.48841e-13 0 0 1.04461e-13 2.72274e-13 2.81675e-13 1.27775e-13 0 0 1.21979e-13 2.07006e-13 3.38407e-13 7.92532e-14 0 0 1.19269e-13 2.24033e-13 2.86464e-13 1.24158e-13 0 0 7.10491e-14 3.10592e-13 1.29049e-13 2.98632e-13 0 0 1.22816e-13 2.16552e-13 1.96701e-13 3.59646e-13 0 0 2.53035e-13 9.83435e-15 3.82635e-13 3.61213e-13 0 0 3.1299e-13 -7.12719e-14 5.02643e-13 2.94853e-13 0 0 2.41901e-13 8.23839e-14 4.58697e-13 2.47059e-13 0 0 1.27112e-13 3.0425e-13 3.44495e-13 2.9967e-13 0 0 1.73911e-13 2.94218e-13 3.42069e-13 3.51982e-13 0 0 2.08443e-13 2.94597e-13 3.22708e-13 3.32914e-13 0 0 2.29759e-13 3.26892e-13 3.58864e-13 1.79701e-13 0 0 3.69921e-13 1.62855e-13 5.92645e-13 -2.46503e-14 0 0 3.46407e-13 2.58163e-13 5.50471e-13 4.04881e-15 0 0 1.57463e-13 6.27225e-13 2.03325e-13 2.53862e-13 0 0 1.49204e-13 6.33507e-13 2.56702e-13 2.00761e-13 0 0 2.92508e-13 3.98761e-13 4.50471e-13 2.02602e-13 0 0 3.43433e-13 3.18975e-13 4.88139e-13 2.88665e-13 0 0 1.8085e-13 6.18228e-13 2.59534e-13 2.77459e-13 0 0 2.92812e-13 5.24639e-13 3.11621e-13 2.85839e-13 0 0 4.1446e-13 2.68358e-13 6.27633e-13 1.78306e-13 0 0 2.63259e-13 5.13371e-13 4.42818e-13 2.53305e-13 0 0 2.09017e-13 6.48058e-13 2.76659e-13 3.49223e-13 0 0 3.10659e-13 4.91679e-13 3.66288e-13 3.27409e-13 0 0 5.03015e-13 2.62301e-13 6.37625e-13 1.46361e-13 0 0 4.78669e-13 2.88471e-13 6.81152e-13 1.10369e-13 0 0 1.81378e-13 5.24992e-13 5.1408e-13 3.11121e-13 0 0 5.02821e-14 5.96124e-13 4.26625e-13 4.5859e-13 0 0 1.21667e-13 5.48225e-13 3.27176e-13 5.06341e-13 0 0 7.99084e-15 6.94682e-13 2.96225e-13 3.70729e-13 0 0 6.62764e-14 5.98204e-13 5.47717e-13 9.06743e-14 0 0 1.64724e-13 5.55262e-13 5.33369e-13 1.1921e-13 0 0 2.34457e-13 4.95928e-13 4.74477e-13 2.30353e-13 0 0 3.95907e-13 2.36658e-13 6.85269e-13 7.91561e-14 0 0 3.21268e-13 3.61798e-13 3.83441e-13 3.86634e-13 0 0 3.38102e-13 2.37995e-13 5.18537e-13 3.75735e-13 0 0 2.64849e-13 2.37528e-13 8.41602e-13 -9.27007e-14 0 0 4.82334e-14 4.98956e-13 7.33314e-13 -1.84712e-13 0 0 3.34394e-13 1.98072e-13 7.58446e-13 -1.60675e-14 0 0 4.99652e-13 1.0383e-13 6.64658e-13 1.99132e-13 0 0 2.88829e-13 4.37155e-13 4.79848e-13 1.66364e-13 0 0 2.84457e-13 5.4291e-13 4.45549e-13 -2.28123e-14 0 0 2.5809e-13 7.14866e-13 1.29226e-13 2.12938e-13 0 0 -1.47291e-14 1.20765e-12 -4.71816e-13 5.89142e-13 0 0 -1.89685e-13 1.48347e-12 -7.16942e-13 6.51165e-13 0
				</DataArray>
				<DataArray Name="VitesseY" type="Float32" format="ascii">