<?xml version="1.0"?>
<VTKFile type="PolyData">
	<PolyData>
		<Piece NumberOfPoints="1206" NumberOfPolys="1000">
			<Points>
				<DataArray type="Float32" NumberOfComponents="3" format="ascii">
 0 0 0 0.02 0 0 0.04 0 0 0.06 0 0 0.08 0 0 0.1 0 0 0 0.005 0 0.02 0.005 0 0.04 0.005 0 0.06 0.005 0 0.08 0.005 0 0.1 0.005 0 0 0.01 0 0.02 0.01 0 0.04 0.01 0 0.06 0.01 0 0.08 0.01 0 0.1 0.01 0 0 0.015 0 0.02 0.015 0 0.04 0.015 0 0.06 0.015 0 0.08 0.015 0 0.1 0.015 0 0 0.02 0 0.02 0.02 0 0.04 0.02 0 0.06 0.02 0 0.08 0.02 0 0.1 0.02 0 0 0.025 0 0.02 0.025 0 0.04 0.025 0 0.06 0.025 0 0.08 0.025 0 0.1 0.025 0 0 0.03 0 0.02 0.03 0 0.04 0.03 0 0.06 0.03 0 0.08 0.03 0 0.1 0.03 0 0 0.035 0 0.02 0.035 0 0.04 0.035 0 0.06 0.035 0 0.08 0.035 0 0.1 0.035 0 0 0.04 0 0.02 0.04 0 0.04 0.04 0 0.06 0.04 0 0.08 0.04 0 0.1 0.04 0 0 0.045 0 0.02 0.045 0 0.04 0.045 0 0.06 0.045 0 0.08 0.045 0 0.1 0.045 0 0 0.05 0 0.02 0.05 0 0.04 0.05 0 0.06 0.05 0 0.08 0.05 0 0.1 0.05 0 0 0.055 0 0.02 0.055 0 0.04 0.055 0 0.06 0.055 0 0.08 0.055 0 0.1 0.055 0 0 0.06 0 0.02 0.06 0 0.04 0.06 0 0.06 0.06 0 0.08 0.06 0 0.1 0.06 0 0 0.065 0 0.02 0.065 0 0.04 0.065 0 0.06 0.065 0 0.08 0.065 0 0.1 0.065 0 0 0.07 0 0.02 0.07 0 0.04 0.07 0 0.06 0.07 0 0.08 0.07 0 0.1 0.07 0 0 0.075 0 0.02 0.075 0 0.04 0.075 0 0.06 0.075 0 0.08 0.075 0 0.1 0.075 0 0 0.08 0 0.02 0.08 0 0.04 0.08 0 0.06 0.08 0 0.08 0.08 0 0.1 0.08 0 0 0.085 0 0.02 0.085 0 0.04 0.085 0 0.06 0.085 0 0.08 0.085 0 0.1 0.085 0 0 0.09 0 0.02 0.09 0 0.04 0.09 0 0.06 0.09 0 0.08 0.09 0 0.1 0.09 0 0 0.095 0 0.02 0.095 0 0.04 0.095 0 0.06 0.095 0 0.08 0.095 0 0.1 0.095 0 0 0.1 0 0.02 0.1 0 0.04 0.1 0 0.06 0.1 0 0.08 0.1 0 0.1 0.1 0 0 0.105 0 0.02 0.105 0 0.04 0.105 0 0.06 0.105 0 0.08 0.105 0 0.1 0.105 0 0 0.11 0 0.02 0.11 0 0.04 0.11 0 0.06 0.11 0 0.08 0.11 0 0.1 0.11 0 0 0.115 0 0.02 0.115 0 0.04 0.115 0 0.06 0.115 0 0.08 0.115 0 0.1 0.115 0 0 0.12 0 0.02 0.12 0 0.04 0.12 0 0.06 0.12 0 0.08 0.12 0 0.1 0.12 0 0 0.125 0 0.02 0.125 0 0.04 0.125 0 0.06 0.125 0 0.08 0.125 0 0.1 0.125 0 0 0.13 0 0.02 0.13 0 0.04 0.13 0 0.06 0.13 0 0.08 0.13 0 0.1 0.13 0 0 0.135 0 0.02 0.135 0 0.04 0.135 0 0.06 0.135 0 0.08 0.135 0 0.1 0.135 0 0 0.14 0 0.02 0.14 0 0.04 0.14 0 0.06 0.14 0 0.08 0.14 0 0.1 0.14 0 0 0.145 0 0.02 0.145 0 0.04 0.145 0 0.06 0.145 0 0.08 0.145 0 0.1 0.145 0 0 0.15 0 0.02 0.15 0 0.04 0.15 0 0.06 0.15 0 0.08 0.15 0 0.1 0.15 0 0 0.155 0 0.02 0.155 0 0.04 0.155 0 0.06 0.155 0 0.08 0.155 0 0.1 0.155 0 0 0.16 0 0.02 0.16 0 0.04 0.16 0 0.06 0.16 0 0.08 0.16 0 0.1 0.16 0 0 0.165 0 0.02 0.165 0 0.04 0.165 0 0.06 0.165 0 0.08 0.165 0 0.1 0.165 0 0 0.17 0 0.02 0.17 0 0.04 0.17 0 0.06 0.17 0 0.08 0.17 0 0.1 0.17 0 0 0.175 0 0.02 0.175 0 0.04 0.175 0 0.06 0.175 0 0.08 0.175 0 0.1 0.175 0 0 0.18 0 0.02 0.18 0 0.04 0.18 0 0.06 0.18 0 0.08 0.18 0 0.1 0.18 0 0 0.185 0 0.02 0.185 0 0.04 0.185 0 0.06 0.185 0 0.08 0.185 0 0.1 0.185 0 0 0.19 0 0.02 0.19 0 0.04 0.19 0 0.06 0.19 0 0.08 0.19 0 0.1 0.19 0 0 0.195 0 0.02 0.195 0 0.04 0.195 0 0.06 0.195 0 0.08 0.195 0 0.1 0.195 0 0 0.2 0 0.02 0.2 0 0.04 0.2 0 0.06 0.2 0 0.08 0.2 0 0.1 0.2 0 0 0.205 0 0.02 0.205 0 0.04 0.205 0 0.06 0.205 0 0.08 0.205 0 0.1 0.205 0 0 0.21 0 0.02 0.21 0 0.04 0.21 0 0.06 0.21 0 0.08 0.21 0 0.1 0.21 0 0 0.215 0 0.02 0.215 0 0.04 0.215 0 0.06 0.215 0 0.08 0.215 0 0.1 0.215 0 0 0.22 0 0.02 0.22 0 0.04 0.22 0 0.06 0.22 0 0.08 0.22 0 0.1 0.22 0 0 0.225 0 0.02 0.225 0 0.04 0.225 0 0.06 0.225 0 0.08 0.225 0 0.1 0.225 0 0 0.23 0 0.02 0.23 0 0.04 0.23 0 0.06 0.23 0 0.08 0.23 0 0.1 0.23 0 0 0.235 0 0.02 0.235 0 0.04 0.235 0 0.06 0.235 0 0.08 0.235 0 0.1 0.235 0 0 0.24 0 0.02 0.24 0 0.04 0.24 0 0.06 0.24 0 0.08 0.24 0 0.1 0.24 0 0 0.245 0 0.02 0.245 0 0.04 0.245 0 0.06 0.245 0 0.08 0.245 0 0.1 0.245 0 0 0.25 0 0.02 0.25 0 0.04 0.25 0 0.06 0.25 0 0.08 0.25 0 0.1 0.25 0 0 0.255 0 0.02 0.255 0 0.04 0.255 0 0.06 0.255 0 0.08 0.255 0 0.1 0.255 0 0 0.26 0 0.02 0.26 0 0.04 0.26 0 0.06 0.26 0 0.08 0.26 0 0.1 0.26 0 0 0.265 0 0.02 0.265 0 0.04 0.265 0 0.06 0.265 0 0.08 0.265 0 0.1 0.265 0 0 0.27 0 0.02 0.27 0 0.04 0.27 0 0.06 0.27 0 0.08 0.27 0 0.1 0.27 0 0 0.275 0 0.02 0.275 0 0.04 0.275 0 0.06 0.275 0 0.08 0.275 0 0.1 0.275 0 0 0.28 0 0.02 0.28 0 0.04 0.28 0 0.06 0.28 0 0.08 0.28 0 0.1 0.28 0 0 0.285 0 0.02 0.285 0 0.04 0.285 0 0.06 0.285 0 0.08 0.285 0 0.1 0.285 0 0 0.29 0 0.02 0.29 0 0.04 0.29 0 0.06 0.29 0 0.08 0.29 0 0.1 0.29 0 0 0.295 0 0.02 0.295 0 0.04 0.295 0 0.06 0.295 0 0.08 0.295 0 0.1 0.295 0 0 0.3 0 0.02 0.3 0 0.04 0.3 0 0.06 0.3 0 0.08 0.3 0 0.1 0.3 0 0 0.305 0 0.02 0.305 0 0.04 0.305 0 0.06 0.305 0 0.08 0.305 0 0.1 0.305 0 0 0.31 0 0.02 0.31 0 0.04 0.31 0 0.06 0.31 0 0.08 0.31 0 0.1 0.31 0 0 0.315 0 0.02 0.315 0 0.04 0.315 0 0.06 0.315 0 0.08 0.315 0 0.1 0.315 0 0 0.32 0 0.02 0.32 0 0.04 0.32 0 0.06 0.32 0 0.08 0.32 0 0.1 0.32 0 0 0.325 0 0.02 0.325 0 0.04 0.325 0 0.06 0.325 0 0.08 0.325 0 0.1 0.325 0 0 0.33 0 0.02 0.33 0 0.04 0.33 0 0.06 0.33 0 0.08 0.33 0 0.1 0.33 0 0 0.335 0 0.02 0.335 0 0.04 0.335 0 0.06 0.335 0 0.08 0.335 0 0.1 0.335 0 0 0.34 0 0.02 0.34 0 0.04 0.34 0 0.06 0.34 0 0.08 0.34 0 0.1 0.34 0 0 0.345 0 0.02 0.345 0 0.04 0.345 0 0.06 0.345 0 0.08 0.345 0 0.1 0.345 0 0 0.35 0 0.02 0.35 0 0.04 0.35 0 0.06 0.35 0 0.08 0.35 0 0.1 0.35 0 0 0.355 0 0.02 0.355 0 0.04 0.355 0 0.06 0.355 0 0.08 0.355 0 0.1 0.355 0 0 0.36 0 0.02 0.36 0 0.04 0.36 0 0.06 0.36 0 0.08 0.36 0 0.1 0.36 0 0 0.365 0 0.02 0.365 0 0.04 0.365 0 0.06 0.365 0 0.08 0.365 0 0.1 0.365 0 0 0.37 0 0.02 0.37 0 0.04 0.37 0 0.06 0.37 0 0.08 0.37 0 0.1 0.37 0 0 0.375 0 0.02 0.375 0 0.04 0.375 0 0.06 0.375 0 0.08 0.375 0 0.1 0.375 0 0 0.38 0 0.02 0.38 0 0.04 0.38 0 0.06 0.38 0 0.08 0.38 0 0.1 0.38 0 0 0.385 0 0.02 0.385 0 0.04 0.385 0 0.06 0.385 0 0.08 0.385 0 0.1 0.385 0 0 0.39 0 0.02 0.39 0 0.04 0.39 0 0.06 0.39 0 0.08 0.39 0 0.1 0.39 0 0 0.395 0 0.02 0.395 0 0.04 0.395 0 0.06 0.395 0 0.08 0.395 0 0.1 0.395 0 0 0.4 0 0.02 0.4 0 0.04 0.4 0 0.06 0.4 0 0.08 0.4 0 0.1 0.4 0 0 0.405 0 0.02 0.405 0 0.04 0.405 0 0.06 0.405 0 0.08 0.405 0 0.1 0.405 0 0 0.41 0 0.02 0.41 0 0.04 0.41 0 0.06 0.41 0 0.08 0.41 0 0.1 0.41 0 0 0.415 0 0.02 0.415 0 0.04 0.415 0 0.06 0.415 0 0.08 0.415 0 0.1 0.415 0 0 0.42 0 0.02 0.42 0 0.04 0.42 0 0.06 0.42 0 0.08 0.42 0 0.1 0.42 0 0 0.425 0 0.02 0.425 0 0.04 0.425 0 0.06 0.425 0 0.08 0.425 0 0.1 0.425 0 0 0.43 0 0.02 0.43 0 0.04 0.43 0 0.06 0.43 0 0.08 0.43 0 0.1 0.43 0 0 0.435 0 0.02 0.435 0 0.04 0.435 0 0.06 0.435 0 0.08 0.435 0 0.1 0.435 0 0 0.44 0 0.02 0.44 0 0.04 0.44 0 0.06 0.44 0 0.08 0.44 0 0.1 0.44 0 0 0.445 0 0.02 0.445 0 0.04 0.445 0 0.06 0.445 0 0.08 0.445 0 0.1 0.445 0 0 0.45 0 0.02 0.45 0 0.04 0.45 0 0.06 0.45 0 0.08 0.45 0 0.1 0.45 0 0 0.455 0 0.02 0.455 0 0.04 0.455 0 0.06 0.455 0 0.08 0.455 0 0.1 0.455 0 0 0.46 0 0.02 0.46 0 0.04 0.46 0 0.06 0.46 0 0.08 0.46 0 0.1 0.46 0 0 0.465 0 0.02 0.465 0 0.04 0.465 0 0.06 0.465 0 0.08 0.465 0 0.1 0.465 0 0 0.47 0 0.02 0.47 0 0.04 0.47 0 0.06 0.47 0 0.08 0.47 0 0.1 0.47 0 0 0.475 0 0.02 0.475 0 0.04 0.475 0 0.06 0.475 0 0.08 0.475 0 0.1 0.475 0 0 0.48 0 0.02 0.48 0 0.04 0.48 0 0.06 0.48 0 0.08 0.48 0 0.1 0.48 0 0 0.485 0 0.02 0.485 0 0.04 0.485 0 0.06 0.485 0 0.08 0.485 0 0.1 0.485 0 0 0.49 0 0.02 0.49 0 0.04 0.49 0 0.06 0.49 0 0.08 0.49 0 0.1 0.49 0 0 0.495 0 0.02 0.495 0 0.04 0.495 0 0.06 0.495 0 0.08 0.495 0 0.1 0.495 0 0 0.5 0 0.02 0.5 0 0.04 0.5 0 0.06 0.5 0 0.08 0.5 0 0.1 0.5 0 0 0.505 0 0.02 0.505 0 0.04 0.505 0 0.06 0.505 0 0.08 0.505 0 0.1 0.505 0 0 0.51 0 0.02 0.51 0 0.04 0.51 0 0.06 0.51 0 0.08 0.51 0 0.1 0.51 0 0 0.515 0 0.02 0.515 0 0.04 0.515 0 0.06 0.515 0 0.08 0.515 0 0.1 0.515 0 0 0.52 0 0.02 0.52 0 0.04 0.52 0 0.06 0.52 0 0.08 0.52 0 0.1 0.52 0 0 0.525 0 0.02 0.525 0 0.04 0.525 0 0.06 0.525 0 0.08 0.525 0 0.1 0.525 0 0 0.53 0 0.02 0.53 0 0.04 0.53 0 0.06 0.53 0 0.08 0.53 0 0.1 0.53 0 0 0.535 0 0.02 0.535 0 0.04 0.535 0 0.06 0.535 0 0.08 0.535 0 0.1 0.535 0 0 0.54 0 0.02 0.54 0 0.04 0.54 0 0.06 0.54 0 0.08 0.54 0 0.1 0.54 0 0 0.545 0 0.02 0.545 0 0.04 0.545 0 0.06 0.545 0 0.08 0.545 0 0.1 0.545 0 0 0.55 0 0.02 0.55 0 0.04 0.55 0 0.06 0.55 0 0.08 0.55 0 0.1 0.55 0 0 0.555 0 0.02 0.555 0 0.04 0.555 0 0.06 0.555 0 0.08 0.555 0 0.1 0.555 0 0 0.56 0 0.02 0.56 0 0.04 0.56 0 0.06 0.56 0 0.08 0.56 0 0.1 0.56 0 0 0.565 0 0.02 0.565 0 0.04 0.565 0 0.06 0.565 0 0.08 0.565 0 0.1 0.565 0 0 0.57 0 0.02 0.57 0 0.04 0.57 0 0.06 0.57 0 0.08 0.57 0 0.1 0.57 0 0 0.575 0 0.02 0.575 0 0.04 0.575 0 0.06 0.575 0 0.08 0.575 0 0.1 0.575 0 0 0.58 0 0.02 0.58 0 0.04 0.58 0 0.06 0.58 0 0.08 0.58 0 0.1 0.58 0 0 0.585 0 0.02 0.585 0 0.04 0.585 0 0.06 0.585 0 0.08 0.585 0 0.1 0.585 0 0 0.59 0 0.02 0.59 0 0.04 0.59 0 0.06 0.59 0 0.08 0.59 0 0.1 0.59 0 0 0.595 0 0.02 0.595 0 0.04 0.595 0 0.06 0.595 0 0.08 0.595 0 0.1 0.595 0 0 0.6 0 0.02 0.6 0 0.04 0.6 0 0.06 0.6 0 0.08 0.6 0 0.1 0.6 0 0 0.605 0 0.02 0.605 0 0.04 0.605 0 0.06 0.605 0 0.08 0.605 0 0.1 0.605 0 0 0.61 0 0.02 0.61 0 0.04 0.61 0 0.06 0.61 0 0.08 0.61 0 0.1 0.61 0 0 0.615 0 0.02 0.615 0 0.04 0.615 0 0.06 0.615 0 0.08 0.615 0 0.1 0.615 0 0 0.62 0 0.02 0.62 0 0.04 0.62 0 0.06 0.62 0 0.08 0.62 0 0.1 0.62 0 0 0.625 0 0.02 0.625 0 0.04 0.625 0 0.06 0.625 0 0.08 0.625 0 0.1 0.625 0 0 0.63 0 0.02 0.63 0 0.04 0.63 0 0.06 0.63 0 0.08 0.63 0 0.1 0.63 0 0 0.635 0 0.02 0.635 0 0.04 0.635 0 0.06 0.635 0 0.08 0.635 0 0.1 0.635 0 0 0.64 0 0.02 0.64 0 0.04 0.64 0 0.06 0.64 0 0.08 0.64 0 0.1 0.64 0 0 0.645 0 0.02 0.645 0 0.04 0.645 0 0.06 0.645 0 0.08 0.645 0 0.1 0.645 0 0 0.65 0 0.02 0.65 0 0.04 0.65 0 0.06 0.65 0 0.08 0.65 0 0.1 0.65 0 0 0.655 0 0.02 0.655 0 0.04 0.655 0 0.06 0.655 0 0.08 0.655 0 0.1 0.655 0 0 0.66 0 0.02 0.66 0 0.04 0.66 0 0.06 0.66 0 0.08 0.66 0 0.1 0.66 0 0 0.665 0 0.02 0.665 0 0.04 0.665 0 0.06 0.665 0 0.08 0.665 0 0.1 0.665 0 0 0.67 0 0.02 0.67 0 0.04 0.67 0 0.06 0.67 0 0.08 0.67 0 0.1 0.67 0 0 0.675 0 0.02 0.675 0 0.04 0.675 0 0.06 0.675 0 0.08 0.675 0 0.1 0.675 0 0 0.68 0 0.02 0.68 0 0.04 0.68 0 0.06 0.68 0 0.08 0.68 0 0.1 0.68 0 0 0.685 0 0.02 0.685 0 0.04 0.685 0 0.06 0.685 0 0.08 0.685 0 0.1 0.685 0 0 0.69 0 0.02 0.69 0 0.04 0.69 0 0.06 0.69 0 0.08 0.69 0 0.1 
[...]
			<PointData Scalars="VitesseX">
				<DataArray Name="VitesseX" type="Float32" format="ascii">
 0 6.89495e-15 -5.89531e-14 3.20121e-14 1.08554e-14 0 0 5.97996e-15 -5.36246e-14 2.10428e-14 1.84568e-14 0 0 -2.59398e-14 -1.44228e-15 -2.33601e-14 3.95136e-14 0 0 7.77479e-15 -2.88575e-14 -5.78369e-15 2.89215e-14 0 0 1.21968e-14 -2.50826e-14 -2.71062e-14 3.79547e-14 0 0 -5.20625e-14 3.08752e-14 -6.72726e-14 4.35127e-14 0 0 -2.87441e-14 -5.26671e-14 4.0853e-14 -4.57876e-14 0 0 2.58229e-14 -1.24826e-13 1.12292e-13 -1.27276e-13 0 0 4.76817e-15 -7.84232e-14 3.18833e-14 -7.01951e-14 0 0 -6.26254e-14 2.68359e-14 -1.1282e-13 5.56534e-14 0 0 -1.31114e-14 -4.22309e-14 -9.28354e-14 7.12244e-14 0 0 -5.33126e-14 -2.18219e-14 -8.92854e-14 2.13235e-14 0 0 3.05664e-14 -1.32637e-13 3.13025e-14 -1.00794e-13 0 0 -2.85258e-14 -5.76524e-14 -7.88691e-15 -7.93194e-14 0 0 -1.04799e-13 8.6294e-15 -7.92489e-14 -1.63581e-14 0 0 4.71422e-14 -2.29583e-13 8.84496e-14 -7.88377e-14 0 0 -1.25552e-13 1.35299e-14 -6.28617e-14 7.50935e-15 0 0 -7.52852e-14 -6.4713e-15 -7.24855e-14 1.00698e-13 0 0 -5.9856e-14 7.28149e-15 -1.39039e-13 2.04851e-13 0 0 -1.00774e-13 3.55677e-14 -1.19687e-13 1.26676e-13 0 0 6.23752e-14 -2.22775e-13 1.3957e-13 -1.13721e-13 0 0 3.81109e-14 -2.01732e-13 9.57861e-14 -1.14373e-13 0 0 -9.21987e-14 1.85491e-14 -1.90105e-13 3.75724e-14 0 0 -1.58475e-13 1.26535e-13 -3.01378e-13 6.06204e-14 0 0 1.35896e-14 -1.74498e-13 3.07938e-14 -1.73849e-13 0 0 1.92693e-13 -4.33323e-13 2.6934e-13 -3.49484e-13 0 0 8.52454e-15 -1.07541e-13 -6.92064e-14 -1.30172e-13 0 0 -1.36506e-13 1.83401e-13 -3.8183e-13 1.17479e-13 0 0 -2.95031e-14 4.062e-14 -2.43296e-13 3.52655e-14 0 0 1.03149e-13 -2.26801e-13 6.95609e-14 -1.73479e-13 0 0 1.34609e-15 -1.58044e-13 5.73267e-14 -1.49866e-13 0 0 1.10089e-14 -1.72004e-13 4.24274e-14 -1.43855e-13 0 0 2.16888e-14 -1.38295e-13 -2.88612e-14 -9.80015e-14 0 0 -2.05532e-13 2.02495e-13 -3.4072e-13 1.00041e-13 0 0 1.10069e-15 -1.56348e-13 -2.26569e-15 -1.09365e-13 0 0 9.19045e-14 -3.66573e-13 1.90434e-13 -1.81665e-13 0 0 1.03615e-13 -3.23631e-13 3.77665e-14 1.18892e-13 0 0 -1.39505e-13 1.31392e-13 -3.8844e-13 5.11833e-13 0 0 -1.33569e-13 1.2334e-13 -3.87716e-13 5.49485e-13 0 0 4.92211e-14 -2.1757e-13 -7.88426e-14 2.78559e-13 0 0 7.48952e-15 -2.03415e-13 2.64469e-14 -4.52697e-15 0 0 7.7435e-14 -2.98289e-13 1.56078e-13 -2.16784e-13 0 0 -1.49902e-13 4.28469e-14 -1.40402e-13 -7.81037e-14 0 0 -4.87277e-14 -1.14558e-13 3.12589e-14 -2.14206e-13 0 0 2.36745e-13 -5.25103e-13 3.37344e-13 -3.86335e-13 0 0 -5.39414e-14 -5.71455e-14 -2.04141e-13 3.44863e-14 0 0 1.65294e-14 -2.83501e-14 -4.5872e-13 3.47351e-13 0 0 -2.22709e-14 6.47785e-15 -4.80639e-13 3.17628e-13 0 0 -1.58605e-13 1.24861e-14 -2.92788e-13 2.95166e-14 0 0 1.48192e-13 -5.70456e-13 2.70855e-13 -3.43099e-13 0 0 1.41956e-13 -6.95962e-13 4.14211e-13 -3.90132e-13 0 0 1.97988e-13 -7.23381e-13 2.16239e-13 -1.40896e-14 0 0 -3.79743e-13 2.12604e-13 -6.56277e-13 6.07651e-13 0 0 -1.69192e-13 8.51042e-15 -4.00647e-13 3.26725e-13 0 0 1.9051e-13 -6.74178e-13 2.37972e-13 -6.11347e-14 0 0 -3.20079e-13 -1.87896e-13 -1.10032e-13 1.87782e-13 0 0 1.20663e-13 -5.68806e-13 2.05842e-13 -1.57586e-13 0 0 1.61525e-14 -2.90444e-13 5.38946e-14 -2.29864e-13 0 0 9.16637e-14 -3.33582e-13 1.04531e-13 -2.34423e-13 0 0 3.31185e-13 -6.57223e-13 3.09423e-13 -2.10192e-13 0 0 -1.83473e-13 -7.92905e-14 -2.39891e-13 3.0114e-13 0 0 -2.76472e-13 4.29606e-14 -4.06054e-13 4.35582e-13 0 0 -2.23987e-13 -9.63963e-14 -1.33975e-13 1.39534e-13 0 0 1.11199e-13 -5.11827e-13 5.04743e-13 -5.00906e-13 0 0 7.13419e-14 -4.07515e-13 4.28819e-13 -4.72058e-13 0 0 -2.60053e-13 1.25809e-14 -1.45246e-13 5.95718e-14 0 0 -2.16668e-13 1.62053e-14 -3.2715e-13 2.47688e-13 0 0 -2.29993e-13 2.95195e-14 -2.97261e-13 1.99658e-13 0 0 1.52357e-13 -4.35053e-13 2.36344e-13 -2.85712e-13 0 0 2.24414e-13 -4.9202e-13 4.06756e-14 -1.17192e-14 0 0 -4.84763e-13 3.22458e-13 -7.43152e-13 6.09194e-13 0 0 -6.44529e-14 -2.87867e-13 -5.71192e-14 6.5303e-14 0 0 1.36162e-13 -7.15125e-13 3.39995e-13 -4.55247e-14 0 0 1.29971e-13 -7.96321e-13 4.0967e-13 2.5071e-13 0 0 -1.53685e-13 -2.56021e-13 -1.87583e-13 8.43256e-13 0 0 -5.07891e-13 1.56611e-13 -7.51989e-13 1.3247e-12 0 0 1.09842e-13 -8.44024e-13 2.49019e-13 3.37292e-13 0 0 -1.09323e-13 -6.58681e-13 3.66591e-13 -2.84e-13 0 0 -9.19793e-15 -6.47237e-13 3.04272e-13 -4.82824e-13 0 0 -3.42745e-13 -5.35312e-14 -2.06144e-13 -2.85985e-13 0 0 -2.75289e-13 -3.39271e-13 -2.04067e-13 1.06676e-13 0 0 2.51093e-13 -9.49155e-13 -2.64885e-13 1.75143e-13 0 0 -6.11791e-13 4.30235e-13 -1.37357e-12 3.39793e-13 0 0 -2.16811e-13 -1.40414e-13 -5.57074e-13 -2.08913e-13 0 0 5.65496e-13 -1.47784e-12 7.62859e-13 -8.49277e-13 0 0 -3.81058e-13 -1.63653e-13 -2.27657e-13 -5.64959e-13 0 0 -7.19656e-13 6.71423e-13 -1.24779e-12 -1.71811e-13 0 0 1.58703e-14 -4.56207e-13 -3.1122e-13 -5.54206e-13 0 0 -5.85526e-15 -5.71245e-13 9.42361e-14 -9.79736e-13 0 0 2.45994e-13 -7.54097e-13 1.7345e-13 -8.93928e-13 0 0 -1.3009e-13 9.84057e-14 -6.1791e-13 -3.25128e-13 0 0 -4.52295e-13 7.41612e-13 -1.30325e-12 -5.8073e-14 0 0 1.57522e-13 -5.2741e-13 -1.23371e-13 -4.30962e-13 0 0 7.43147e-14 -6.50427e-13 2.87014e-13 -8.1915e-13 0 0 3.8152e-13 -8.95711e-13 2.75626e-14 -4.10143e-13 0 0 -7.66441e-13 7.00503e-13 -1.32642e-12 3.71673e-13 0 0 2.56069e-14 -1.35618e-13 -5.32104e-13 -1.06854e-13 0 0 3.80008e-13 -8.2394e-13 1.78585e-13 -3.78781e-13 0 0 -3.55095e-13 -2.85191e-13 4.20332e-13 -7.49493e-13 0 0 2.92274e-13 -7.77769e-13 2.73265e-13 -1.90304e-13 0 0 4.54655e-14 -4.3389e-13 -2.0418e-13 2.15504e-13 0 0 -3.25615e-13 -2.16962e-13 -3.57697e-13 1.35638e-13 0 0 -3.4567e-13 -2.92643e-13 -2.50957e-13 -1.01336e-13 0 0 -2.7275e-13 -3.33571e-13 -2.98514e-13 -6.15836e-14 0 0 -8.37888e-14 -3.25636e-13 -3.8426e-13 5.69352e-14 0 0 -5.14112e-13 3.20426e-13 -8.6242e-13 3.16079e-13 0 0 -2.60313e-13 -8.0002e-14 -3.95842e-13 6.48623e-14 0 0 2.68489e-13 -9.36683e-13 5.33188e-13 -6.98915e-13 0 0 2.84197e-13 -9.43871e-13 4.84172e-13 -6.68397e-13 0 0 -2.05772e-13 5.87057e-15 -6.69257e-13 1.1308e-13 0 0 -7.43338e-13 9.0926e-13 -1.55013e-12 5.44961e-13 0 0 -1.7361e-13 -1.29785e-13 -5.151e-13 -2.42205e-14 0 0 3.58946e-13 -9.98703e-13 4.9254e-13 -9.58157e-13 0 0 3.28819e-13 -9.12932e-13 4.508e-13 -1.09217e-12 0 0 -2.58131e-13 7.71671e-14 -5.69773e-13 -3.86869e-13 0 0 -7.26887e-13 7.06294e-13 -1.12218e-12 -2.60904e-14 0 0 -2.499e-13 -3.11878e-13 -1.24257e-13 -3.89962e-13 0 0 4.28169e-13 -1.20698e-12 6.80237e-13 -1.03925e-12 0 0 -1.29451e-13 -2.95148e-13 -2.57047e-13 -5.34962e-13 0 0 -1.75064e-13 -3.87496e-13 -3.7387e-13 2.21742e-14 0 0 -3.47098e-13 -2.09833e-13 -4.86684e-13 4.18974e-14 0 0 -5.64204e-13 -1.92533e-13 -3.93819e-13 3.007e-14 0 0 4.13882e-13 -1.48604e-12 6.35938e-13 -6.91316e-13 0 0 -3.29309e-13 -6.14377e-14 -7.56274e-13 -1.72693e-13 0 0 -2.88699e-13 -2.02093e-13 -7.31091e-13 2.75655e-13 0 0 -3.19456e-13 -2.37668e-13 -4.49511e-13 -1.99266e-15 0 0 -5.84435e-13 -1.98103e-13 -2.81601e-13 -1.44325e-13 0 0 4.77785e-13 -1.65067e-12 8.4127e-13 -8.02803e-13 0 0 -2.10485e-13 -3.33086e-13 -4.35121e-13 -2.57262e-13 0 0 -2.63961e-13 -3.23482e-13 -5.44155e-13 1.80523e-13 0 0 -2.61818e-13 -3.6742e-13 -3.13962e-13 -1.17446e-13 0 0 -5.41634e-13 -3.22328e-13 -1.20483e-13 -2.71037e-13 0 0 3.7792e-13 -1.58581e-12 9.59155e-13 -1.01724e-12 0 0 -2.73424e-13 -2.57945e-13 -2.82951e-13 -5.79875e-13 0 0 -2.45415e-13 -3.12383e-13 -4.97868e-13 7.54712e-14 0 0 -2.56426e-13 -2.96296e-13 -4.74793e-13 3.65969e-14 0 0 -4.69008e-13 -2.39127e-13 -4.19672e-13 -3.04823e-14 0 0 4.32647e-13 -1.4426e-12 5.26714e-13 -6.37745e-13 0 0 -1.42009e-13 -2.00406e-13 -5.74071e-13 -4.08434e-13 0 0 -2.52469e-13 -1.04488e-13 -5.87053e-13 -1.99502e-13 0 0 -4.00459e-14 -6.03323e-13 -2.42871e-13 -1.7573e-13 0 0 -7.52432e-13 5.14699e-13 -1.41683e-12 2.59414e-13 0 0 3.65077e-13 -9.61348e-13 3.33688e-14 -8.00841e-13 0 0 6.20294e-13 -1.52718e-12 4.96213e-13 -8.59035e-13 0 0 -8.69461e-13 5.02653e-13 -1.67505e-12 5.49441e-13 0 0 -3.29064e-13 -4.15235e-13 -1.07029e-12 5.24997e-13 0 0 -4.30138e-13 -4.42809e-13 -7.03445e-13 6.34931e-14 0 0 1.21088e-13 -1.03573e-12 1.45434e-13 -7.33867e-13 0 0 5.23531e-13 -1.58337e-12 4.01457e-13 -3.31542e-13 0 0 -8.51777e-13 4.98086e-13 -2.03857e-12 1.67037e-12 0 0 -2.58571e-13 -4.03462e-13 -1.34913e-12 1.55463e-12 0 0 -3.53869e-13 -5.74486e-13 -5.57996e-13 2.324e-13 0 0 2.05376e-13 -1.11224e-12 1.9853e-13 -1.21782e-12 0 0 2.17738e-13 -1.11298e-12 1.66842e-13 -1.35501e-12 0 0 -4.08936e-13 -4.56286e-13 -5.93611e-13 -4.39711e-13 0 0 -4.58946e-13 -2.14274e-13 -6.83359e-13 -4.23225e-13 0 0 -5.29507e-13 -2.60544e-13 -2.61933e-13 -5.56391e-13 0 0 3.83876e-13 -1.43614e-12 6.42729e-13 -7.85792e-13 0 0 -1.02086e-13 -1.94307e-13 -1.02547e-12 2.13045e-13 0 0 -4.9785e-13 6.15562e-13 -2.37548e-12 1.26456e-12 0 0 -6.02486e-13 6.33658e-13 -2.07999e-12 6.31719e-13 0 0 -2.28883e-15 -1.1167e-12 4.26556e-13 -9.10257e-13 0 0 7.29182e-13 -2.50615e-12 1.96764e-12 -2.22155e-12 0 0 -1.35554e-13 -6.85742e-13 -3.55822e-13 -1.1212e-12 0 0 -7.23902e-13 7.29759e-13 -2.4142e-12 6.46832e-13 0 0 -5.69592e-13 5.46625e-13 -2.02053e-12 2.71452e-13 0 0 9.61451e-14 -1.02902e-12 -1.30965e-13 -8.82205e-13 0 0 5.59471e-13 -1.92881e-12 8.94325e-13 -2.38103e-12 0 0 -4.0192e-13 -4.84969e-13 -1.7746e-13 -2.58795e-12 0 0 -6.92452e-14 -1.0761e-12 3.79427e-13 -1.98789e-12 0 0 5.56416e-14 -1.11844e-12 3.00186e-13 -1.34223e-12 0 0 -9.97684e-13 6.7724e-13 -1.80005e-12 -5.99551e-14 0 0 -5.25042e-14 -5.77382e-13 -1.15959e-12 -3.28828e-13 0 0 -1.48888e-13 -7.24124e-13 -4.62508e-13 -9.05444e-13 0 0 -1.16544e-13 -1.0811e-12 3.96893e-13 -1.02864e-12 0 0 1.08024e-13 -1.06757e-12 2.2685e-14 -7.73189e-13 0 0 -7.60418e-13 5.23329e-13 -1.94861e-12 1.96265e-13 0 0 4.40365e-14 -6.28844e-13 -1.15924e-12 -1.08071e-13 0 0 -9.78532e-14 -7.1379e-13 -4.49692e-13 -9.80742e-13 0 0 -6.56723e-15 -1.15996e-12 5.16118e-13 -1.32183e-12 0 0 2.18169e-13 -1.25648e-12 3.02687e-13 -8.84487e-13 0 0 -8.37032e-13 5.35312e-13 -1.94641e-12 2.83332e-13 0 0 -5.16543e-14 -5.62884e-13 -1.38434e-12 -3.5765e-14 0 0 -1.22504e-13 -7.58409e-13 -5.62512e-13 -7.69837e-13 0 0 -8.92473e-14 -1.08651e-12 2.24414e-13 -8.37224e-13 0 0 1.19272e-13 -1.10833e-12 -1.66256e-13 -4.44015e-13 0 0 -9.17049e-13 6.61316e-13 -2.21327e-12 5.60287e-13 0 0 -1.59233e-14 -5.96449e-13 -1.32982e-12 1.668e-13 0 0 -6.94863e-14 -8.05608e-13 -5.88158e-13 -5.23935e-13 0 0 1.54624e-13 -1.37003e-12 1.88976e-13 -8.40362e-13 0 0 4.73255e-13 -1.27692e-12 -8.15366e-13 -3.94462e-13 0 0 -1.25627e-12 1.32909e-12 -3.40443e-12 6.5212e-13 0 0 6.46901e-13 -1.72515e-12 1.78437e-13 -1.25331e-12 0 0 1.29947e-12 -2.9506e-12 1.74442e-12 -1.88517e-12 0 0 -7.40259e-13 3.58047e-14 -1.63769e-12 3.6602e-13 0 0 -8.13892e-13 4.42275e-13 -2.94915e-12 1.56689e-12 0 0 -1.27398e-12 7.62655e-13 -2.91578e-12 1.55622e-12 0 0 5.56219e-13 -2.25068e-12 8.37418e-13 -8.17303e-13 0 0 7.77755e-13 -2.64669e-12 1.35523e-12 -1.13195e-12 0 0 -9.90336e-13 2.97123e-13 -2.4296e-12 1.34835e-12 0 0 -7.59018e-13 3.41085e-13 -3.27372e-12 2.15196e-12 0
				</DataArray>
				<DataArray Name="VitesseY" type="Float32" format="ascii">