<?xml version="1.0"?>
<VTKFile type="PolyData">
	<PolyData>
		<Piece NumberOfPoints="1206" NumberOfPolys="1000">
			<Points>
				<DataArray type="Float32" NumberOfComponents="3" format="ascii">
 0 0 0 0.02 0 0 0.04 0 0 0.06 0 0 0.08 0 0 0.1 0 0 0 0.005 0 0.02 0.005 0 0.04 0.005 0 0.06 0.005 0 0.08 0.005 0 0.1 0.005 0 0 0.01 0 0.02 0.01 0 0.04 0.01 0 0.06 0.01 0 0.08 0.01 0 0.1 0.01 0 0 0.015 0 0.02 0.015 0 0.04 0.015 0 0.06 0.015 0 0.08 0.015 0 0.1 0.015 0 0 0.02 0 0.02 0.02 0 0.04 0.02 0 0.06 0.02 0 0.08 0.02 0 0.1 0.02 0 0 0.025 0 0.02 0.025 0 0.04 0.025 0 0.06 0.025 0 0.08 0.025 0 0.1 0.025 0 0 0.03 0 0.02 0.03 0 0.04 0.03 0 0.06 0.03 0 0.08 0.03 0 0.1 0.03 0 0 0.035 0 0.02 0.035 0 0.04 0.035 0 0.06 0.035 0 0.08 0.035 0 0.1 0.035 0 0 0.04 0 0.02 0.04 0 0.04 0.04 0 0.06 0.04 0 0.08 0.04 0 0.1 0.04 0 0 0.045 0 0.02 0.045 0 0.04 0.045 0 0.06 0.045 0 0.08 0.045 0 0.1 0.045 0 0 0.05 0 0.02 0.05 0 0.04 0.05 0 0.06 0.05 0 0.08 0.05 0 0.1 0.05 0 0 0.055 0 0.02 0.055 0 0.04 0.055 0 0.06 0.055 0 0.08 0.055 0 0.1 0.055 0 0 0.06 0 0.02 0.06 0 0.04 0.06 0 0.06 0.06 0 0.08 0.06 0 0.1 0.06 0 0 0.065 0 0.02 0.065 0 0.04 0.065 0 0.06 0.065 0 0.08 0.065 0 0.1 0.065 0 0 0.07 0 0.02 0.07 0 0.04 0.07 0 0.06 0.07 0 0.08 0.07 0 0.1 0.07 0 0 0.075 0 0.02 0.075 0 0.04 0.075 0 0.06 0.075 0 0.08 0.075 0 0.1 0.075 0 0 0.08 0 0.02 0.08 0 0.04 0.08 0 0.06 0.08 0 0.08 0.08 0 0.1 0.08 0 0 0.085 0 0.02 0.085 0 0.04 0.085 0 0.06 0.085 0 0.08 0.085 0 0.1 0.085 0 0 0.09 0 0.02 0.09 0 0.04 0.09 0 0.06 0.09 0 0.08 0.09 0 0.1 0.09 0 0 0.095 0 0.02 0.095 0 0.04 0.095 0 0.06 0.095 0 0.08 0.095 0 0.1 0.095 0 0 0.1 0 0.02 0.1 0 0.04 0.1 0 0.06 0.1 0 0.08 0.1 0 0.1 0.1 0 0 0.105 0 0.02 0.105 0 0.04 0.105 0 0.06 0.105 0 0.08 0.105 0 0.1 0.105 0 0 0.11 0 0.02 0.11 0 0.04 0.11 0 0.06 0.11 0 0.08 0.11 0 0.1 0.11 0 0 0.115 0 0.02 0.115 0 0.04 0.115 0 0.06 0.115 0 0.08 0.115 0 0.1 0.115 0 0 0.12 0 0.02 0.12 0 0.04 0.12 0 0.06 0.12 0 0.08 0.12 0 0.1 0.12 0 0 0.125 0 0.02 0.125 0 0.04 0.125 0 0.06 0.125 0 0.08 0.125 0 0.1 0.125 0 0 0.13 0 0.02 0.13 0 0.04 0.13 0 0.06 0.13 0 0.08 0.13 0 0.1 0.13 0 0 0.135 0 0.02 0.135 0 0.04 0.135 0 0.06 0.135 0 0.08 0.135 0 0.1 0.135 0 0 0.14 0 0.02 0.14 0 0.04 0.14 0 0.06 0.14 0 0.08 0.14 0 0.1 0.14 0 0 0.145 0 0.02 0.145 0 0.04 0.145 0 0.06 0.145 0 0.08 0.145 0 0.1 0.145 0 0 0.15 0 0.02 0.15 0 0.04 0.15 0 0.06 0.15 0 0.08 0.15 0 0.1 0.15 0 0 0.155 0 0.02 0.155 0 0.04 0.155 0 0.06 0.155 0 0.08 0.155 0 0.1 0.155 0 0 0.16 0 0.02 0.16 0 0.04 0.16 0 0.06 0.16 0 0.08 0.16 0 0.1 0.16 0 0 0.165 0 0.02 0.165 0 0.04 0.165 0 0.06 0.165 0 0.08 0.165 0 0.1 0.165 0 0 0.17 0 0.02 0.17 0 0.04 0.17 0 0.06 0.17 0 0.08 0.17 0 0.1 0.17 0 0 0.175 0 0.02 0.175 0 0.04 0.175 0 0.06 0.175 0 0.08 0.175 0 0.1 0.175 0 0 0.18 0 0.02 0.18 0 0.04 0.18 0 0.06 0.18 0 0.08 0.18 0 0.1 0.18 0 0 0.185 0 0.02 0.185 0 0.04 0.185 0 0.06 0.185 0 0.08 0.185 0 0.1 0.185 0 0 0.19 0 0.02 0.19 0 0.04 0.19 0 0.06 0.19 0 0.08 0.19 0 0.1 0.19 0 0 0.195 0 0.02 0.195 0 0.04 0.195 0 0.06 0.195 0 0.08 0.195 0 0.1 0.195 0 0 0.2 0 0.02 0.2 0 0.04 0.2 0 0.06 0.2 0 0.08 0.2 0 0.1 0.2 0 0 0.205 0 0.02 0.205 0 0.04 0.205 0 0.06 0.205 0 0.08 0.205 0 0.1 0.205 0 0 0.21 0 0.02 0.21 0 0.04 0.21 0 0.06 0.21 0 0.08 0.21 0 0.1 0.21 0 0 0.215 0 0.02 0.215 0 0.04 0.215 0 0.06 0.215 0 0.08 0.215 0 0.1 0.215 0 0 0.22 0 0.02 0.22 0 0.04 0.22 0 0.06 0.22 0 0.08 0.22 0 0.1 0.22 0 0 0.225 0 0.02 0.225 0 0.04 0.225 0 0.06 0.225 0 0.08 0.225 0 0.1 0.225 0 0 0.23 0 0.02 0.23 0 0.04 0.23 0 0.06 0.23 0 0.08 0.23 0 0.1 0.23 0 0 0.235 0 0.02 0.235 0 0.04 0.235 0 0.06 0.235 0 0.08 0.235 0 0.1 0.235 0 0 0.24 0 0.02 0.24 0 0.04 0.24 0 0.06 0.24 0 0.08 0.24 0 0.1 0.24 0 0 0.245 0 0.02 0.245 0 0.04 0.245 0 0.06 0.245 0 0.08 0.245 0 0.1 0.245 0 0 0.25 0 0.02 0.25 0 0.04 0.25 0 0.06 0.25 0 0.08 0.25 0 0.1 0.25 0 0 0.255 0 0.02 0.255 0 0.04 0.255 0 0.06 0.255 0 0.08 0.255 0 0.1 0.255 0 0 0.26 0 0.02 0.26 0 0.04 0.26 0 0.06 0.26 0 0.08 0.26 0 0.1 0.26 0 0 0.265 0 0.02 0.265 0 0.04 0.265 0 0.06 0.265 0 0.08 0.265 0 0.1 0.265 0 0 0.27 0 0.02 0.27 0 0.04 0.27 0 0.06 0.27 0 0.08 0.27 0 0.1 0.27 0 0 0.275 0 0.02 0.275 0 0.04 0.275 0 0.06 0.275 0 0.08 0.275 0 0.1 0.275 0 0 0.28 0 0.02 0.28 0 0.04 0.28 0 0.06 0.28 0 0.08 0.28 0 0.1 0.28 0 0 0.285 0 0.02 0.285 0 0.04 0.285 0 0.06 0.285 0 0.08 0.285 0 0.1 0.285 0 0 0.29 0 0.02 0.29 0 0.04 0.29 0 0.06 0.29 0 0.08 0.29 0 0.1 0.29 0 0 0.295 0 0.02 0.295 0 0.04 0.295 0 0.06 0.295 0 0.08 0.295 0 0.1 0.295 0 0 0.3 0 0.02 0.3 0 0.04 0.3 0 0.06 0.3 0 0.08 0.3 0 0.1 0.3 0 0 0.305 0 0.02 0.305 0 0.04 0.305 0 0.06 0.305 0 0.08 0.305 0 0.1 0.305 0 0 0.31 0 0.02 0.31 0 0.04 0.31 0 0.06 0.31 0 0.08 0.31 0 0.1 0.31 0 0 0.315 0 0.02 0.315 0 0.04 0.315 0 0.06 0.315 0 0.08 0.315 0 0.1 0.315 0 0 0.32 0 0.02 0.32 0 0.04 0.32 0 0.06 0.32 0 0.08 0.32 0 0.1 0.32 0 0 0.325 0 0.02 0.325 0 0.04 0.325 0 0.06 0.325 0 0.08 0.325 0 0.1 0.325 0 0 0.33 0 0.02 0.33 0 0.04 0.33 0 0.06 0.33 0 0.08 0.33 0 0.1 0.33 0 0 0.335 0 0.02 0.335 0 0.04 0.335 0 0.06 0.335 0 0.08 0.335 0 0.1 0.335 0 0 0.34 0 0.02 0.34 0 0.04 0.34 0 0.06 0.34 0 0.08 0.34 0 0.1 0.34 0 0 0.345 0 0.02 0.345 0 0.04 0.345 0 0.06 0.345 0 0.08 0.345 0 0.1 0.345 0 0 0.35 0 0.02 0.35 0 0.04 0.35 0 0.06 0.35 0 0.08 0.35 0 0.1 0.35 0 0 0.355 0 0.02 0.355 0 0.04 0.355 0 0.06 0.355 0 0.08 0.355 0 0.1 0.355 0 0 0.36 0 0.02 0.36 0 0.04 0.36 0 0.06 0.36 0 0.08 0.36 0 0.1 0.36 0 0 0.365 0 0.02 0.365 0 0.04 0.365 0 0.06 0.365 0 0.08 0.365 0 0.1 0.365 0 0 0.37 0 0.02 0.37 0 0.04 0.37 0 0.06 0.37 0 0.08 0.37 0 0.1 0.37 0 0 0.375 0 0.02 0.375 0 0.04 0.375 0 0.06 0.375 0 0.08 0.375 0 0.1 0.375 0 0 0.38 0 0.02 0.38 0 0.04 0.38 0 0.06 0.38 0 0.08 0.38 0 0.1 0.38 0 0 0.385 0 0.02 0.385 0 0.04 0.385 0 0.06 0.385 0 0.08 0.385 0 0.1 0.385 0 0 0.39 0 0.02 0.39 0 0.04 0.39 0 0.06 0.39 0 0.08 0.39 0 0.1 0.39 0 0 0.395 0 0.02 0.395 0 0.04 0.395 0 0.06 0.395 0 0.08 0.395 0 0.1 0.395 0 0 0.4 0 0.02 0.4 0 0.04 0.4 0 0.06 0.4 0 0.08 0.4 0 0.1 0.4 0 0 0.405 0 0.02 0.405 0 0.04 0.405 0 0.06 0.405 0 0.08 0.405 0 0.1 0.405 0 0 0.41 0 0.02 0.41 0 0.04 0.41 0 0.06 0.41 0 0.08 0.41 0 0.1 0.41 0 0 0.415 0 0.02 0.415 0 0.04 0.415 0 0.06 0.415 0 0.08 0.415 0 0.1 0.415 0 0 0.42 0 0.02 0.42 0 0.04 0.42 0 0.06 0.42 0 0.08 0.42 0 0.1 0.42 0 0 0.425 0 0.02 0.425 0 0.04 0.425 0 0.06 0.425 0 0.08 0.425 0 0.1 0.425 0 0 0.43 0 0.02 0.43 0 0.04 0.43 0 0.06 0.43 0 0.08 0.43 0 0.1 0.43 0 0 0.435 0 0.02 0.435 0 0.04 0.435 0 0.06 0.435 0 0.08 0.435 0 0.1 0.435 0 0 0.44 0 0.02 0.44 0 0.04 0.44 0 0.06 0.44 0 0.08 0.44 0 0.1 0.44 0 0 0.445 0 0.02 0.445 0 0.04 0.445 0 0.06 0.445 0 0.08 0.445 0 0.1 0.445 0 0 0.45 0 0.02 0.45 0 0.04 0.45 0 0.06 0.45 0 0.08 0.45 0 0.1 0.45 0 0 0.455 0 0.02 0.455 0 0.04 0.455 0 0.06 0.455 0 0.08 0.455 0 0.1 0.455 0 0 0.46 0 0.02 0.46 0 0.04 0.46 0 0.06 0.46 0 0.08 0.46 0 0.1 0.46 0 0 0.465 0 0.02 0.465 0 0.04 0.465 0 0.06 0.465 0 0.08 0.465 0 0.1 0.465 0 0 0.47 0 0.02 0.47 0 0.04 0.47 0 0.06 0.47 0 0.08 0.47 0 0.1 0.47 0 0 0.475 0 0.02 0.475 0 0.04 0.475 0 0.06 0.475 0 0.08 0.475 0 0.1 0.475 0 0 0.48 0 0.02 0.48 0 0.04 0.48 0 0.06 0.48 0 0.08 0.48 0 0.1 0.48 0 0 0.485 0 0.02 0.485 0 0.04 0.485 0 0.06 0.485 0 0.08 0.485 0 0.1 0.485 0 0 0.49 0 0.02 0.49 0 0.04 0.49 0 0.06 0.49 0 0.08 0.49 0 0.1 0.49 0 0 0.495 0 0.02 0.495 0 0.04 0.495 0 0.06 0.495 0 0.08 0.495 0 0.1 0.495 0 0 0.5 0 0.02 0.5 0 0.04 0.5 0 0.06 0.5 0 0.08 0.5 0 0.1 0.5 0 0 0.505 0 0.02 0.505 0 0.04 0.505 0 0.06 0.505 0 0.08 0.505 0 0.1 0.505 0 0 0.51 0 0.02 0.51 0 0.04 0.51 0 0.06 0.51 0 0.08 0.51 0 0.1 0.51 0 0 0.515 0 0.02 0.515 0 0.04 0.515 0 0.06 0.515 0 0.08 0.515 0 0.1 0.515 0 0 0.52 0 0.02 0.52 0 0.04 0.52 0 0.06 0.52 0 0.08 0.52 0 0.1 0.52 0 0 0.525 0 0.02 0.525 0 0.04 0.525 0 0.06 0.525 0 0.08 0.525 0 0.1 0.525 0 0 0.53 0 0.02 0.53 0 0.04 0.53 0 0.06 0.53 0 0.08 0.53 0 0.1 0.53 0 0 0.535 0 0.02 0.535 0 0.04 0.535 0 0.06 0.535 0 0.08 0.535 0 0.1 0.535 0 0 0.54 0 0.02 0.54 0 0.04 0.54 0 0.06 0.54 0 0.08 0.54 0 0.1 0.54 0 0 0.545 0 0.02 0.545 0 0.04 0.545 0 0.06 0.545 0 0.08 0.545 0 0.1 0.545 0 0 0.55 0 0.02 0.55 0 0.04 0.55 0 0.06 0.55 0 0.08 0.55 0 0.1 0.55 0 0 0.555 0 0.02 0.555 0 0.04 0.555 0 0.06 0.555 0 0.08 0.555 0 0.1 0.555 0 0 0.56 0 0.02 0.56 0 0.04 0.56 0 0.06 0.56 0 0.08 0.56 0 0.1 0.56 0 0 0.565 0 0.02 0.565 0 0.04 0.565 0 0.06 0.565 0 0.08 0.565 0 0.1 0.565 0 0 0.57 0 0.02 0.57 0 0.04 0.57 0 0.06 0.57 0 0.08 0.57 0 0.1 0.57 0 0 0.575 0 0.02 0.575 0 0.04 0.575 0 0.06 0.575 0 0.08 0.575 0 0.1 0.575 0 0 0.58 0 0.02 0.58 0 0.04 0.58 0 0.06 0.58 0 0.08 0.58 0 0.1 0.58 0 0 0.585 0 0.02 0.585 0 0.04 0.585 0 0.06 0.585 0 0.08 0.585 0 0.1 0.585 0 0 0.59 0 0.02 0.59 0 0.04 0.59 0 0.06 0.59 0 0.08 0.59 0 0.1 0.59 0 0 0.595 0 0.02 0.595 0 0.04 0.595 0 0.06 0.595 0 0.08 0.595 0 0.1 0.595 0 0 0.6 0 0.02 0.6 0 0.04 0.6 0 0.06 0.6 0 0.08 0.6 0 0.1 0.6 0 0 0.605 0 0.02 0.605 0 0.04 0.605 0 0.06 0.605 0 0.08 0.605 0 0.1 0.605 0 0 0.61 0 0.02 0.61 0 0.04 0.61 0 0.06 0.61 0 0.08 0.61 0 0.1 0.61 0 0 0.615 0 0.02 0.615 0 0.04 0.615 0 0.06 0.615 0 0.08 0.615 0 0.1 0.615 0 0 0.62 0 0.02 0.62 0 0.04 0.62 0 0.06 0.62 0 0.08 0.62 0 0.1 0.62 0 0 0.625 0 0.02 0.625 0 0.04 0.625 0 0.06 0.625 0 0.08 0.625 0 0.1 0.625 0 0 0.63 0 0.02 0.63 0 0.04 0.63 0 0.06 0.63 0 0.08 0.63 0 0.1 0.63 0 0 0.635 0 0.02 0.635 0 0.04 0.635 0 0.06 0.635 0 0.08 0.635 0 0.1 0.635 0 0 0.64 0 0.02 0.64 0 0.04 0.64 0 0.06 0.64 0 0.08 0.64 0 0.1 0.64 0 0 0.645 0 0.02 0.645 0 0.04 0.645 0 0.06 0.645 0 0.08 0.645 0 0.1 0.645 0 0 0.65 0 0.02 0.65 0 0.04 0.65 0 0.06 0.65 0 0.08 0.65 0 0.1 0.65 0 0 0.655 0 0.02 0.655 0 0.04 0.655 0 0.06 0.655 0 0.08 0.655 0 0.1 0.655 0 0 0.66 0 0.02 0.66 0 0.04 0.66 0 0.06 0.66 0 0.08 0.66 0 0.1 0.66 0 0 0.665 0 0.02 0.665 0 0.04 0.665 0 0.06 0.665 0 0.08 0.665 0 0.1 0.665 0 0 0.67 0 0.02 0.67 0 0.04 0.67 0 0.06 0.67 0 0.08 0.67 0 0.1 0.67 0 0 0.675 0 0.02 0.675 0 0.04 0.675 0 0.06 0.675 0 0.08 0.675 0 0.1 0.675 0 0 0.68 0 0.02 0.68 0 0.04 0.68 0 0.06 0.68 0 0.08 0.68 0 0.1 0.68 0 0 0.685 0 0.02 0.685 0 0.04 0.685 0 0.06 0.685 0 0.08 0.685 0 0.1 0.685 0 0 0.69 0 0.02 0.69 0 0.04 0.69 0 0.06 0.69 0 0.08 0.69 0 0.1 
[...]
			<PointData Scalars="VitesseX">
				<DataArray Name="VitesseX" type="Float32" format="ascii">
 0 9.60178e-15 -1.2284e-14 2.8466e-14 2.62875e-14 0 0 2.40073e-15 -3.35519e-16 1.99516e-14 2.99584e-14 0 0 -4.04635e-15 1.00008e-14 1.71472e-14 3.11261e-14 0 0 -9.17048e-15 1.65378e-14 2.34529e-14 2.63915e-14 0 0 -1.36649e-14 2.55049e-14 2.26251e-14 2.79016e-14 0 0 -1.57872e-14 2.77973e-14 2.7789e-14 2.58249e-14 0 0 -2.37344e-15 -6.14487e-16 6.57429e-14 -1.26589e-15 0 0 -1.63263e-15 -6.19787e-15 6.76444e-14 2.3022e-15 0 0 -1.07882e-14 3.60144e-15 5.43371e-14 1.77724e-14 0 0 -1.24226e-14 9.54725e-15 3.97708e-14 3.27975e-14 0 0 -7.87775e-15 1.14397e-14 2.59753e-14 4.50519e-14 0 0 7.59396e-15 -9.39584e-15 3.32754e-14 4.7034e-14 0 0 8.62791e-15 -1.3692e-14 2.48955e-14 6.04132e-14 0 0 2.70547e-14 -1.81057e-14 8.75001e-15 7.32383e-14 0 0 3.25388e-14 -4.4788e-15 5.95536e-15 5.83907e-14 0 0 1.2509e-14 3.31333e-14 1.28022e-14 2.51939e-14 0 0 2.60596e-14 1.92727e-14 5.30378e-14 -9.75074e-15 0 0 2.94849e-14 1.32477e-14 6.20115e-14 -1.02948e-14 0 0 4.49656e-15 5.73486e-14 7.23705e-15 3.33658e-14 0 0 -4.25115e-15 6.06805e-14 -5.1728e-15 5.10107e-14 0 0 1.80705e-14 7.09856e-15 4.31268e-14 2.75195e-14 0 0 2.27732e-14 6.12969e-15 4.60464e-14 2.58627e-14 0 0 -8.09494e-15 6.62928e-14 -1.82983e-14 6.14769e-14 0 0 -4.4567e-14 1.24987e-13 -7.91014e-14 8.36664e-14 0 0 5.65982e-15 2.67059e-14 1.26799e-14 2.39968e-14 0 0 6.77471e-14 -9.68315e-14 1.37008e-13 -5.19098e-14 0 0 -5.20488e-15 1.59166e-14 4.93006e-14 -1.82004e-14 0 0 -5.02226e-14 1.01307e-13 -4.23857e-14 3.97916e-14 0 0 7.12337e-15 2.68854e-14 1.47533e-14 3.93511e-15 0 0 4.13698e-14 -5.04499e-15 4.68543e-14 -2.09342e-14 0 0 1.46982e-14 5.6785e-14 -2.67771e-15 3.78299e-14 0 0 1.53328e-14 6.66956e-14 6.86277e-15 5.6901e-14 0 0 3.34233e-14 3.35865e-14 7.32629e-14 2.97474e-14 0 0 -3.90202e-14 1.15364e-13 4.67351e-14 5.67048e-14 0 0 7.83103e-15 4.93042e-14 1.19126e-13 1.31207e-14 0 0 1.11139e-13 -7.2346e-14 1.9503e-13 -1.92544e-14 0 0 5.48251e-14 -1.08921e-14 1.39963e-13 -6.77836e-15 0 0 5.35491e-15 1.54959e-14 1.3685e-13 -1.09305e-14 0 0 -4.66346e-14 7.69289e-14 3.82082e-14 1.04273e-13 0 0 -7.93185e-14 9.6155e-14 3.8855e-16 1.40256e-13 0 0 -4.74903e-14 2.73127e-14 7.60153e-14 8.85146e-14 0 0 -3.94934e-14 1.60367e-14 7.73914e-14 1.03928e-13 0 0 -1.05874e-13 8.04e-14 6.28572e-14 8.76431e-14 0 0 -8.72831e-14 5.30291e-14 1.09211e-13 2.18328e-14 0 0 1.698e-14 -2.94171e-14 1.32193e-13 -9.11624e-15 0 0 -2.57924e-14 2.85146e-14 8.58041e-14 -3.4686e-15 0 0 -1.11115e-13 1.26177e-13 -1.17837e-14 4.67802e-14 0 0 -5.59224e-14 1.07478e-13 -8.56673e-14 1.06273e-13 0 0 2.55782e-14 2.5553e-14 -4.83869e-15 4.47141e-14 0 0 7.86382e-14 -6.22625e-14 1.62199e-13 -6.96461e-14 0 0 1.66855e-13 -2.16238e-13 3.58885e-13 -1.66802e-13 0 0 7.17029e-14 -4.71653e-14 2.43746e-13 -1.10627e-13 0 0 -6.93042e-14 2.08342e-13 -1.10236e-14 6.62538e-14 0 0 -1.03873e-13 2.71159e-13 -9.78318e-14 1.83058e-13 0 0 6.23417e-14 4.87124e-14 1.21955e-13 5.54293e-14 0 0 2.43875e-13 -1.76871e-13 3.10608e-13 -8.3904e-14 0 0 1.40898e-13 3.58806e-14 6.03441e-14 3.0847e-14 0 0 4.65043e-14 7.98298e-14 8.67991e-14 -3.63039e-16 0 0 -8.50894e-15 7.09349e-14 2.09549e-13 -2.59079e-14 0 0 2.92306e-14 1.07637e-13 1.99592e-13 4.35104e-14 0 0 1.34257e-13 8.93994e-14 1.56445e-13 1.26917e-13 0 0 8.15809e-15 2.84109e-13 -3.48862e-15 2.24024e-13 0 0 -3.79039e-14 2.58848e-13 1.0886e-13 1.29748e-13 0 0 1.39318e-15 8.36695e-14 3.28784e-13 4.75782e-14 0 0 -2.53962e-14 4.88511e-14 3.91659e-13 9.51385e-14 0 0 -3.06287e-14 9.0222e-14 3.07035e-13 1.64969e-13 0 0 -1.63744e-13 2.78051e-13 1.14405e-13 2.53426e-13 0 0 -7.29872e-14 9.91003e-14 2.89808e-13 1.96149e-13 0 0 1.01586e-13 -1.65803e-13 5.92115e-13 -3.23652e-16 0 0 -3.0935e-14 5.91304e-14 3.49694e-13 1.39799e-13 0 0 -7.20427e-14 1.11526e-13 1.82753e-13 2.7843e-13 0 0 3.09001e-14 4.87085e-14 1.54931e-13 2.27345e-13 0 0 3.58237e-13 -3.24496e-13 4.15843e-13 -5.61806e-15 0 0 2.77403e-13 -1.75666e-13 3.71199e-13 -8.43314e-14 0 0 -6.42496e-14 2.9063e-13 8.3629e-14 6.3801e-14 0 0 -4.65527e-14 1.96378e-13 9.63196e-14 2.41411e-13 0 0 6.13711e-15 1.61e-13 5.25663e-14 3.77045e-13 0 0 2.5661e-13 -1.78354e-13 5.87461e-13 -1.28677e-13 0 0 1.98677e-13 -2.11734e-14 5.57381e-13 -3.82038e-13 0 0 1.9854e-13 1.69377e-13 2.11735e-13 -1.89735e-13 0 0 4.63551e-13 -1.34623e-13 2.34464e-13 -4.16032e-14 0 0 4.13588e-13 1.59958e-14 -8.37888e-14 2.54938e-13 0 0 2.41749e-13 2.18312e-13 -2.24202e-13 2.88152e-13 0 0 7.87264e-14 2.88858e-13 -2.53205e-13 3.61894e-13 0 0 8.70337e-14 1.91126e-13 -1.10764e-13 3.04269e-13 0 0 1.85242e-13 -1.70869e-13 3.38132e-13 7.6572e-14 0 0 2.12318e-13 -3.60208e-13 6.4365e-13 -1.29084e-13 0 0 1.15711e-13 -3.22634e-13 5.937e-13 -7.71028e-14 0 0 -1.60391e-13 -2.18516e-14 3.70646e-13 7.1628e-14 0 0 -2.87605e-13 3.0761e-13 -8.7606e-14 2.44006e-13 0 0 -2.62007e-13 3.26127e-13 -2.09948e-13 3.69172e-13 0 0 -7.80786e-14 2.13149e-13 -1.75318e-13 4.49482e-13 0 0 2.25643e-13 -7.57894e-14 -7.14792e-14 4.8765e-13 0 0 3.73097e-13 -3.09885e-13 6.69336e-14 4.49382e-13 0 0 3.58465e-13 -3.14693e-13 2.03532e-13 3.55733e-13 0 0 2.93053e-13 -2.4397e-13 2.17282e-13 2.86948e-13 0 0 1.42898e-13 -6.40933e-14 1.92966e-13 2.41999e-13 0 0 1.187e-15 1.24522e-13 1.70707e-13 1.64709e-13 0 0 -1.3549e-13 2.9388e-13 1.72997e-13 6.91134e-14 0 0 -1.38156e-13 4.44871e-13 1.98721e-13 -2.41202e-14 0 0 -1.06016e-13 4.52741e-13 2.60962e-13 -9.86578e-14 0 0 -1.64093e-14 4.24305e-13 3.29831e-13 -1.17738e-13 0 0 8.35921e-14 3.5821e-13 3.9845e-13 -1.14e-13 0 0 1.70764e-13 3.3678e-13 4.4852e-13 -6.1262e-14 0 0 2.45757e-13 3.04299e-13 5.35334e-13 -7.67551e-14 0 0 2.41469e-13 3.20027e-13 6.34914e-13 -1.39879e-13 0 0 1.49378e-13 4.69079e-13 5.2545e-13 -5.05847e-14 0 0 2.56345e-14 6.4136e-13 3.3766e-13 8.43443e-15 0 0 1.02626e-14 6.62988e-13 1.53809e-13 2.44837e-14 0 0 3.06046e-14 6.39319e-13 3.22095e-14 6.77425e-14 0 0 1.18398e-13 5.32332e-13 6.98064e-14 7.44448e-14 0 0 2.04482e-13 4.29224e-13 5.28816e-14 1.15504e-13 0 0 2.68337e-13 3.3291e-13 9.5009e-14 1.14762e-13 0 0 2.78373e-13 3.07654e-13 1.8318e-13 8.08627e-14 0 0 3.08415e-13 2.82142e-13 2.32436e-13 5.22411e-14 0 0 3.32668e-13 2.88145e-13 2.51474e-13 1.66646e-14 0 0 2.97759e-13 3.4649e-13 2.00696e-13 5.65994e-14 0 0 1.69002e-13 5.08813e-13 1.11074e-13 1.24691e-13 0 0 3.79793e-14 6.58656e-13 6.13815e-14 1.09431e-13 0 0 3.04259e-14 6.63938e-13 6.72038e-14 8.85838e-14 0 0 8.34458e-14 5.54621e-13 1.41728e-13 2.78086e-14 0 0 1.67939e-13 2.95956e-13 3.00825e-13 -3.74066e-14 0 0 2.35514e-13 4.32453e-14 3.95125e-13 -2.91042e-14 0 0 2.30637e-13 3.71758e-14 3.25148e-13 1.05904e-13 0 0 1.8556e-13 5.15871e-14 2.03134e-13 2.71754e-13 0 0 7.8555e-14 1.27775e-13 1.79985e-13 2.51327e-13 0 0 6.20111e-14 1.94008e-13 1.69864e-13 2.16561e-13 0 0 8.19213e-14 2.05548e-13 1.40003e-13 1.85607e-13 0 0 1.15765e-13 2.20481e-13 1.06137e-13 1.77312e-13 0 0 1.41968e-13 2.14028e-13 1.38679e-13 1.48821e-13 0 0 1.29643e-13 2.12045e-13 2.71884e-13 2.84497e-14 0 0 1.12661e-13 2.33698e-13 2.5773e-13 -4.46933e-14 0 0 1.17384e-13 2.19101e-13 2.41312e-13 2.33192e-15 0 0 1.4225e-13 1.74893e-13 2.72775e-13 5.12876e-14 0 0 1.35663e-13 1.6864e-13 2.31542e-13 8.06929e-14 0 0 1.19078e-13 1.26702e-13 2.97204e-13 6.23047e-14 0 0 9.66986e-14 1.17895e-13 3.03873e-13 1.67454e-13 0 0 4.93511e-14 1.82199e-13 1.71374e-13 2.42258e-13 0 0 5.26816e-14 1.47137e-13 2.0618e-13 1.4245e-13 0 0 1.11192e-14 1.59464e-13 2.60214e-13 7.21835e-14 0 0 -1.40226e-14 2.2696e-13 2.5581e-13 1.54809e-14 0 0 1.17286e-14 2.99618e-13 1.59676e-13 1.31024e-13 0 0 7.49608e-14 2.76954e-13 1.27078e-13 2.43652e-13 0 0 1.20853e-13 1.84259e-13 3.25808e-13 1.14793e-13 0 0 4.82761e-14 2.61742e-13 3.3413e-13 1.42622e-13 0 0 3.7113e-14 2.89021e-13 3.39112e-13 1.99234e-13 0 0 -2.98731e-15 3.66249e-13 2.68776e-13 2.0425e-13 0 0 8.3063e-14 2.31559e-13 3.9051e-13 1.68671e-13 0 0 1.60675e-13 1.39346e-13 5.12429e-13 1.21217e-13 0 0 3.94982e-14 3.69983e-13 3.43855e-13 2.68584e-13 0 0 6.55251e-14 3.5945e-13 4.42866e-13 2.26936e-13 0 0 1.17745e-13 3.68705e-13 4.75248e-13 2.18951e-13 0 0 1.34051e-13 3.95437e-13 5.08994e-13 2.97521e-13 0 0 1.30122e-13 4.21511e-13 5.4384e-13 3.21365e-13 0 0 1.21173e-13 5.33146e-13 4.24153e-13 4.0823e-13 0 0 2.38371e-13 4.88081e-13 4.4467e-13 3.90426e-13 0 0 4.28639e-13 3.35766e-13 5.41044e-13 3.27451e-13 0 0 4.27317e-13 3.71236e-13 6.52923e-13 1.62005e-13 0 0 3.97274e-13 4.89197e-13 6.91927e-13 1.67775e-14 0 0 4.81186e-13 5.00308e-13 6.64904e-13 -1.07053e-14 0 0 4.07594e-13 6.93692e-13 5.01091e-13 1.22039e-14 0 0 4.80008e-13 6.60603e-13 5.14831e-13 -1.75733e-14 0 0 5.54376e-13 5.97149e-13 5.46932e-13 -6.87651e-15 0 0 5.31537e-13 6.99296e-13 3.7886e-13 1.8496e-13 0 0 6.3987e-13 6.14271e-13 3.65316e-13 3.5838e-13 0 0 6.0246e-13 6.5495e-13 3.89581e-13 4.00841e-13 0 0 5.61803e-13 6.8578e-13 4.61334e-13 3.62552e-13 0 0 5.73821e-13 6.88374e-13 5.47256e-13 2.24082e-13 0 0 3.68959e-13 1.01793e-12 3.01788e-13 2.66346e-13 0 0 4.69347e-13 8.33452e-13 5.15096e-13 1.59483e-13 0 0 6.78824e-13 4.87564e-13 7.0165e-13 1.87025e-13 0 0 5.69543e-13 6.11599e-13 4.37917e-13 4.36241e-13 0 0 4.71831e-13 7.29517e-13 5.03571e-13 2.73039e-13 0 0 5.00435e-13 7.75054e-13 4.43677e-13 3.52404e-13 0 0 6.7231e-13 4.72004e-13 6.78029e-13 3.01454e-13 0 0 4.70328e-13 6.50804e-13 6.37969e-13 2.04873e-13 0 0 2.6298e-13 9.18481e-13 4.53696e-13 2.12464e-13 0 0 3.43965e-13 7.85734e-13 5.96347e-13 1.53874e-13 0 0 2.96208e-13 1.00179e-12 3.24386e-13 3.86638e-13 0 0 2.58567e-13 1.10346e-12 2.50921e-13 4.17693e-13 0 0 3.34897e-13 8.4169e-13 5.82889e-13 1.4879e-13 0 0 4.25987e-13 6.28217e-13 7.23462e-13 1.20791e-13 0 0 6.07304e-13 5.39987e-13 5.00028e-13 4.64917e-13 0 0 6.49701e-13 5.8011e-13 3.81801e-13 5.74717e-13 0 0 4.40134e-13 7.47217e-13 3.48626e-13 6.09539e-13 0 0 3.49996e-13 6.97925e-13 4.59581e-13 6.31012e-13 0 0 3.62301e-13 5.50838e-13 7.91662e-13 3.65257e-13 0 0 2.82492e-13 6.31846e-13 7.98753e-13 2.38538e-13 0 0 4.44886e-14 9.19362e-13 4.97327e-13 3.6393e-13 0 0 2.59173e-13 5.75356e-13 8.838e-13 5.30201e-14 0 0 3.22497e-13 5.08911e-13 1.06851e-12 -1.76465e-13 0 0 -6.67672e-14 1.21295e-12 3.44482e-13 3.76009e-13 0 0 9.84405e-14 1.00006e-12 3.36611e-13 5.83867e-13 0 0 2.79734e-13 6.10006e-13 6.65539e-13 3.47854e-13 0 0 -4.24565e-14 9.9e-13 5.84362e-13 1.89551e-13 0 0 -9.27671e-14 1.03318e-12 6.83898e-13 1.30419e-13 0 0 2.15118e-13 6.58916e-13 8.48765e-13 2.17778e-13 0 0 2.60318e-13 5.48699e-13 1.09626e-12 -2.95551e-14 0 0 1.71383e-13 6.38465e-13 1.05972e-12 -1.82032e-14 0 0 1.83674e-13 5.90501e-13 1.16374e-12 -1.02907e-13 0 0 1.77852e-13 5.03751e-13 1.4908e-12 -4.54573e-13 0
				</DataArray>
				<DataArray Name="VitesseY" type="Float32" format="ascii">