<?xml version="1.0"?>
<VTKFile type="PolyData">
	<PolyData>
		<Piece NumberOfPoints="1206" NumberOfPolys="1000">
			<Points>
				<DataArray type="Float32" NumberOfComponents="3" format="ascii">
 0 0 0 0.02 0 0 0.04 0 0 0.06 0 0 0.08 0 0 0.1 0 0 0 0.005 0 0.02 0.005 0 0.04 0.005 0 0.06 0.005 0 0.08 0.005 0 0.1 0.005 0 0 0.01 0 0.02 0.01 0 0.04 0.01 0 0.06 0.01 0 0.08 0.01 0 0.1 0.01 0 0 0.015 0 0.02 0.015 0 0.04 0.015 0 0.06 0.015 0 0.08 0.015 0 0.1 0.015 0 0 0.02 0 0.02 0.02 0 0.04 0.02 0 0.06 0.02 0 0.08 0.02 0 0.1 0.02 0 0 0.025 0 0.02 0.025 0 0.04 0.025 0 0.06 0.025 0 0.08 0.025 0 0.1 0.025 0 0 0.03 0 0.02 0.03 0 0.04 0.03 0 0.06 0.03 0 0.08 0.03 0 0.1 0.03 0 0 0.035 0 0.02 0.035 0 0.04 0.035 0 0.06 0.035 0 0.08 0.035 0 0.1 0.035 0 0 0.04 0 0.02 0.04 0 0.04 0.04 0 0.06 0.04 0 0.08 0.04 0 0.1 0.04 0 0 0.045 0 0.02 0.045 0 0.04 0.045 0 0.06 0.045 0 0.08 0.045 0 0.1 0.045 0 0 0.05 0 0.02 0.05 0 0.04 0.05 0 0.06 0.05 0 0.08 0.05 0 0.1 0.05 0 0 0.055 0 0.02 0.055 0 0.04 0.055 0 0.06 0.055 0 0.08 0.055 0 0.1 0.055 0 0 0.06 0 0.02 0.06 0 0.04 0.06 0 0.06 0.06 0 0.08 0.06 0 0.1 0.06 0 0 0.065 0 0.02 0.065 0 0.04 0.065 0 0.06 0.065 0 0.08 0.065 0 0.1 0.065 0 0 0.07 0 0.02 0.07 0 0.04 0.07 0 0.06 0.07 0 0.08 0.07 0 0.1 0.07 0 0 0.075 0 0.02 0.075 0 0.04 0.075 0 0.06 0.075 0 0.08 0.075 0 0.1 0.075 0 0 0.08 0 0.02 0.08 0 0.04 0.08 0 0.06 0.08 0 0.08 0.08 0 0.1 0.08 0 0 0.085 0 0.02 0.085 0 0.04 0.085 0 0.06 0.085 0 0.08 0.085 0 0.1 0.085 0 0 0.09 0 0.02 0.09 0 0.04 0.09 0 0.06 0.09 0 0.08 0.09 0 0.1 0.09 0 0 0.095 0 0.02 0.095 0 0.04 0.095 0 0.06 0.095 0 0.08 0.095 0 0.1 0.095 0 0 0.1 0 0.02 0.1 0 0.04 0.1 0 0.06 0.1 0 0.08 0.1 0 0.1 0.1 0 0 0.105 0 0.02 0.105 0 0.04 0.105 0 0.06 0.105 0 0.08 0.105 0 0.1 0.105 0 0 0.11 0 0.02 0.11 0 0.04 0.11 0 0.06 0.11 0 0.08 0.11 0 0.1 0.11 0 0 0.115 0 0.02 0.115 0 0.04 0.115 0 0.06 0.115 0 0.08 0.115 0 0.1 0.115 0 0 0.12 0 0.02 0.12 0 0.04 0.12 0 0.06 0.12 0 0.08 0.12 0 0.1 0.12 0 0 0.125 0 0.02 0.125 0 0.04 0.125 0 0.06 0.125 0 0.08 0.125 0 0.1 0.125 0 0 0.13 0 0.02 0.13 0 0.04 0.13 0 0.06 0.13 0 0.08 0.13 0 0.1 0.13 0 0 0.135 0 0.02 0.135 0 0.04 0.135 0 0.06 0.135 0 0.08 0.135 0 0.1 0.135 0 0 0.14 0 0.02 0.14 0 0.04 0.14 0 0.06 0.14 0 0.08 0.14 0 0.1 0.14 0 0 0.145 0 0.02 0.145 0 0.04 0.145 0 0.06 0.145 0 0.08 0.145 0 0.1 0.145 0 0 0.15 0 0.02 0.15 0 0.04 0.15 0 0.06 0.15 0 0.08 0.15 0 0.1 0.15 0 0 0.155 0 0.02 0.155 0 0.04 0.155 0 0.06 0.155 0 0.08 0.155 0 0.1 0.155 0 0 0.16 0 0.02 0.16 0 0.04 0.16 0 0.06 0.16 0 0.08 0.16 0 0.1 0.16 0 0 0.165 0 0.02 0.165 0 0.04 0.165 0 0.06 0.165 0 0.08 0.165 0 0.1 0.165 0 0 0.17 0 0.02 0.17 0 0.04 0.17 0 0.06 0.17 0 0.08 0.17 0 0.1 0.17 0 0 0.175 0 0.02 0.175 0 0.04 0.175 0 0.06 0.175 0 0.08 0.175 0 0.1 0.175 0 0 0.18 0 0.02 0.18 0 0.04 0.18 0 0.06 0.18 0 0.08 0.18 0 0.1 0.18 0 0 0.185 0 0.02 0.185 0 0.04 0.185 0 0.06 0.185 0 0.08 0.185 0 0.1 0.185 0 0 0.19 0 0.02 0.19 0 0.04 0.19 0 0.06 0.19 0 0.08 0.19 0 0.1 0.19 0 0 0.195 0 0.02 0.195 0 0.04 0.195 0 0.06 0.195 0 0.08 0.195 0 0.1 0.195 0 0 0.2 0 0.02 0.2 0 0.04 0.2 0 0.06 0.2 0 0.08 0.2 0 0.1 0.2 0 0 0.205 0 0.02 0.205 0 0.04 0.205 0 0.06 0.205 0 0.08 0.205 0 0.1 0.205 0 0 0.21 0 0.02 0.21 0 0.04 0.21 0 0.06 0.21 0 0.08 0.21 0 0.1 0.21 0 0 0.215 0 0.02 0.215 0 0.04 0.215 0 0.06 0.215 0 0.08 0.215 0 0.1 0.215 0 0 0.22 0 0.02 0.22 0 0.04 0.22 0 0.06 0.22 0 0.08 0.22 0 0.1 0.22 0 0 0.225 0 0.02 0.225 0 0.04 0.225 0 0.06 0.225 0 0.08 0.225 0 0.1 0.225 0 0 0.23 0 0.02 0.23 0 0.04 0.23 0 0.06 0.23 0 0.08 0.23 0 0.1 0.23 0 0 0.235 0 0.02 0.235 0 0.04 0.235 0 0.06 0.235 0 0.08 0.235 0 0.1 0.235 0 0 0.24 0 0.02 0.24 0 0.04 0.24 0 0.06 0.24 0 0.08 0.24 0 0.1 0.24 0 0 0.245 0 0.02 0.245 0 0.04 0.245 0 0.06 0.245 0 0.08 0.245 0 0.1 0.245 0 0 0.25 0 0.02 0.25 0 0.04 0.25 0 0.06 0.25 0 0.08 0.25 0 0.1 0.25 0 0 0.255 0 0.02 0.255 0 0.04 0.255 0 0.06 0.255 0 0.08 0.255 0 0.1 0.255 0 0 0.26 0 0.02 0.26 0 0.04 0.26 0 0.06 0.26 0 0.08 0.26 0 0.1 0.26 0 0 0.265 0 0.02 0.265 0 0.04 0.265 0 0.06 0.265 0 0.08 0.265 0 0.1 0.265 0 0 0.27 0 0.02 0.27 0 0.04 0.27 0 0.06 0.27 0 0.08 0.27 0 0.1 0.27 0 0 0.275 0 0.02 0.275 0 0.04 0.275 0 0.06 0.275 0 0.08 0.275 0 0.1 0.275 0 0 0.28 0 0.02 0.28 0 0.04 0.28 0 0.06 0.28 0 0.08 0.28 0 0.1 0.28 0 0 0.285 0 0.02 0.285 0 0.04 0.285 0 0.06 0.285 0 0.08 0.285 0 0.1 0.285 0 0 0.29 0 0.02 0.29 0 0.04 0.29 0 0.06 0.29 0 0.08 0.29 0 0.1 0.29 0 0 0.295 0 0.02 0.295 0 0.04 0.295 0 0.06 0.295 0 0.08 0.295 0 0.1 0.295 0 0 0.3 0 0.02 0.3 0 0.04 0.3 0 0.06 0.3 0 0.08 0.3 0 0.1 0.3 0 0 0.305 0 0.02 0.305 0 0.04 0.305 0 0.06 0.305 0 0.08 0.305 0 0.1 0.305 0 0 0.31 0 0.02 0.31 0 0.04 0.31 0 0.06 0.31 0 0.08 0.31 0 0.1 0.31 0 0 0.315 0 0.02 0.315 0 0.04 0.315 0 0.06 0.315 0 0.08 0.315 0 0.1 0.315 0 0 0.32 0 0.02 0.32 0 0.04 0.32 0 0.06 0.32 0 0.08 0.32 0 0.1 0.32 0 0 0.325 0 0.02 0.325 0 0.04 0.325 0 0.06 0.325 0 0.08 0.325 0 0.1 0.325 0 0 0.33 0 0.02 0.33 0 0.04 0.33 0 0.06 0.33 0 0.08 0.33 0 0.1 0.33 0 0 0.335 0 0.02 0.335 0 0.04 0.335 0 0.06 0.335 0 0.08 0.335 0 0.1 0.335 0 0 0.34 0 0.02 0.34 0 0.04 0.34 0 0.06 0.34 0 0.08 0.34 0 0.1 0.34 0 0 0.345 0 0.02 0.345 0 0.04 0.345 0 0.06 0.345 0 0.08 0.345 0 0.1 0.345 0 0 0.35 0 0.02 0.35 0 0.04 0.35 0 0.06 0.35 0 0.08 0.35 0 0.1 0.35 0 0 0.355 0 0.02 0.355 0 0.04 0.355 0 0.06 0.355 0 0.08 0.355 0 0.1 0.355 0 0 0.36 0 0.02 0.36 0 0.04 0.36 0 0.06 0.36 0 0.08 0.36 0 0.1 0.36 0 0 0.365 0 0.02 0.365 0 0.04 0.365 0 0.06 0.365 0 0.08 0.365 0 0.1 0.365 0 0 0.37 0 0.02 0.37 0 0.04 0.37 0 0.06 0.37 0 0.08 0.37 0 0.1 0.37 0 0 0.375 0 0.02 0.375 0 0.04 0.375 0 0.06 0.375 0 0.08 0.375 0 0.1 0.375 0 0 0.38 0 0.02 0.38 0 0.04 0.38 0 0.06 0.38 0 0.08 0.38 0 0.1 0.38 0 0 0.385 0 0.02 0.385 0 0.04 0.385 0 0.06 0.385 0 0.08 0.385 0 0.1 0.385 0 0 0.39 0 0.02 0.39 0 0.04 0.39 0 0.06 0.39 0 0.08 0.39 0 0.1 0.39 0 0 0.395 0 0.02 0.395 0 0.04 0.395 0 0.06 0.395 0 0.08 0.395 0 0.1 0.395 0 0 0.4 0 0.02 0.4 0 0.04 0.4 0 0.06 0.4 0 0.08 0.4 0 0.1 0.4 0 0 0.405 0 0.02 0.405 0 0.04 0.405 0 0.06 0.405 0 0.08 0.405 0 0.1 0.405 0 0 0.41 0 0.02 0.41 0 0.04 0.41 0 0.06 0.41 0 0.08 0.41 0 0.1 0.41 0 0 0.415 0 0.02 0.415 0 0.04 0.415 0 0.06 0.415 0 0.08 0.415 0 0.1 0.415 0 0 0.42 0 0.02 0.42 0 0.04 0.42 0 0.06 0.42 0 0.08 0.42 0 0.1 0.42 0 0 0.425 0 0.02 0.425 0 0.04 0.425 0 0.06 0.425 0 0.08 0.425 0 0.1 0.425 0 0 0.43 0 0.02 0.43 0 0.04 0.43 0 0.06 0.43 0 0.08 0.43 0 0.1 0.43 0 0 0.435 0 0.02 0.435 0 0.04 0.435 0 0.06 0.435 0 0.08 0.435 0 0.1 0.435 0 0 0.44 0 0.02 0.44 0 0.04 0.44 0 0.06 0.44 0 0.08 0.44 0 0.1 0.44 0 0 0.445 0 0.02 0.445 0 0.04 0.445 0 0.06 0.445 0 0.08 0.445 0 0.1 0.445 0 0 0.45 0 0.02 0.45 0 0.04 0.45 0 0.06 0.45 0 0.08 0.45 0 0.1 0.45 0 0 0.455 0 0.02 0.455 0 0.04 0.455 0 0.06 0.455 0 0.08 0.455 0 0.1 0.455 0 0 0.46 0 0.02 0.46 0 0.04 0.46 0 0.06 0.46 0 0.08 0.46 0 0.1 0.46 0 0 0.465 0 0.02 0.465 0 0.04 0.465 0 0.06 0.465 0 0.08 0.465 0 0.1 0.465 0 0 0.47 0 0.02 0.47 0 0.04 0.47 0 0.06 0.47 0 0.08 0.47 0 0.1 0.47 0 0 0.475 0 0.02 0.475 0 0.04 0.475 0 0.06 0.475 0 0.08 0.475 0 0.1 0.475 0 0 0.48 0 0.02 0.48 0 0.04 0.48 0 0.06 0.48 0 0.08 0.48 0 0.1 0.48 0 0 0.485 0 0.02 0.485 0 0.04 0.485 0 0.06 0.485 0 0.08 0.485 0 0.1 0.485 0 0 0.49 0 0.02 0.49 0 0.04 0.49 0 0.06 0.49 0 0.08 0.49 0 0.1 0.49 0 0 0.495 0 0.02 0.495 0 0.04 0.495 0 0.06 0.495 0 0.08 0.495 0 0.1 0.495 0 0 0.5 0 0.02 0.5 0 0.04 0.5 0 0.06 0.5 0 0.08 0.5 0 0.1 0.5 0 0 0.505 0 0.02 0.505 0 0.04 0.505 0 0.06 0.505 0 0.08 0.505 0 0.1 0.505 0 0 0.51 0 0.02 0.51 0 0.04 0.51 0 0.06 0.51 0 0.08 0.51 0 0.1 0.51 0 0 0.515 0 0.02 0.515 0 0.04 0.515 0 0.06 0.515 0 0.08 0.515 0 0.1 0.515 0 0 0.52 0 0.02 0.52 0 0.04 0.52 0 0.06 0.52 0 0.08 0.52 0 0.1 0.52 0 0 0.525 0 0.02 0.525 0 0.04 0.525 0 0.06 0.525 0 0.08 0.525 0 0.1 0.525 0 0 0.53 0 0.02 0.53 0 0.04 0.53 0 0.06 0.53 0 0.08 0.53 0 0.1 0.53 0 0 0.535 0 0.02 0.535 0 0.04 0.535 0 0.06 0.535 0 0.08 0.535 0 0.1 0.535 0 0 0.54 0 0.02 0.54 0 0.04 0.54 0 0.06 0.54 0 0.08 0.54 0 0.1 0.54 0 0 0.545 0 0.02 0.545 0 0.04 0.545 0 0.06 0.545 0 0.08 0.545 0 0.1 0.545 0 0 0.55 0 0.02 0.55 0 0.04 0.55 0 0.06 0.55 0 0.08 0.55 0 0.1 0.55 0 0 0.555 0 0.02 0.555 0 0.04 0.555 0 0.06 0.555 0 0.08 0.555 0 0.1 0.555 0 0 0.56 0 0.02 0.56 0 0.04 0.56 0 0.06 0.56 0 0.08 0.56 0 0.1 0.56 0 0 0.565 0 0.02 0.565 0 0.04 0.565 0 0.06 0.565 0 0.08 0.565 0 0.1 0.565 0 0 0.57 0 0.02 0.57 0 0.04 0.57 0 0.06 0.57 0 0.08 0.57 0 0.1 0.57 0 0 0.575 0 0.02 0.575 0 0.04 0.575 0 0.06 0.575 0 0.08 0.575 0 0.1 0.575 0 0 0.58 0 0.02 0.58 0 0.04 0.58 0 0.06 0.58 0 0.08 0.58 0 0.1 0.58 0 0 0.585 0 0.02 0.585 0 0.04 0.585 0 0.06 0.585 0 0.08 0.585 0 0.1 0.585 0 0 0.59 0 0.02 0.59 0 0.04 0.59 0 0.06 0.59 0 0.08 0.59 0 0.1 0.59 0 0 0.595 0 0.02 0.595 0 0.04 0.595 0 0.06 0.595 0 0.08 0.595 0 0.1 0.595 0 0 0.6 0 0.02 0.6 0 0.04 0.6 0 0.06 0.6 0 0.08 0.6 0 0.1 0.6 0 0 0.605 0 0.02 0.605 0 0.04 0.605 0 0.06 0.605 0 0.08 0.605 0 0.1 0.605 0 0 0.61 0 0.02 0.61 0 0.04 0.61 0 0.06 0.61 0 0.08 0.61 0 0.1 0.61 0 0 0.615 0 0.02 0.615 0 0.04 0.615 0 0.06 0.615 0 0.08 0.615 0 0.1 0.615 0 0 0.62 0 0.02 0.62 0 0.04 0.62 0 0.06 0.62 0 0.08 0.62 0 0.1 0.62 0 0 0.625 0 0.02 0.625 0 0.04 0.625 0 0.06 0.625 0 0.08 0.625 0 0.1 0.625 0 0 0.63 0 0.02 0.63 0 0.04 0.63 0 0.06 0.63 0 0.08 0.63 0 0.1 0.63 0 0 0.635 0 0.02 0.635 0 0.04 0.635 0 0.06 0.635 0 0.08 0.635 0 0.1 0.635 0 0 0.64 0 0.02 0.64 0 0.04 0.64 0 0.06 0.64 0 0.08 0.64 0 0.1 0.64 0 0 0.645 0 0.02 0.645 0 0.04 0.645 0 0.06 0.645 0 0.08 0.645 0 0.1 0.645 0 0 0.65 0 0.02 0.65 0 0.04 0.65 0 0.06 0.65 0 0.08 0.65 0 0.1 0.65 0 0 0.655 0 0.02 0.655 0 0.04 0.655 0 0.06 0.655 0 0.08 0.655 0 0.1 0.655 0 0 0.66 0 0.02 0.66 0 0.04 0.66 0 0.06 0.66 0 0.08 0.66 0 0.1 0.66 0 0 0.665 0 0.02 0.665 0 0.04 0.665 0 0.06 0.665 0 0.08 0.665 0 0.1 0.665 0 0 0.67 0 0.02 0.67 0 0.04 0.67 0 0.06 0.67 0 0.08 0.67 0 0.1 0.67 0 0 0.675 0 0.02 0.675 0 0.04 0.675 0 0.06 0.675 0 0.08 0.675 0 0.1 0.675 0 0 0.68 0 0.02 0.68 0 0.04 0.68 0 0.06 0.68 0 0.08 0.68 0 0.1 0.68 0 0 0.685 0 0.02 0.685 0 0.04 0.685 0 0.06 0.685 0 0.08 0.685 0 0.1 0.685 0 0 0.69 0 0.02 0.69 0 0.04 0.69 0 0.06 0.69 0 0.08 0.69 0 0.1 
[...]
			<PointData Scalars="VitesseX">
				<DataArray Name="VitesseX" type="Float32" format="ascii">
 0 -1.92912e-14 -6.3583e-17 9.0573e-15 1.1028e-14 0 0 -1.29864e-14 -8.193e-15 1.34767e-14 8.45456e-15 0 0 -8.25171e-15 -1.19072e-14 1.25732e-14 8.62036e-15 0 0 -7.40278e-15 -1.06534e-14 1.16063e-14 1.1342e-14 0 0 -5.17777e-15 -1.26115e-14 1.21961e-14 1.71786e-14 0 0 -9.00679e-17 -1.49535e-14 1.17745e-14 1.95814e-14 0 0 -3.72001e-15 -6.67391e-15 1.15998e-14 1.70064e-14 0 0 -3.05556e-15 -3.88062e-15 2.30267e-14 3.78047e-15 0 0 7.5588e-15 -5.87776e-15 2.15768e-14 6.77923e-15 0 0 6.05747e-15 3.96261e-15 5.38565e-15 2.91939e-14 0 0 -1.59837e-14 3.82422e-14 -1.81946e-14 3.94307e-14 0 0 -1.93828e-14 4.72856e-14 -1.5713e-14 1.8969e-14 0 0 7.62395e-15 7.32656e-16 4.74038e-14 -3.63554e-14 0 0 -2.41504e-14 3.93112e-14 2.81136e-14 -3.26738e-14 0 0 -4.58947e-14 6.99858e-14 -2.57704e-14 1.24234e-14 0 0 -1.41648e-14 -1.56598e-15 1.60443e-14 -5.57617e-15 0 0 -7.41292e-15 -3.51392e-14 4.06265e-14 -1.66952e-14 0 0 -9.70701e-15 -2.78911e-14 3.14208e-14 -1.87188e-14 0 0 -8.68797e-15 -1.69104e-14 -6.3651e-15 9.85548e-15 0 0 1.69583e-14 -5.53647e-14 6.1653e-15 1.85743e-14 0 0 2.72032e-14 -7.01905e-14 4.94313e-15 3.06496e-14 0 0 -7.95826e-15 -2.01801e-14 -5.04298e-14 7.19527e-14 0 0 1.11754e-14 -6.72168e-14 1.15646e-14 3.49739e-14 0 0 2.35351e-14 -7.76978e-14 2.74423e-14 1.85448e-14 0 0 -3.00228e-14 1.69255e-14 -5.13261e-14 5.03318e-14 0 0 -4.33656e-14 4.33562e-14 -5.91017e-14 5.28583e-14 0 0 3.04573e-14 -5.67455e-14 3.70568e-14 2.12829e-14 0 0 4.66909e-14 -7.12347e-14 3.90038e-14 5.83332e-14 0 0 2.92815e-14 -3.65604e-14 4.30544e-14 3.90431e-14 0 0 1.68094e-14 -1.25917e-14 4.28298e-14 2.8543e-14 0 0 1.86592e-15 2.43818e-14 -1.73879e-14 7.25488e-14 0 0 1.99144e-14 -9.55921e-15 2.7437e-14 2.66078e-14 0 0 1.30023e-14 -1.79135e-14 3.22148e-14 2.24484e-14 0 0 5.05289e-14 -6.46071e-14 2.67535e-14 4.64438e-14 0 0 -2.06821e-14 3.90466e-14 -9.41399e-14 1.44382e-13 0 0 -7.01225e-14 6.58547e-14 -8.47443e-14 1.58126e-13 0 0 2.25461e-14 -1.21122e-13 1.35954e-13 5.31394e-14 0 0 -6.98079e-15 -6.83744e-14 7.50057e-14 9.35785e-14 0 0 -4.3717e-14 2.39385e-14 -1.17171e-14 8.27866e-14 0 0 -3.85148e-15 -1.14837e-14 4.80183e-14 -1.67603e-14 0 0 -9.15071e-15 2.13901e-14 3.72994e-14 -5.82416e-14 0 0 2.35711e-14 5.76947e-15 2.93663e-14 -5.67613e-14 0 0 8.28388e-14 -4.96318e-14 -7.27938e-16 1.00527e-14 0 0 5.2649e-14 1.74953e-14 -1.0022e-13 7.46869e-14 0 0 7.53697e-14 -1.1692e-14 -5.84672e-14 4.14065e-14 0 0 1.08779e-13 -5.26908e-14 -5.15775e-14 9.18217e-14 0 0 1.02558e-13 -4.22887e-14 -8.66859e-14 1.48637e-13 0 0 5.79797e-14 -9.11803e-16 -8.35317e-14 1.21055e-13 0 0 2.24702e-14 -1.93656e-15 -3.93893e-14 6.93597e-14 0 0 1.3713e-13 -1.76893e-13 7.92255e-14 1.594e-14 0 0 1.56836e-13 -1.65753e-13 1.37703e-14 6.19526e-14 0 0 1.85935e-13 -1.46181e-13 -2.25777e-14 5.89392e-14 0 0 2.02739e-13 -1.07697e-13 -4.33669e-14 2.1356e-14 0 0 2.1017e-13 -1.10848e-13 2.18606e-14 -7.31647e-14 0 0 1.86019e-13 -3.87551e-14 1.56754e-15 -4.89032e-14 0 0 5.06955e-14 1.25044e-13 -4.41854e-14 -1.55345e-14 0 0 1.27524e-13 4.5104e-14 1.47537e-14 -7.18899e-15 0 0 1.73873e-13 1.05447e-13 -1.48096e-13 1.76827e-13 0 0 2.09576e-13 4.94927e-14 -9.41038e-14 1.74779e-13 0 0 2.19177e-13 -4.86506e-15 2.90743e-14 7.77702e-14 0 0 1.02515e-13 9.58128e-14 1.86032e-15 7.28073e-14 0 0 1.07825e-13 -4.58378e-15 7.80128e-14 6.93692e-15 0 0 1.51521e-13 -1.9264e-14 1.45898e-14 4.31359e-14 0 0 1.51685e-13 1.0585e-14 4.85478e-15 1.07644e-13 0 0 9.54466e-14 5.28603e-14 8.51901e-14 7.57178e-14 0 0 1.20878e-13 9.8508e-14 4.03051e-14 3.70023e-14 0 0 2.40897e-13 -6.66766e-14 1.11773e-13 -6.37252e-14 0 0 1.78739e-13 -4.98241e-14 3.41932e-15 -4.01738e-15 0 0 3.06288e-14 2.02632e-13 -2.52182e-13 9.6186e-14 0 0 2.23357e-13 3.233e-14 -1.36754e-13 5.39753e-14 0 0 3.89291e-13 -1.21723e-13 -8.49921e-15 6.05647e-14 0 0 2.72641e-13 -1.30087e-14 3.984e-14 3.6997e-16 0 0 -6.42586e-15 3.23934e-13 -2.60874e-13 2.29689e-13 0 0 1.98234e-14 3.79324e-13 -4.73841e-13 3.9342e-13 0 0 3.24408e-13 4.41607e-14 -2.13553e-13 1.44489e-13 0 0 4.17117e-13 -7.33278e-14 -2.35646e-14 -1.82991e-14 0 0 4.34561e-13 -1.41778e-13 1.21922e-13 -1.39771e-13 0 0 3.9265e-13 -7.5501e-15 -1.064e-13 1.01714e-13 0 0 3.01263e-13 1.54677e-13 -5.18833e-13 4.09809e-13 0 0 3.76743e-13 -2.71337e-14 -4.11285e-13 3.39225e-13 0 0 4.8557e-13 -3.72145e-13 -9.78032e-14 1.46935e-13 0 0 4.01234e-13 -3.53576e-13 -2.05878e-14 4.66171e-14 0 0 1.38388e-13 -5.15808e-14 -1.51549e-13 4.5792e-14 0 0 -1.32811e-13 7.45032e-15 -1.32272e-13 -5.9262e-15 0 0 -1.3347e-13 -5.51761e-14 -6.38819e-14 -3.60143e-14 0 0 -1.04016e-13 -1.65002e-13 -3.10331e-14 3.29294e-14 0 0 -1.13533e-13 -1.4982e-13 -6.59117e-14 1.64482e-13 0 0 -1.80444e-13 -8.24813e-14 -1.489e-13 2.64017e-13 0 0 -2.3747e-13 -2.25525e-14 -3.13706e-13 3.52028e-13 0 0 -2.31333e-13 -4.48852e-14 -3.19801e-13 4.24845e-13 0 0 -1.481e-13 -1.85655e-13 -2.68528e-13 3.92838e-13 0 0 -4.95993e-14 -3.76427e-13 -1.48887e-13 3.09427e-13 0 0 -5.08467e-14 -4.67796e-13 -5.04439e-15 1.6973e-13 0 0 -1.28472e-13 -4.51412e-13 1.17297e-13 3.91103e-14 0 0 -2.66861e-13 -3.92102e-13 2.01986e-13 -6.73948e-14 0 0 -4.01007e-13 -2.97637e-13 2.30184e-13 -1.274e-13 0 0 -5.15202e-13 -2.0451e-13 2.23773e-13 -1.5105e-13 0 0 -5.72331e-13 -1.44733e-13 2.11122e-13 -2.04401e-13 0 0 -5.66933e-13 -1.2256e-13 1.98391e-13 -2.29326e-13 0 0 -5.55981e-13 -1.03861e-13 1.69209e-13 -2.24335e-13 0 0 -5.25176e-13 -7.77121e-14 1.09602e-13 -1.92555e-13 0 0 -4.61786e-13 -4.39139e-14 7.16182e-14 -1.33982e-13 0 0 -3.426e-13 -5.76676e-14 7.5959e-14 -7.26555e-14 0 0 -2.13185e-13 -7.30252e-14 7.51749e-14 2.3791e-14 0 0 -9.56227e-14 -9.66386e-14 1.13924e-13 2.08285e-14 0 0 2.82127e-14 -1.66535e-13 2.56941e-13 1.47821e-14 0 0 1.6095e-13 -1.50313e-13 2.30337e-13 7.88181e-14 0 0 2.71727e-13 -8.74744e-14 1.33836e-13 2.45249e-13 0 0 2.74966e-13 -2.63842e-14 6.76414e-14 3.78236e-13 0 0 2.57466e-13 5.33984e-14 6.47092e-14 4.1624e-13 0 0 1.75182e-13 1.30399e-13 8.31394e-14 4.26624e-13 0 0 9.60421e-14 1.87316e-13 6.72821e-14 4.00745e-13 0 0 1.02144e-13 1.55192e-13 7.54554e-14 3.37762e-13 0 0 1.04313e-13 1.54671e-13 5.09184e-14 2.43669e-13 0 0 1.18529e-13 1.75986e-13 -2.02793e-14 2.52179e-13 0 0 1.76448e-13 1.38648e-13 6.857e-15 2.1835e-13 0 0 2.4022e-13 1.01212e-13 7.13568e-14 1.49004e-13 0 0 3.04977e-13 4.93924e-14 1.36821e-13 9.70522e-14 0 0 3.49126e-13 4.80921e-14 1.7898e-13 6.28329e-14 0 0 3.4357e-13 7.48398e-14 1.66654e-13 6.10193e-14 0 0 3.1297e-13 1.67045e-13 1.41676e-13 5.64042e-14 0 0 1.79488e-13 3.89193e-13 5.25019e-14 7.21201e-14 0 0 8.01904e-14 5.36429e-13 -8.17569e-14 1.2868e-13 0 0 9.4673e-14 5.14206e-13 -9.22153e-14 1.55607e-13 0 0 1.62731e-13 3.71347e-13 4.03583e-14 4.42337e-14 0 0 2.21139e-13 7.4245e-14 2.67095e-13 -1.37541e-13 0 0 2.62808e-13 -1.29777e-13 3.23108e-13 -1.38348e-13 0 0 2.26532e-13 -9.47265e-14 2.36261e-13 -7.2172e-14 0 0 1.55813e-13 7.03389e-15 4.46298e-14 9.67646e-14 0 0 1.12819e-13 7.44396e-14 5.32968e-15 1.68859e-13 0 0 8.37342e-14 1.1759e-13 3.09629e-14 8.60118e-14 0 0 9.11806e-14 1.43043e-13 -2.85362e-15 9.14249e-15 0 0 1.13881e-13 1.33193e-13 -1.20218e-14 -2.59917e-14 0 0 1.27553e-13 8.74048e-14 3.42441e-14 -9.89061e-14 0 0 1.2005e-13 9.17006e-14 -4.85099e-16 -6.47853e-14 0 0 4.39204e-14 1.62688e-13 -1.29905e-13 2.93733e-14 0 0 1.07059e-14 1.37847e-13 -6.15094e-14 -7.26703e-14 0 0 2.17358e-14 2.5495e-14 8.44156e-14 -1.13499e-13 0 0 7.28237e-15 7.38625e-16 7.91761e-14 -2.70211e-14 0 0 -2.12248e-14 -2.77343e-14 7.79937e-14 4.5526e-14 0 0 -7.79677e-14 -3.17272e-14 6.4136e-14 6.64686e-14 0 0 -1.04937e-13 -4.34148e-14 6.12976e-14 8.59738e-15 0 0 -9.92695e-14 -5.66564e-14 3.17744e-14 -2.50216e-14 0 0 -8.0862e-14 -7.07536e-14 1.8364e-14 -2.48847e-14 0 0 -2.88289e-14 -1.12079e-13 -9.68222e-15 6.13689e-16 0 0 -8.41358e-15 -1.32026e-13 5.33458e-14 4.83623e-15 0 0 -2.6186e-14 -9.15987e-14 1.15367e-13 -1.15434e-14 0 0 4.94246e-15 9.73064e-15 9.81651e-14 -9.0465e-15 0 0 8.31009e-15 4.53634e-14 1.87075e-13 -1.07834e-13 0 0 4.94889e-14 5.23917e-14 2.56633e-13 3.20698e-14 0 0 6.53447e-14 1.54154e-13 1.56014e-13 3.87187e-13 0 0 8.74416e-14 1.84129e-13 1.796e-13 3.73693e-13 0 0 1.5513e-13 1.17698e-13 3.35878e-13 2.41768e-13 0 0 1.53066e-13 1.92264e-13 3.12361e-13 2.19305e-13 0 0 8.16533e-14 3.3625e-13 2.19149e-13 2.10684e-13 0 0 8.97306e-14 2.94974e-13 3.19526e-13 1.47656e-13 0 0 8.84548e-14 2.54549e-13 3.79517e-13 1.26877e-13 0 0 4.35834e-14 2.81158e-13 3.47973e-13 1.42759e-13 0 0 1.19322e-13 1.84825e-13 3.37166e-13 2.60819e-13 0 0 4.33395e-14 3.32085e-13 1.71343e-13 3.24288e-13 0 0 4.45565e-14 3.47554e-13 2.23926e-13 1.57662e-13 0 0 1.94392e-13 1.4368e-13 3.93131e-13 8.43947e-14 0 0 2.22145e-13 1.29915e-13 4.06471e-13 8.01392e-14 0 0 1.86767e-13 2.21388e-13 3.10412e-13 1.72782e-13 0 0 1.6364e-13 2.50559e-13 3.09556e-13 2.36695e-13 0 0 1.66288e-13 2.93483e-13 3.07558e-13 2.811e-13 0 0 1.45262e-13 4.08292e-13 1.95986e-13 3.40769e-13 0 0 2.51839e-13 2.88676e-13 2.58859e-13 3.36405e-13 0 0 4.06172e-13 1.5147e-13 3.54177e-13 3.82272e-13 0 0 3.2346e-13 3.10267e-13 3.306e-13 3.88291e-13 0 0 2.20558e-13 4.88851e-13 1.95657e-13 4.94341e-13 0 0 2.8839e-13 3.91851e-13 3.00425e-13 4.50884e-13 0 0 2.80064e-13 3.94889e-13 3.53267e-13 3.41791e-13 0 0 2.44728e-13 5.11207e-13 2.85621e-13 2.27088e-13 0 0 1.82386e-13 5.86108e-13 3.07312e-13 1.15864e-13 0 0 1.83901e-13 6.11291e-13 2.06014e-13 3.11057e-13 0 0 2.51198e-13 5.55997e-13 2.71631e-13 3.03969e-13 0 0 3.04399e-13 4.58635e-13 4.16425e-13 1.93362e-13 0 0 3.46131e-13 4.40594e-13 3.86791e-13 2.43577e-13 0 0 3.53137e-13 5.0994e-13 2.54578e-13 3.90935e-13 0 0 3.00165e-13 5.87659e-13 1.70626e-13 5.06008e-13 0 0 1.84562e-13 6.04579e-13 3.79163e-13 2.8809e-13 0 0 2.08289e-13 4.50691e-13 6.32225e-13 1.56769e-13 0 0 1.42187e-13 5.75448e-13 4.77232e-13 3.41113e-13 0 0 1.07028e-13 7.26808e-13 2.55375e-13 5.1693e-13 0 0 1.4585e-13 6.15747e-13 3.12839e-13 6.26932e-13 0 0 1.48699e-13 3.65929e-13 7.07579e-13 4.10321e-13 0 0 1.27845e-13 4.19256e-13 6.28173e-13 3.71962e-13 0 0 1.87357e-13 4.7974e-13 3.58805e-13 5.52946e-13 0 0 3.63231e-13 2.72855e-13 4.22072e-13 5.04589e-13 0 0 3.41354e-13 3.26562e-13 2.58101e-13 5.85058e-13 0 0 3.44787e-13 1.73184e-13 5.17693e-13 3.66338e-13 0 0 2.50377e-13 2.08515e-13 6.88352e-13 5.88522e-14 0 0 9.94569e-14 4.69739e-13 6.68261e-13 -2.21659e-13 0 0 3.68591e-13 2.65556e-13 7.49501e-13 -1.44211e-13 0 0 4.64516e-13 2.17585e-13 5.9279e-13 2.80893e-13 0 0 2.45402e-13 4.45201e-13 5.23068e-13 2.13161e-13 0 0 2.92259e-13 4.87872e-13 5.21706e-13 -2.88902e-14 0 0 3.15231e-13 6.82509e-13 2.02379e-13 1.2742e-13 0 0 -5.28093e-15 1.20611e-12 -3.6797e-13 4.49425e-13 0 0 -2.29238e-13 1.49843e-12 -6.10206e-13 5.19054e-13 0
				</DataArray>
				<DataArray Name="VitesseY" type="Float32" format="ascii">