<?xml version="1.0"?>
<VTKFile type="PolyData">
	<PolyData>
		<Piece NumberOfPoints="1206" NumberOfPolys="1000">
			<Points>
				<DataArray type="Float32" NumberOfComponents="3" format="ascii">
 0 0 0 0.02 0 0 0.04 0 0 0.06 0 0 0.08 0 0 0.1 0 0 0 0.005 0 0.02 0.005 0 0.04 0.005 0 0.06 0.005 0 0.08 0.005 0 0.1 0.005 0 0 0.01 0 0.02 0.01 0 0.04 0.01 0 0.06 0.01 0 0.08 0.01 0 0.1 0.01 0 0 0.015 0 0.02 0.015 0 0.04 0.015 0 0.06 0.015 0 0.08 0.015 0 0.1 0.015 0 0 0.02 0 0.02 0.02 0 0.04 0.02 0 0.06 0.02 0 0.08 0.02 0 0.1 0.02 0 0 0.025 0 0.02 0.025 0 0.04 0.025 0 0.06 0.025 0 0.08 0.025 0 0.1 0.025 0 0 0.03 0 0.02 0.03 0 0.04 0.03 0 0.06 0.03 0 0.08 0.03 0 0.1 0.03 0 0 0.035 0 0.02 0.035 0 0.04 0.035 0 0.06 0.035 0 0.08 0.035 0 0.1 0.035 0 0 0.04 0 0.02 0.04 0 0.04 0.04 0 0.06 0.04 0 0.08 0.04 0 0.1 0.04 0 0 0.045 0 0.02 0.045 0 0.04 0.045 0 0.06 0.045 0 0.08 0.045 0 0.1 0.045 0 0 0.05 0 0.02 0.05 0 0.04 0.05 0 0.06 0.05 0 0.08 0.05 0 0.1 0.05 0 0 0.055 0 0.02 0.055 0 0.04 0.055 0 0.06 0.055 0 0.08 0.055 0 0.1 0.055 0 0 0.06 0 0.02 0.06 0 0.04 0.06 0 0.06 0.06 0 0.08 0.06 0 0.1 0.06 0 0 0.065 0 0.02 0.065 0 0.04 0.065 0 0.06 0.065 0 0.08 0.065 0 0.1 0.065 0 0 0.07 0 0.02 0.07 0 0.04 0.07 0 0.06 0.07 0 0.08 0.07 0 0.1 0.07 0 0 0.075 0 0.02 0.075 0 0.04 0.075 0 0.06 0.075 0 0.08 0.075 0 0.1 0.075 0 0 0.08 0 0.02 0.08 0 0.04 0.08 0 0.06 0.08 0 0.08 0.08 0 0.1 0.08 0 0 0.085 0 0.02 0.085 0 0.04 0.085 0 0.06 0.085 0 0.08 0.085 0 0.1 0.085 0 0 0.09 0 0.02 0.09 0 0.04 0.09 0 0.06 0.09 0 0.08 0.09 0 0.1 0.09 0 0 0.095 0 0.02 0.095 0 0.04 0.095 0 0.06 0.095 0 0.08 0.095 0 0.1 0.095 0 0 0.1 0 0.02 0.1 0 0.04 0.1 0 0.06 0.1 0 0.08 0.1 0 0.1 0.1 0 0 0.105 0 0.02 0.105 0 0.04 0.105 0 0.06 0.105 0 0.08 0.105 0 0.1 0.105 0 0 0.11 0 0.02 0.11 0 0.04 0.11 0 0.06 0.11 0 0.08 0.11 0 0.1 0.11 0 0 0.115 0 0.02 0.115 0 0.04 0.115 0 0.06 0.115 0 0.08 0.115 0 0.1 0.115 0 0 0.12 0 0.02 0.12 0 0.04 0.12 0 0.06 0.12 0 0.08 0.12 0 0.1 0.12 0 0 0.125 0 0.02 0.125 0 0.04 0.125 0 0.06 0.125 0 0.08 0.125 0 0.1 0.125 0 0 0.13 0 0.02 0.13 0 0.04 0.13 0 0.06 0.13 0 0.08 0.13 0 0.1 0.13 0 0 0.135 0 0.02 0.135 0 0.04 0.135 0 0.06 0.135 0 0.08 0.135 0 0.1 0.135 0 0 0.14 0 0.02 0.14 0 0.04 0.14 0 0.06 0.14 0 0.08 0.14 0 0.1 0.14 0 0 0.145 0 0.02 0.145 0 0.04 0.145 0 0.06 0.145 0 0.08 0.145 0 0.1 0.145 0 0 0.15 0 0.02 0.15 0 0.04 0.15 0 0.06 0.15 0 0.08 0.15 0 0.1 0.15 0 0 0.155 0 0.02 0.155 0 0.04 0.155 0 0.06 0.155 0 0.08 0.155 0 0.1 0.155 0 0 0.16 0 0.02 0.16 0 0.04 0.16 0 0.06 0.16 0 0.08 0.16 0 0.1 0.16 0 0 0.165 0 0.02 0.165 0 0.04 0.165 0 0.06 0.165 0 0.08 0.165 0 0.1 0.165 0 0 0.17 0 0.02 0.17 0 0.04 0.17 0 0.06 0.17 0 0.08 0.17 0 0.1 0.17 0 0 0.175 0 0.02 0.175 0 0.04 0.175 0 0.06 0.175 0 0.08 0.175 0 0.1 0.175 0 0 0.18 0 0.02 0.18 0 0.04 0.18 0 0.06 0.18 0 0.08 0.18 0 0.1 0.18 0 0 0.185 0 0.02 0.185 0 0.04 0.185 0 0.06 0.185 0 0.08 0.185 0 0.1 0.185 0 0 0.19 0 0.02 0.19 0 0.04 0.19 0 0.06 0.19 0 0.08 0.19 0 0.1 0.19 0 0 0.195 0 0.02 0.195 0 0.04 0.195 0 0.06 0.195 0 0.08 0.195 0 0.1 0.195 0 0 0.2 0 0.02 0.2 0 0.04 0.2 0 0.06 0.2 0 0.08 0.2 0 0.1 0.2 0 0 0.205 0 0.02 0.205 0 0.04 0.205 0 0.06 0.205 0 0.08 0.205 0 0.1 0.205 0 0 0.21 0 0.02 0.21 0 0.04 0.21 0 0.06 0.21 0 0.08 0.21 0 0.1 0.21 0 0 0.215 0 0.02 0.215 0 0.04 0.215 0 0.06 0.215 0 0.08 0.215 0 0.1 0.215 0 0 0.22 0 0.02 0.22 0 0.04 0.22 0 0.06 0.22 0 0.08 0.22 0 0.1 0.22 0 0 0.225 0 0.02 0.225 0 0.04 0.225 0 0.06 0.225 0 0.08 0.225 0 0.1 0.225 0 0 0.23 0 0.02 0.23 0 0.04 0.23 0 0.06 0.23 0 0.08 0.23 0 0.1 0.23 0 0 0.235 0 0.02 0.235 0 0.04 0.235 0 0.06 0.235 0 0.08 0.235 0 0.1 0.235 0 0 0.24 0 0.02 0.24 0 0.04 0.24 0 0.06 0.24 0 0.08 0.24 0 0.1 0.24 0 0 0.245 0 0.02 0.245 0 0.04 0.245 0 0.06 0.245 0 0.08 0.245 0 0.1 0.245 0 0 0.25 0 0.02 0.25 0 0.04 0.25 0 0.06 0.25 0 0.08 0.25 0 0.1 0.25 0 0 0.255 0 0.02 0.255 0 0.04 0.255 0 0.06 0.255 0 0.08 0.255 0 0.1 0.255 0 0 0.26 0 0.02 0.26 0 0.04 0.26 0 0.06 0.26 0 0.08 0.26 0 0.1 0.26 0 0 0.265 0 0.02 0.265 0 0.04 0.265 0 0.06 0.265 0 0.08 0.265 0 0.1 0.265 0 0 0.27 0 0.02 0.27 0 0.04 0.27 0 0.06 0.27 0 0.08 0.27 0 0.1 0.27 0 0 0.275 0 0.02 0.275 0 0.04 0.275 0 0.06 0.275 0 0.08 0.275 0 0.1 0.275 0 0 0.28 0 0.02 0.28 0 0.04 0.28 0 0.06 0.28 0 0.08 0.28 0 0.1 0.28 0 0 0.285 0 0.02 0.285 0 0.04 0.285 0 0.06 0.285 0 0.08 0.285 0 0.1 0.285 0 0 0.29 0 0.02 0.29 0 0.04 0.29 0 0.06 0.29 0 0.08 0.29 0 0.1 0.29 0 0 0.295 0 0.02 0.295 0 0.04 0.295 0 0.06 0.295 0 0.08 0.295 0 0.1 0.295 0 0 0.3 0 0.02 0.3 0 0.04 0.3 0 0.06 0.3 0 0.08 0.3 0 0.1 0.3 0 0 0.305 0 0.02 0.305 0 0.04 0.305 0 0.06 0.305 0 0.08 0.305 0 0.1 0.305 0 0 0.31 0 0.02 0.31 0 0.04 0.31 0 0.06 0.31 0 0.08 0.31 0 0.1 0.31 0 0 0.315 0 0.02 0.315 0 0.04 0.315 0 0.06 0.315 0 0.08 0.315 0 0.1 0.315 0 0 0.32 0 0.02 0.32 0 0.04 0.32 0 0.06 0.32 0 0.08 0.32 0 0.1 0.32 0 0 0.325 0 0.02 0.325 0 0.04 0.325 0 0.06 0.325 0 0.08 0.325 0 0.1 0.325 0 0 0.33 0 0.02 0.33 0 0.04 0.33 0 0.06 0.33 0 0.08 0.33 0 0.1 0.33 0 0 0.335 0 0.02 0.335 0 0.04 0.335 0 0.06 0.335 0 0.08 0.335 0 0.1 0.335 0 0 0.34 0 0.02 0.34 0 0.04 0.34 0 0.06 0.34 0 0.08 0.34 0 0.1 0.34 0 0 0.345 0 0.02 0.345 0 0.04 0.345 0 0.06 0.345 0 0.08 0.345 0 0.1 0.345 0 0 0.35 0 0.02 0.35 0 0.04 0.35 0 0.06 0.35 0 0.08 0.35 0 0.1 0.35 0 0 0.355 0 0.02 0.355 0 0.04 0.355 0 0.06 0.355 0 0.08 0.355 0 0.1 0.355 0 0 0.36 0 0.02 0.36 0 0.04 0.36 0 0.06 0.36 0 0.08 0.36 0 0.1 0.36 0 0 0.365 0 0.02 0.365 0 0.04 0.365 0 0.06 0.365 0 0.08 0.365 0 0.1 0.365 0 0 0.37 0 0.02 0.37 0 0.04 0.37 0 0.06 0.37 0 0.08 0.37 0 0.1 0.37 0 0 0.375 0 0.02 0.375 0 0.04 0.375 0 0.06 0.375 0 0.08 0.375 0 0.1 0.375 0 0 0.38 0 0.02 0.38 0 0.04 0.38 0 0.06 0.38 0 0.08 0.38 0 0.1 0.38 0 0 0.385 0 0.02 0.385 0 0.04 0.385 0 0.06 0.385 0 0.08 0.385 0 0.1 0.385 0 0 0.39 0 0.02 0.39 0 0.04 0.39 0 0.06 0.39 0 0.08 0.39 0 0.1 0.39 0 0 0.395 0 0.02 0.395 0 0.04 0.395 0 0.06 0.395 0 0.08 0.395 0 0.1 0.395 0 0 0.4 0 0.02 0.4 0 0.04 0.4 0 0.06 0.4 0 0.08 0.4 0 0.1 0.4 0 0 0.405 0 0.02 0.405 0 0.04 0.405 0 0.06 0.405 0 0.08 0.405 0 0.1 0.405 0 0 0.41 0 0.02 0.41 0 0.04 0.41 0 0.06 0.41 0 0.08 0.41 0 0.1 0.41 0 0 0.415 0 0.02 0.415 0 0.04 0.415 0 0.06 0.415 0 0.08 0.415 0 0.1 0.415 0 0 0.42 0 0.02 0.42 0 0.04 0.42 0 0.06 0.42 0 0.08 0.42 0 0.1 0.42 0 0 0.425 0 0.02 0.425 0 0.04 0.425 0 0.06 0.425 0 0.08 0.425 0 0.1 0.425 0 0 0.43 0 0.02 0.43 0 0.04 0.43 0 0.06 0.43 0 0.08 0.43 0 0.1 0.43 0 0 0.435 0 0.02 0.435 0 0.04 0.435 0 0.06 0.435 0 0.08 0.435 0 0.1 0.435 0 0 0.44 0 0.02 0.44 0 0.04 0.44 0 0.06 0.44 0 0.08 0.44 0 0.1 0.44 0 0 0.445 0 0.02 0.445 0 0.04 0.445 0 0.06 0.445 0 0.08 0.445 0 0.1 0.445 0 0 0.45 0 0.02 0.45 0 0.04 0.45 0 0.06 0.45 0 0.08 0.45 0 0.1 0.45 0 0 0.455 0 0.02 0.455 0 0.04 0.455 0 0.06 0.455 0 0.08 0.455 0 0.1 0.455 0 0 0.46 0 0.02 0.46 0 0.04 0.46 0 0.06 0.46 0 0.08 0.46 0 0.1 0.46 0 0 0.465 0 0.02 0.465 0 0.04 0.465 0 0.06 0.465 0 0.08 0.465 0 0.1 0.465 0 0 0.47 0 0.02 0.47 0 0.04 0.47 0 0.06 0.47 0 0.08 0.47 0 0.1 0.47 0 0 0.475 0 0.02 0.475 0 0.04 0.475 0 0.06 0.475 0 0.08 0.475 0 0.1 0.475 0 0 0.48 0 0.02 0.48 0 0.04 0.48 0 0.06 0.48 0 0.08 0.48 0 0.1 0.48 0 0 0.485 0 0.02 0.485 0 0.04 0.485 0 0.06 0.485 0 0.08 0.485 0 0.1 0.485 0 0 0.49 0 0.02 0.49 0 0.04 0.49 0 0.06 0.49 0 0.08 0.49 0 0.1 0.49 0 0 0.495 0 0.02 0.495 0 0.04 0.495 0 0.06 0.495 0 0.08 0.495 0 0.1 0.495 0 0 0.5 0 0.02 0.5 0 0.04 0.5 0 0.06 0.5 0 0.08 0.5 0 0.1 0.5 0 0 0.505 0 0.02 0.505 0 0.04 0.505 0 0.06 0.505 0 0.08 0.505 0 0.1 0.505 0 0 0.51 0 0.02 0.51 0 0.04 0.51 0 0.06 0.51 0 0.08 0.51 0 0.1 0.51 0 0 0.515 0 0.02 0.515 0 0.04 0.515 0 0.06 0.515 0 0.08 0.515 0 0.1 0.515 0 0 0.52 0 0.02 0.52 0 0.04 0.52 0 0.06 0.52 0 0.08 0.52 0 0.1 0.52 0 0 0.525 0 0.02 0.525 0 0.04 0.525 0 0.06 0.525 0 0.08 0.525 0 0.1 0.525 0 0 0.53 0 0.02 0.53 0 0.04 0.53 0 0.06 0.53 0 0.08 0.53 0 0.1 0.53 0 0 0.535 0 0.02 0.535 0 0.04 0.535 0 0.06 0.535 0 0.08 0.535 0 0.1 0.535 0 0 0.54 0 0.02 0.54 0 0.04 0.54 0 0.06 0.54 0 0.08 0.54 0 0.1 0.54 0 0 0.545 0 0.02 0.545 0 0.04 0.545 0 0.06 0.545 0 0.08 0.545 0 0.1 0.545 0 0 0.55 0 0.02 0.55 0 0.04 0.55 0 0.06 0.55 0 0.08 0.55 0 0.1 0.55 0 0 0.555 0 0.02 0.555 0 0.04 0.555 0 0.06 0.555 0 0.08 0.555 0 0.1 0.555 0 0 0.56 0 0.02 0.56 0 0.04 0.56 0 0.06 0.56 0 0.08 0.56 0 0.1 0.56 0 0 0.565 0 0.02 0.565 0 0.04 0.565 0 0.06 0.565 0 0.08 0.565 0 0.1 0.565 0 0 0.57 0 0.02 0.57 0 0.04 0.57 0 0.06 0.57 0 0.08 0.57 0 0.1 0.57 0 0 0.575 0 0.02 0.575 0 0.04 0.575 0 0.06 0.575 0 0.08 0.575 0 0.1 0.575 0 0 0.58 0 0.02 0.58 0 0.04 0.58 0 0.06 0.58 0 0.08 0.58 0 0.1 0.58 0 0 0.585 0 0.02 0.585 0 0.04 0.585 0 0.06 0.585 0 0.08 0.585 0 0.1 0.585 0 0 0.59 0 0.02 0.59 0 0.04 0.59 0 0.06 0.59 0 0.08 0.59 0 0.1 0.59 0 0 0.595 0 0.02 0.595 0 0.04 0.595 0 0.06 0.595 0 0.08 0.595 0 0.1 0.595 0 0 0.6 0 0.02 0.6 0 0.04 0.6 0 0.06 0.6 0 0.08 0.6 0 0.1 0.6 0 0 0.605 0 0.02 0.605 0 0.04 0.605 0 0.06 0.605 0 0.08 0.605 0 0.1 0.605 0 0 0.61 0 0.02 0.61 0 0.04 0.61 0 0.06 0.61 0 0.08 0.61 0 0.1 0.61 0 0 0.615 0 0.02 0.615 0 0.04 0.615 0 0.06 0.615 0 0.08 0.615 0 0.1 0.615 0 0 0.62 0 0.02 0.62 0 0.04 0.62 0 0.06 0.62 0 0.08 0.62 0 0.1 0.62 0 0 0.625 0 0.02 0.625 0 0.04 0.625 0 0.06 0.625 0 0.08 0.625 0 0.1 0.625 0 0 0.63 0 0.02 0.63 0 0.04 0.63 0 0.06 0.63 0 0.08 0.63 0 0.1 0.63 0 0 0.635 0 0.02 0.635 0 0.04 0.635 0 0.06 0.635 0 0.08 0.635 0 0.1 0.635 0 0 0.64 0 0.02 0.64 0 0.04 0.64 0 0.06 0.64 0 0.08 0.64 0 0.1 0.64 0 0 0.645 0 0.02 0.645 0 0.04 0.645 0 0.06 0.645 0 0.08 0.645 0 0.1 0.645 0 0 0.65 0 0.02 0.65 0 0.04 0.65 0 0.06 0.65 0 0.08 0.65 0 0.1 0.65 0 0 0.655 0 0.02 0.655 0 0.04 0.655 0 0.06 0.655 0 0.08 0.655 0 0.1 0.655 0 0 0.66 0 0.02 0.66 0 0.04 0.66 0 0.06 0.66 0 0.08 0.66 0 0.1 0.66 0 0 0.665 0 0.02 0.665 0 0.04 0.665 0 0.06 0.665 0 0.08 0.665 0 0.1 0.665 0 0 0.67 0 0.02 0.67 0 0.04 0.67 0 0.06 0.67 0 0.08 0.67 0 0.1 0.67 0 0 0.675 0 0.02 0.675 0 0.04 0.675 0 0.06 0.675 0 0.08 0.675 0 0.1 0.675 0 0 0.68 0 0.02 0.68 0 0.04 0.68 0 0.06 0.68 0 0.08 0.68 0 0.1 0.68 0 0 0.685 0 0.02 0.685 0 0.04 0.685 0 0.06 0.685 0 0.08 0.685 0 0.1 0.685 0 0 0.69 0 0.02 0.69 0 0.04 0.69 0 0.06 0.69 0 0.08 0.69 0 0.1 
[...]
			<PointData Scalars="VitesseX">
				<DataArray Name="VitesseX" type="Float32" format="ascii">
 0 3.5778e-16 -2.10316e-14 1.354e-14 -2.00374e-14 0 0 -2.62578e-15 -1.3911e-14 5.03897e-15 -1.56977e-14 0 0 -4.37268e-15 -3.93284e-15 -9.81258e-15 -6.24831e-15 0 0 5.84282e-15 -1.2339e-14 -4.33111e-15 -1.06291e-14 0 0 6.01552e-15 -7.65351e-15 -1.32815e-14 -5.32361e-15 0 0 -9.99732e-15 1.96709e-14 -4.59552e-14 1.28542e-14 0 0 -2.51616e-15 9.65251e-15 -3.94869e-14 3.86232e-15 0 0 3.90309e-15 4.72858e-15 -3.67238e-14 -4.39186e-15 0 0 1.61147e-15 1.0447e-15 -1.81318e-14 -2.15465e-14 0 0 -7.4962e-15 8.54242e-15 -1.66679e-14 -1.95957e-14 0 0 9.7145e-17 -2.12903e-15 -9.11745e-15 -2.46987e-14 0 0 2.11326e-15 -1.04326e-14 -1.42762e-14 -1.00583e-14 0 0 -1.64027e-14 2.6822e-15 -4.22712e-14 2.32322e-14 0 0 -3.69655e-15 -2.97759e-14 -6.25147e-15 -1.53703e-14 0 0 -2.7554e-16 -3.26428e-14 2.43492e-15 -4.43459e-14 0 0 1.17868e-15 -4.17438e-14 1.41956e-14 -5.45675e-14 0 0 -7.4115e-15 -3.89201e-14 -2.06222e-17 -3.2605e-14 0 0 -4.07631e-14 1.2868e-14 -7.23353e-14 3.08057e-14 0 0 -3.52624e-14 -1.11175e-14 -4.72962e-14 1.52954e-14 0 0 -4.10893e-14 -2.22278e-14 -1.52462e-14 -1.92746e-14 0 0 -4.03682e-14 -2.71283e-14 1.46474e-14 -5.17522e-14 0 0 -1.86316e-14 -4.15756e-14 2.39207e-14 -5.86912e-14 0 0 -3.22668e-14 -1.20276e-14 -1.93892e-14 -2.99856e-14 0 0 -5.27778e-14 2.11573e-14 -5.43404e-14 -8.37318e-16 0 0 -2.07333e-14 -2.42826e-14 -7.97886e-15 -1.57882e-14 0 0 4.47577e-14 -1.25719e-13 1.04051e-13 -8.64977e-14 0 0 -2.72199e-14 -2.9343e-15 -1.6869e-14 -2.0391e-14 0 0 -6.98475e-14 3.142e-14 -4.10137e-14 -5.3131e-15 0 0 -9.33077e-16 -1.06408e-13 6.81207e-14 -2.90097e-14 0 0 1.37357e-15 -1.12045e-13 4.24307e-14 5.80614e-15 0 0 -2.27632e-14 -1.00975e-13 3.98814e-14 2.94161e-15 0 0 -3.30073e-14 -7.89376e-14 2.25828e-14 -9.92987e-15 0 0 -6.02558e-14 -1.3495e-14 -4.34768e-14 3.82953e-15 0 0 -3.87927e-14 -4.69987e-14 -1.11039e-14 -2.08633e-14 0 0 5.71522e-15 -9.83852e-14 4.07926e-14 -4.03011e-14 0 0 6.91059e-15 -6.06843e-14 -1.31154e-14 2.3185e-14 0 0 -3.80887e-14 5.0659e-14 -1.24082e-13 6.35659e-14 0 0 6.13232e-15 1.7572e-14 -1.02351e-13 3.52573e-14 0 0 6.50074e-14 -7.55582e-14 -1.57294e-14 -1.12442e-14 0 0 1.60387e-14 -2.00349e-14 -5.8247e-14 -4.41038e-15 0 0 3.92633e-14 -5.02206e-14 -1.35351e-14 -4.81059e-14 0 0 4.48099e-14 -3.86562e-14 -4.64376e-14 5.58517e-15 0 0 3.50975e-15 5.33132e-14 -1.62721e-13 9.06456e-14 0 0 2.04511e-14 1.17002e-14 -8.10282e-14 2.85974e-15 0 0 1.68533e-15 -2.5828e-14 2.94879e-14 -9.14169e-14 0 0 1.42233e-14 -5.93596e-14 8.34006e-14 -1.4385e-13 0 0 -1.91182e-14 1.77836e-14 -5.21101e-16 -1.23705e-13 0 0 -2.10733e-14 4.96089e-14 -5.46553e-14 -1.0554e-13 0 0 3.59973e-14 -1.17817e-14 -3.34228e-14 -1.02145e-13 0 0 -8.28197e-14 1.68123e-13 -1.74896e-13 -2.15915e-14 0 0 -1.87354e-13 2.6322e-13 -1.60495e-13 -3.88888e-14 0 0 -1.79625e-13 1.98465e-13 -6.53779e-14 -5.27196e-14 0 0 -6.54649e-14 1.71883e-14 2.74694e-14 -4.61717e-14 0 0 -7.19738e-14 2.8301e-14 -1.09302e-14 -1.25089e-14 0 0 -4.8864e-14 4.09346e-14 -1.02575e-13 7.98084e-14 0 0 -5.97074e-14 2.83782e-14 -1.20613e-13 9.85612e-14 0 0 -1.33336e-13 6.41411e-14 -8.59521e-14 2.06806e-14 0 0 -6.43428e-14 -9.44467e-14 1.25758e-13 -2.08479e-13 0 0 -1.1123e-13 3.27386e-15 1.41605e-14 -2.12414e-13 0 0 -1.06132e-13 9.38844e-14 -1.27468e-13 -1.16683e-13 0 0 -1.864e-14 -2.83575e-14 -2.88279e-14 -1.07361e-13 0 0 2.77873e-14 -7.96831e-14 -4.07048e-14 -7.959e-14 0 0 6.57217e-14 -5.79378e-14 -1.06774e-13 -1.46525e-13 0 0 4.2855e-14 2.6115e-14 -2.45508e-13 -1.26798e-13 0 0 5.24189e-14 2.32193e-14 -3.21782e-13 -8.06908e-14 0 0 1.52333e-13 -5.28055e-14 -2.60593e-13 -1.47983e-13 0 0 1.33102e-13 2.20094e-14 -2.62162e-13 -1.60505e-13 0 0 7.59199e-14 6.14454e-14 -2.33711e-13 -9.80084e-14 0 0 1.35131e-13 -3.18424e-14 -9.18146e-14 -1.64532e-13 0 0 1.33297e-14 8.65385e-14 -1.24177e-13 -2.17983e-13 0 0 -1.17845e-13 2.13955e-13 -1.72412e-13 -2.75236e-13 0 0 -9.57671e-14 2.92701e-13 -3.22828e-13 -2.54825e-13 0 0 -6.58085e-15 1.67476e-13 -2.28837e-13 -3.22683e-13 0 0 1.11181e-13 -1.71759e-13 1.08726e-13 -5.27869e-13 0 0 3.5175e-15 -9.0816e-14 1.00942e-13 -5.97444e-13 0 0 -1.25542e-13 5.43177e-14 4.90541e-15 -4.5726e-13 0 0 -1.51405e-13 8.65196e-14 -1.18386e-13 -1.58256e-13 0 0 -1.43635e-13 4.18952e-14 -1.68548e-13 5.88138e-14 0 0 -1.556e-13 -7.99803e-15 -1.54175e-13 2.08349e-13 0 0 -2.36977e-13 4.51054e-15 -1.58304e-13 1.46155e-13 0 0 -3.83152e-13 9.01312e-14 -1.89603e-13 8.28517e-14 0 0 -5.15298e-13 1.56271e-13 -2.10503e-13 2.77238e-14 0 0 -4.99694e-13 1.44838e-13 -1.73199e-13 -6.02763e-14 0 0 -4.53465e-13 5.06692e-14 -6.05997e-14 -1.59023e-13 0 0 -3.88766e-13 -6.96326e-14 6.14619e-14 -2.58559e-13 0 0 -3.2785e-13 -1.87225e-13 5.28492e-14 -2.58856e-13 0 0 -2.65687e-13 -2.34675e-13 1.74321e-14 -2.49173e-13 0 0 -1.98685e-13 -2.30902e-13 -7.42429e-14 -1.96074e-13 0 0 -1.31431e-13 -2.3134e-13 -1.6466e-13 -1.03602e-13 0 0 -8.70036e-14 -2.43658e-13 -2.52314e-13 -3.60198e-14 0 0 -8.70441e-14 -2.50331e-13 -2.3978e-13 -7.25892e-14 0 0 -1.26537e-13 -2.27033e-13 -2.29219e-13 -1.34898e-13 0 0 -2.15598e-13 -1.75919e-13 -2.20933e-13 -2.41694e-13 0 0 -2.95141e-13 -1.5089e-13 -1.93406e-13 -3.53906e-13 0 0 -3.25221e-13 -1.73387e-13 -1.72072e-13 -4.47429e-13 0 0 -3.23939e-13 -1.80867e-13 -1.68446e-13 -5.02066e-13 0 0 -3.03754e-13 -1.74351e-13 -1.91132e-13 -4.78741e-13 0 0 -2.82804e-13 -1.80727e-13 -2.36195e-13 -3.95655e-13 0 0 -2.9693e-13 -1.72734e-13 -2.9165e-13 -2.79032e-13 0 0 -3.74885e-13 -1.1274e-13 -3.57743e-13 -1.72669e-13 0 0 -3.84487e-13 -1.13092e-13 -3.78516e-13 -1.04716e-13 0 0 -3.79733e-13 -1.30847e-13 -3.69789e-13 -1.04445e-13 0 0 -3.70671e-13 -1.82697e-13 -3.42945e-13 -1.13631e-13 0 0 -3.34089e-13 -2.52711e-13 -2.99771e-13 -1.36326e-13 0 0 -2.70529e-13 -3.10708e-13 -2.37688e-13 -1.62422e-13 0 0 -1.99771e-13 -4.47325e-13 -7.17362e-14 -2.23453e-13 0 0 -1.27414e-13 -5.08661e-13 -1.28386e-14 -2.20497e-13 0 0 -8.04722e-14 -4.78296e-13 -6.42372e-14 -1.8218e-13 0 0 -6.96355e-14 -3.65042e-13 -2.82239e-13 9.23491e-15 0 0 -6.3816e-14 -2.16687e-13 -4.49108e-13 2.7309e-13 0 0 -2.03296e-14 -1.95298e-13 -4.33878e-13 3.16495e-13 0 0 2.04717e-14 -1.79019e-13 -3.51419e-13 2.82895e-13 0 0 -7.42287e-15 -1.37019e-13 -2.44739e-13 2.60891e-13 0 0 -3.42107e-14 -9.0222e-14 -1.64167e-13 2.07744e-13 0 0 -6.70143e-14 -8.90032e-14 -3.13832e-14 9.61585e-14 0 0 -9.84837e-14 -1.08455e-13 6.52428e-14 -2.24159e-14 0 0 -1.13004e-13 -1.18504e-13 2.51361e-14 1.1949e-14 0 0 -1.26055e-13 -1.21481e-13 9.29413e-15 4.77601e-14 0 0 -1.12575e-13 -1.47601e-13 3.47894e-14 4.70723e-14 0 0 -7.37429e-14 -1.67777e-13 2.44513e-14 7.7581e-14 0 0 -2.80644e-15 -1.53307e-13 1.90725e-14 8.12272e-14 0 0 4.55993e-14 -1.42184e-13 2.69876e-14 1.074e-13 0 0 6.15221e-14 -1.47161e-13 8.6818e-14 6.02498e-14 0 0 6.12085e-14 -1.61797e-13 1.97638e-13 -2.32129e-14 0 0 3.7687e-14 -9.13969e-14 1.91462e-13 1.33629e-14 0 0 -4.36052e-14 1.54055e-13 1.63983e-14 1.20364e-13 0 0 -7.25174e-14 2.6093e-13 -1.12578e-13 1.46461e-13 0 0 -3.33783e-14 2.07172e-13 -6.34514e-14 9.53167e-14 0 0 8.10949e-14 -4.77846e-14 1.35223e-13 -4.43804e-14 0 0 1.30591e-13 -3.01075e-13 2.23268e-13 -8.71363e-14 0 0 1.12948e-13 -3.23564e-13 2.02926e-13 -6.26209e-14 0 0 4.42069e-14 -2.65524e-13 6.16718e-14 5.08271e-14 0 0 2.13034e-14 -2.06575e-13 -1.213e-13 2.55749e-13 0 0 -5.50579e-15 -1.65302e-13 -1.51611e-13 2.21464e-13 0 0 -1.96729e-14 -1.36964e-13 -1.13283e-13 1.14089e-14 0 0 -2.47725e-14 -1.00423e-13 -1.09099e-13 -1.21268e-13 0 0 -4.19138e-14 -4.81985e-14 -1.64388e-13 -1.21133e-13 0 0 -4.65446e-14 -4.48663e-14 -2.21705e-13 -8.24085e-14 0 0 -4.69152e-14 -5.63592e-14 -2.18098e-13 -7.51686e-14 0 0 -4.32544e-14 -9.55523e-14 -1.79614e-13 -1.03943e-13 0 0 -4.10602e-14 -1.50386e-13 -1.13302e-13 -1.21568e-13 0 0 -5.17772e-14 -1.58664e-13 -5.90636e-14 -1.88897e-13 0 0 -7.96914e-14 -1.70894e-13 -2.66825e-14 -1.95234e-13 0 0 -8.2811e-14 -1.90395e-13 -1.83253e-14 -1.18153e-13 0 0 -1.05245e-13 -1.78278e-13 -4.73029e-14 -1.71425e-13 0 0 -1.27696e-13 -1.3874e-13 -1.59438e-13 -1.89076e-13 0 0 -9.81184e-14 -1.67534e-13 -2.41163e-13 -1.18818e-13 0 0 -7.47204e-14 -2.03947e-13 -2.2345e-13 -1.47284e-13 0 0 -5.35175e-14 -2.09489e-13 -2.68811e-13 -2.37472e-13 0 0 -2.88648e-14 -2.13099e-13 -3.08909e-13 -3.41608e-13 0 0 -4.99609e-14 -1.5572e-13 -3.23754e-13 -4.88208e-13 0 0 -4.77702e-14 -1.04188e-13 -3.12081e-13 -3.82268e-13 0 0 -2.1508e-14 -1.03576e-13 -2.39456e-13 1.11489e-13 0 0 -3.83304e-14 -9.27078e-14 -1.77156e-13 4.74943e-13 0 0 -5.74956e-14 -1.35127e-13 -5.29007e-14 3.5031e-13 0 0 -5.99564e-14 -1.85389e-13 7.66166e-14 6.1659e-15 0 0 -8.69908e-14 -1.66232e-13 6.06272e-14 1.00575e-14 0 0 -1.01483e-13 -3.06305e-14 -2.06235e-13 2.77105e-13 0 0 -1.16239e-13 -5.19767e-15 -2.42181e-13 3.18591e-13 0 0 -1.56545e-13 -2.88502e-14 -1.06584e-13 1.2672e-13 0 0 -1.10839e-13 -1.21551e-13 -6.21248e-14 1.72157e-13 0 0 -1.4748e-13 -1.34977e-13 -2.14397e-14 1.85498e-13 0 0 -1.71668e-13 -1.54792e-13 5.99675e-14 1.187e-13 0 0 -1.75003e-13 -1.4067e-13 7.06988e-14 1.14615e-13 0 0 -1.72175e-13 -1.1746e-13 5.7614e-14 1.25238e-13 0 0 -1.3901e-13 -1.79552e-13 8.92e-14 1.77842e-13 0 0 -1.72627e-13 -1.50549e-13 7.2214e-14 2.03956e-13 0 0 -1.72199e-13 -1.72235e-13 2.11777e-13 5.68581e-14 0 0 -2.44201e-13 -4.92395e-14 1.57202e-13 9.18722e-14 0 0 -2.15518e-13 -4.56071e-14 1.33791e-13 6.36626e-14 0 0 -6.85143e-14 -1.90803e-13 2.61753e-13 -7.74552e-14 0 0 -1.37862e-13 -3.54988e-15 3.54268e-14 1.40824e-13 0 0 -1.61854e-13 6.84481e-14 -2.51756e-14 2.07485e-13 0 0 2.4336e-14 -1.79406e-13 2.04342e-13 1.4293e-13 0 0 9.36412e-14 -2.69779e-13 3.60121e-13 5.53751e-14 0 0 1.1252e-13 -2.41207e-13 3.92905e-13 -3.17223e-15 0 0 8.36752e-14 -7.35652e-14 2.57883e-13 6.231e-14 0 0 -2.51846e-14 1.39079e-13 1.14918e-13 1.36493e-13 0 0 -3.84135e-14 1.77101e-13 1.56872e-13 7.27638e-14 0 0 -5.21365e-14 1.61818e-13 2.33522e-13 8.73278e-14 0 0 -2.43761e-14 6.03956e-14 3.33821e-13 1.45649e-13 0 0 5.14881e-14 3.07916e-14 3.59629e-13 1.1607e-13 0 0 -8.54484e-14 2.2236e-13 1.82728e-13 2.69647e-13 0 0 -7.39561e-14 1.56767e-13 1.4632e-13 3.44796e-13 0 0 5.48172e-14 -1.61905e-14 2.18518e-13 2.61299e-13 0 0 1.44389e-13 -1.25961e-13 2.87274e-13 1.23469e-13 0 0 2.06083e-13 -7.45893e-14 1.53095e-13 5.65039e-14 0 0 1.69614e-13 9.28074e-14 4.59766e-14 3.81134e-14 0 0 1.51069e-14 2.68545e-13 1.23855e-14 5.336e-14 0 0 -1.01923e-13 3.75812e-13 -1.26443e-14 4.49015e-14 0 0 1.72072e-13 2.46414e-14 2.81232e-13 -1.68006e-13 0 0 1.22979e-13 1.70932e-13 2.62764e-13 -3.3114e-13 0 0 4.62383e-14 2.96485e-13 1.87512e-13 -2.29908e-13 0 0 2.19097e-13 9.16282e-14 1.79603e-14 1.36982e-13 0 0 3.42091e-13 -2.45345e-13 2.42648e-13 5.4224e-14 0 0 1.7951e-13 -2.6218e-13 5.13743e-13 -1.98603e-13 0 0 1.44091e-13 -1.42368e-13 4.36273e-13 -2.20327e-13 0 0 4.00782e-13 -3.90873e-13 5.76362e-13 -3.33369e-13 0 0 1.17329e-13 4.65699e-14 1.21953e-13 -1.7094e-14 0 0 2.36095e-13 -3.7491e-15 -1.96953e-13 4.09192e-13 0 0 6.35706e-13 -4.61694e-13 -1.12712e-13 5.13148e-13 0
				</DataArray>
				<DataArray Name="VitesseY" type="Float32" format="ascii">