<?xml version="1.0"?>
<VTKFile type="PolyData">
	<PolyData>
		<Piece NumberOfPoints="1206" NumberOfPolys="1000">
			<Points>
				<DataArray type="Float32" NumberOfComponents="3" format="ascii">
 0 0 0 0.02 0 0 0.04 0 0 0.06 0 0 0.08 0 0 0.1 0 0 0 0.005 0 0.02 0.005 0 0.04 0.005 0 0.06 0.005 0 0.08 0.005 0 0.1 0.005 0 0 0.01 0 0.02 0.01 0 0.04 0.01 0 0.06 0.01 0 0.08 0.01 0 0.1 0.01 0 0 0.015 0 0.02 0.015 0 0.04 0.015 0 0.06 0.015 0 0.08 0.015 0 0.1 0.015 0 0 0.02 0 0.02 0.02 0 0.04 0.02 0 0.06 0.02 0 0.08 0.02 0 0.1 0.02 0 0 0.025 0 0.02 0.025 0 0.04 0.025 0 0.06 0.025 0 0.08 0.025 0 0.1 0.025 0 0 0.03 0 0.02 0.03 0 0.04 0.03 0 0.06 0.03 0 0.08 0.03 0 0.1 0.03 0 0 0.035 0 0.02 0.035 0 0.04 0.035 0 0.06 0.035 0 0.08 0.035 0 0.1 0.035 0 0 0.04 0 0.02 0.04 0 0.04 0.04 0 0.06 0.04 0 0.08 0.04 0 0.1 0.04 0 0 0.045 0 0.02 0.045 0 0.04 0.045 0 0.06 0.045 0 0.08 0.045 0 0.1 0.045 0 0 0.05 0 0.02 0.05 0 0.04 0.05 0 0.06 0.05 0 0.08 0.05 0 0.1 0.05 0 0 0.055 0 0.02 0.055 0 0.04 0.055 0 0.06 0.055 0 0.08 0.055 0 0.1 0.055 0 0 0.06 0 0.02 0.06 0 0.04 0.06 0 0.06 0.06 0 0.08 0.06 0 0.1 0.06 0 0 0.065 0 0.02 0.065 0 0.04 0.065 0 0.06 0.065 0 0.08 0.065 0 0.1 0.065 0 0 0.07 0 0.02 0.07 0 0.04 0.07 0 0.06 0.07 0 0.08 0.07 0 0.1 0.07 0 0 0.075 0 0.02 0.075 0 0.04 0.075 0 0.06 0.075 0 0.08 0.075 0 0.1 0.075 0 0 0.08 0 0.02 0.08 0 0.04 0.08 0 0.06 0.08 0 0.08 0.08 0 0.1 0.08 0 0 0.085 0 0.02 0.085 0 0.04 0.085 0 0.06 0.085 0 0.08 0.085 0 0.1 0.085 0 0 0.09 0 0.02 0.09 0 0.04 0.09 0 0.06 0.09 0 0.08 0.09 0 0.1 0.09 0 0 0.095 0 0.02 0.095 0 0.04 0.095 0 0.06 0.095 0 0.08 0.095 0 0.1 0.095 0 0 0.1 0 0.02 0.1 0 0.04 0.1 0 0.06 0.1 0 0.08 0.1 0 0.1 0.1 0 0 0.105 0 0.02 0.105 0 0.04 0.105 0 0.06 0.105 0 0.08 0.105 0 0.1 0.105 0 0 0.11 0 0.02 0.11 0 0.04 0.11 0 0.06 0.11 0 0.08 0.11 0 0.1 0.11 0 0 0.115 0 0.02 0.115 0 0.04 0.115 0 0.06 0.115 0 0.08 0.115 0 0.1 0.115 0 0 0.12 0 0.02 0.12 0 0.04 0.12 0 0.06 0.12 0 0.08 0.12 0 0.1 0.12 0 0 0.125 0 0.02 0.125 0 0.04 0.125 0 0.06 0.125 0 0.08 0.125 0 0.1 0.125 0 0 0.13 0 0.02 0.13 0 0.04 0.13 0 0.06 0.13 0 0.08 0.13 0 0.1 0.13 0 0 0.135 0 0.02 0.135 0 0.04 0.135 0 0.06 0.135 0 0.08 0.135 0 0.1 0.135 0 0 0.14 0 0.02 0.14 0 0.04 0.14 0 0.06 0.14 0 0.08 0.14 0 0.1 0.14 0 0 0.145 0 0.02 0.145 0 0.04 0.145 0 0.06 0.145 0 0.08 0.145 0 0.1 0.145 0 0 0.15 0 0.02 0.15 0 0.04 0.15 0 0.06 0.15 0 0.08 0.15 0 0.1 0.15 0 0 0.155 0 0.02 0.155 0 0.04 0.155 0 0.06 0.155 0 0.08 0.155 0 0.1 0.155 0 0 0.16 0 0.02 0.16 0 0.04 0.16 0 0.06 0.16 0 0.08 0.16 0 0.1 0.16 0 0 0.165 0 0.02 0.165 0 0.04 0.165 0 0.06 0.165 0 0.08 0.165 0 0.1 0.165 0 0 0.17 0 0.02 0.17 0 0.04 0.17 0 0.06 0.17 0 0.08 0.17 0 0.1 0.17 0 0 0.175 0 0.02 0.175 0 0.04 0.175 0 0.06 0.175 0 0.08 0.175 0 0.1 0.175 0 0 0.18 0 0.02 0.18 0 0.04 0.18 0 0.06 0.18 0 0.08 0.18 0 0.1 0.18 0 0 0.185 0 0.02 0.185 0 0.04 0.185 0 0.06 0.185 0 0.08 0.185 0 0.1 0.185 0 0 0.19 0 0.02 0.19 0 0.04 0.19 0 0.06 0.19 0 0.08 0.19 0 0.1 0.19 0 0 0.195 0 0.02 0.195 0 0.04 0.195 0 0.06 0.195 0 0.08 0.195 0 0.1 0.195 0 0 0.2 0 0.02 0.2 0 0.04 0.2 0 0.06 0.2 0 0.08 0.2 0 0.1 0.2 0 0 0.205 0 0.02 0.205 0 0.04 0.205 0 0.06 0.205 0 0.08 0.205 0 0.1 0.205 0 0 0.21 0 0.02 0.21 0 0.04 0.21 0 0.06 0.21 0 0.08 0.21 0 0.1 0.21 0 0 0.215 0 0.02 0.215 0 0.04 0.215 0 0.06 0.215 0 0.08 0.215 0 0.1 0.215 0 0 0.22 0 0.02 0.22 0 0.04 0.22 0 0.06 0.22 0 0.08 0.22 0 0.1 0.22 0 0 0.225 0 0.02 0.225 0 0.04 0.225 0 0.06 0.225 0 0.08 0.225 0 0.1 0.225 0 0 0.23 0 0.02 0.23 0 0.04 0.23 0 0.06 0.23 0 0.08 0.23 0 0.1 0.23 0 0 0.235 0 0.02 0.235 0 0.04 0.235 0 0.06 0.235 0 0.08 0.235 0 0.1 0.235 0 0 0.24 0 0.02 0.24 0 0.04 0.24 0 0.06 0.24 0 0.08 0.24 0 0.1 0.24 0 0 0.245 0 0.02 0.245 0 0.04 0.245 0 0.06 0.245 0 0.08 0.245 0 0.1 0.245 0 0 0.25 0 0.02 0.25 0 0.04 0.25 0 0.06 0.25 0 0.08 0.25 0 0.1 0.25 0 0 0.255 0 0.02 0.255 0 0.04 0.255 0 0.06 0.255 0 0.08 0.255 0 0.1 0.255 0 0 0.26 0 0.02 0.26 0 0.04 0.26 0 0.06 0.26 0 0.08 0.26 0 0.1 0.26 0 0 0.265 0 0.02 0.265 0 0.04 0.265 0 0.06 0.265 0 0.08 0.265 0 0.1 0.265 0 0 0.27 0 0.02 0.27 0 0.04 0.27 0 0.06 0.27 0 0.08 0.27 0 0.1 0.27 0 0 0.275 0 0.02 0.275 0 0.04 0.275 0 0.06 0.275 0 0.08 0.275 0 0.1 0.275 0 0 0.28 0 0.02 0.28 0 0.04 0.28 0 0.06 0.28 0 0.08 0.28 0 0.1 0.28 0 0 0.285 0 0.02 0.285 0 0.04 0.285 0 0.06 0.285 0 0.08 0.285 0 0.1 0.285 0 0 0.29 0 0.02 0.29 0 0.04 0.29 0 0.06 0.29 0 0.08 0.29 0 0.1 0.29 0 0 0.295 0 0.02 0.295 0 0.04 0.295 0 0.06 0.295 0 0.08 0.295 0 0.1 0.295 0 0 0.3 0 0.02 0.3 0 0.04 0.3 0 0.06 0.3 0 0.08 0.3 0 0.1 0.3 0 0 0.305 0 0.02 0.305 0 0.04 0.305 0 0.06 0.305 0 0.08 0.305 0 0.1 0.305 0 0 0.31 0 0.02 0.31 0 0.04 0.31 0 0.06 0.31 0 0.08 0.31 0 0.1 0.31 0 0 0.315 0 0.02 0.315 0 0.04 0.315 0 0.06 0.315 0 0.08 0.315 0 0.1 0.315 0 0 0.32 0 0.02 0.32 0 0.04 0.32 0 0.06 0.32 0 0.08 0.32 0 0.1 0.32 0 0 0.325 0 0.02 0.325 0 0.04 0.325 0 0.06 0.325 0 0.08 0.325 0 0.1 0.325 0 0 0.33 0 0.02 0.33 0 0.04 0.33 0 0.06 0.33 0 0.08 0.33 0 0.1 0.33 0 0 0.335 0 0.02 0.335 0 0.04 0.335 0 0.06 0.335 0 0.08 0.335 0 0.1 0.335 0 0 0.34 0 0.02 0.34 0 0.04 0.34 0 0.06 0.34 0 0.08 0.34 0 0.1 0.34 0 0 0.345 0 0.02 0.345 0 0.04 0.345 0 0.06 0.345 0 0.08 0.345 0 0.1 0.345 0 0 0.35 0 0.02 0.35 0 0.04 0.35 0 0.06 0.35 0 0.08 0.35 0 0.1 0.35 0 0 0.355 0 0.02 0.355 0 0.04 0.355 0 0.06 0.355 0 0.08 0.355 0 0.1 0.355 0 0 0.36 0 0.02 0.36 0 0.04 0.36 0 0.06 0.36 0 0.08 0.36 0 0.1 0.36 0 0 0.365 0 0.02 0.365 0 0.04 0.365 0 0.06 0.365 0 0.08 0.365 0 0.1 0.365 0 0 0.37 0 0.02 0.37 0 0.04 0.37 0 0.06 0.37 0 0.08 0.37 0 0.1 0.37 0 0 0.375 0 0.02 0.375 0 0.04 0.375 0 0.06 0.375 0 0.08 0.375 0 0.1 0.375 0 0 0.38 0 0.02 0.38 0 0.04 0.38 0 0.06 0.38 0 0.08 0.38 0 0.1 0.38 0 0 0.385 0 0.02 0.385 0 0.04 0.385 0 0.06 0.385 0 0.08 0.385 0 0.1 0.385 0 0 0.39 0 0.02 0.39 0 0.04 0.39 0 0.06 0.39 0 0.08 0.39 0 0.1 0.39 0 0 0.395 0 0.02 0.395 0 0.04 0.395 0 0.06 0.395 0 0.08 0.395 0 0.1 0.395 0 0 0.4 0 0.02 0.4 0 0.04 0.4 0 0.06 0.4 0 0.08 0.4 0 0.1 0.4 0 0 0.405 0 0.02 0.405 0 0.04 0.405 0 0.06 0.405 0 0.08 0.405 0 0.1 0.405 0 0 0.41 0 0.02 0.41 0 0.04 0.41 0 0.06 0.41 0 0.08 0.41 0 0.1 0.41 0 0 0.415 0 0.02 0.415 0 0.04 0.415 0 0.06 0.415 0 0.08 0.415 0 0.1 0.415 0 0 0.42 0 0.02 0.42 0 0.04 0.42 0 0.06 0.42 0 0.08 0.42 0 0.1 0.42 0 0 0.425 0 0.02 0.425 0 0.04 0.425 0 0.06 0.425 0 0.08 0.425 0 0.1 0.425 0 0 0.43 0 0.02 0.43 0 0.04 0.43 0 0.06 0.43 0 0.08 0.43 0 0.1 0.43 0 0 0.435 0 0.02 0.435 0 0.04 0.435 0 0.06 0.435 0 0.08 0.435 0 0.1 0.435 0 0 0.44 0 0.02 0.44 0 0.04 0.44 0 0.06 0.44 0 0.08 0.44 0 0.1 0.44 0 0 0.445 0 0.02 0.445 0 0.04 0.445 0 0.06 0.445 0 0.08 0.445 0 0.1 0.445 0 0 0.45 0 0.02 0.45 0 0.04 0.45 0 0.06 0.45 0 0.08 0.45 0 0.1 0.45 0 0 0.455 0 0.02 0.455 0 0.04 0.455 0 0.06 0.455 0 0.08 0.455 0 0.1 0.455 0 0 0.46 0 0.02 0.46 0 0.04 0.46 0 0.06 0.46 0 0.08 0.46 0 0.1 0.46 0 0 0.465 0 0.02 0.465 0 0.04 0.465 0 0.06 0.465 0 0.08 0.465 0 0.1 0.465 0 0 0.47 0 0.02 0.47 0 0.04 0.47 0 0.06 0.47 0 0.08 0.47 0 0.1 0.47 0 0 0.475 0 0.02 0.475 0 0.04 0.475 0 0.06 0.475 0 0.08 0.475 0 0.1 0.475 0 0 0.48 0 0.02 0.48 0 0.04 0.48 0 0.06 0.48 0 0.08 0.48 0 0.1 0.48 0 0 0.485 0 0.02 0.485 0 0.04 0.485 0 0.06 0.485 0 0.08 0.485 0 0.1 0.485 0 0 0.49 0 0.02 0.49 0 0.04 0.49 0 0.06 0.49 0 0.08 0.49 0 0.1 0.49 0 0 0.495 0 0.02 0.495 0 0.04 0.495 0 0.06 0.495 0 0.08 0.495 0 0.1 0.495 0 0 0.5 0 0.02 0.5 0 0.04 0.5 0 0.06 0.5 0 0.08 0.5 0 0.1 0.5 0 0 0.505 0 0.02 0.505 0 0.04 0.505 0 0.06 0.505 0 0.08 0.505 0 0.1 0.505 0 0 0.51 0 0.02 0.51 0 0.04 0.51 0 0.06 0.51 0 0.08 0.51 0 0.1 0.51 0 0 0.515 0 0.02 0.515 0 0.04 0.515 0 0.06 0.515 0 0.08 0.515 0 0.1 0.515 0 0 0.52 0 0.02 0.52 0 0.04 0.52 0 0.06 0.52 0 0.08 0.52 0 0.1 0.52 0 0 0.525 0 0.02 0.525 0 0.04 0.525 0 0.06 0.525 0 0.08 0.525 0 0.1 0.525 0 0 0.53 0 0.02 0.53 0 0.04 0.53 0 0.06 0.53 0 0.08 0.53 0 0.1 0.53 0 0 0.535 0 0.02 0.535 0 0.04 0.535 0 0.06 0.535 0 0.08 0.535 0 0.1 0.535 0 0 0.54 0 0.02 0.54 0 0.04 0.54 0 0.06 0.54 0 0.08 0.54 0 0.1 0.54 0 0 0.545 0 0.02 0.545 0 0.04 0.545 0 0.06 0.545 0 0.08 0.545 0 0.1 0.545 0 0 0.55 0 0.02 0.55 0 0.04 0.55 0 0.06 0.55 0 0.08 0.55 0 0.1 0.55 0 0 0.555 0 0.02 0.555 0 0.04 0.555 0 0.06 0.555 0 0.08 0.555 0 0.1 0.555 0 0 0.56 0 0.02 0.56 0 0.04 0.56 0 0.06 0.56 0 0.08 0.56 0 0.1 0.56 0 0 0.565 0 0.02 0.565 0 0.04 0.565 0 0.06 0.565 0 0.08 0.565 0 0.1 0.565 0 0 0.57 0 0.02 0.57 0 0.04 0.57 0 0.06 0.57 0 0.08 0.57 0 0.1 0.57 0 0 0.575 0 0.02 0.575 0 0.04 0.575 0 0.06 0.575 0 0.08 0.575 0 0.1 0.575 0 0 0.58 0 0.02 0.58 0 0.04 0.58 0 0.06 0.58 0 0.08 0.58 0 0.1 0.58 0 0 0.585 0 0.02 0.585 0 0.04 0.585 0 0.06 0.585 0 0.08 0.585 0 0.1 0.585 0 0 0.59 0 0.02 0.59 0 0.04 0.59 0 0.06 0.59 0 0.08 0.59 0 0.1 0.59 0 0 0.595 0 0.02 0.595 0 0.04 0.595 0 0.06 0.595 0 0.08 0.595 0 0.1 0.595 0 0 0.6 0 0.02 0.6 0 0.04 0.6 0 0.06 0.6 0 0.08 0.6 0 0.1 0.6 0 0 0.605 0 0.02 0.605 0 0.04 0.605 0 0.06 0.605 0 0.08 0.605 0 0.1 0.605 0 0 0.61 0 0.02 0.61 0 0.04 0.61 0 0.06 0.61 0 0.08 0.61 0 0.1 0.61 0 0 0.615 0 0.02 0.615 0 0.04 0.615 0 0.06 0.615 0 0.08 0.615 0 0.1 0.615 0 0 0.62 0 0.02 0.62 0 0.04 0.62 0 0.06 0.62 0 0.08 0.62 0 0.1 0.62 0 0 0.625 0 0.02 0.625 0 0.04 0.625 0 0.06 0.625 0 0.08 0.625 0 0.1 0.625 0 0 0.63 0 0.02 0.63 0 0.04 0.63 0 0.06 0.63 0 0.08 0.63 0 0.1 0.63 0 0 0.635 0 0.02 0.635 0 0.04 0.635 0 0.06 0.635 0 0.08 0.635 0 0.1 0.635 0 0 0.64 0 0.02 0.64 0 0.04 0.64 0 0.06 0.64 0 0.08 0.64 0 0.1 0.64 0 0 0.645 0 0.02 0.645 0 0.04 0.645 0 0.06 0.645 0 0.08 0.645 0 0.1 0.645 0 0 0.65 0 0.02 0.65 0 0.04 0.65 0 0.06 0.65 0 0.08 0.65 0 0.1 0.65 0 0 0.655 0 0.02 0.655 0 0.04 0.655 0 0.06 0.655 0 0.08 0.655 0 0.1 0.655 0 0 0.66 0 0.02 0.66 0 0.04 0.66 0 0.06 0.66 0 0.08 0.66 0 0.1 0.66 0 0 0.665 0 0.02 0.665 0 0.04 0.665 0 0.06 0.665 0 0.08 0.665 0 0.1 0.665 0 0 0.67 0 0.02 0.67 0 0.04 0.67 0 0.06 0.67 0 0.08 0.67 0 0.1 0.67 0 0 0.675 0 0.02 0.675 0 0.04 0.675 0 0.06 0.675 0 0.08 0.675 0 0.1 0.675 0 0 0.68 0 0.02 0.68 0 0.04 0.68 0 0.06 0.68 0 0.08 0.68 0 0.1 0.68 0 0 0.685 0 0.02 0.685 0 0.04 0.685 0 0.06 0.685 0 0.08 0.685 0 0.1 0.685 0 0 0.69 0 0.02 0.69 0 0.04 0.69 0 0.06 0.69 0 0.08 0.69 0 0.1 
[...]
			<PointData Scalars="VitesseX">
				<DataArray Name="VitesseX" type="Float32" format="ascii">
 0 9.60178e-15 -1.2284e-14 2.8466e-14 2.62875e-14 0 0 2.40073e-15 -3.35519e-16 1.99516e-14 2.99584e-14 0 0 -4.04635e-15 1.00008e-14 1.71472e-14 3.11261e-14 0 0 -9.17048e-15 1.65378e-14 2.34529e-14 2.63915e-14 0 0 -1.36649e-14 2.55049e-14 2.26251e-14 2.79016e-14 0 0 -1.57872e-14 2.77973e-14 2.7789e-14 2.58249e-14 0 0 -2.37344e-15 -6.14487e-16 6.57429e-14 -1.26589e-15 0 0 -1.63263e-15 -6.19787e-15 6.76444e-14 2.3022e-15 0 0 -1.07882e-14 3.60144e-15 5.43371e-14 1.77724e-14 0 0 -1.24226e-14 9.54725e-15 3.97708e-14 3.27975e-14 0 0 -7.87775e-15 1.14397e-14 2.59753e-14 4.50519e-14 0 0 7.59396e-15 -9.39584e-15 3.32754e-14 4.7034e-14 0 0 8.62791e-15 -1.3692e-14 2.48955e-14 6.04132e-14 0 0 2.70547e-14 -1.81057e-14 8.75001e-15 7.32383e-14 0 0 3.25388e-14 -4.4788e-15 5.95536e-15 5.83907e-14 0 0 1.2509e-14 3.31333e-14 1.28022e-14 2.51939e-14 0 0 2.60596e-14 1.92727e-14 5.30378e-14 -9.75074e-15 0 0 2.94849e-14 1.32477e-14 6.20115e-14 -1.02948e-14 0 0 4.49656e-15 5.73486e-14 7.23705e-15 3.33658e-14 0 0 -4.25115e-15 6.06805e-14 -5.1728e-15 5.10107e-14 0 0 1.80705e-14 7.09856e-15 4.31268e-14 2.75195e-14 0 0 2.27732e-14 6.12969e-15 4.60464e-14 2.58627e-14 0 0 -8.09494e-15 6.62928e-14 -1.82983e-14 6.14769e-14 0 0 -4.4567e-14 1.24987e-13 -7.91014e-14 8.36664e-14 0 0 5.65982e-15 2.67059e-14 1.26799e-14 2.39968e-14 0 0 6.77471e-14 -9.68315e-14 1.37008e-13 -5.19098e-14 0 0 -5.20488e-15 1.59166e-14 4.93006e-14 -1.82004e-14 0 0 -5.02226e-14 1.01307e-13 -4.23857e-14 3.97916e-14 0 0 7.12337e-15 2.68854e-14 1.47533e-14 3.93511e-15 0 0 4.13698e-14 -5.04499e-15 4.68543e-14 -2.09342e-14 0 0 1.46982e-14 5.6785e-14 -2.67771e-15 3.78299e-14 0 0 1.53328e-14 6.66956e-14 6.86277e-15 5.6901e-14 0 0 3.34233e-14 3.35865e-14 7.32629e-14 2.97474e-14 0 0 -3.90202e-14 1.15364e-13 4.67351e-14 5.67048e-14 0 0 7.83103e-15 4.93042e-14 1.19126e-13 1.31207e-14 0 0 1.11139e-13 -7.2346e-14 1.9503e-13 -1.92544e-14 0 0 5.48251e-14 -1.08921e-14 1.39963e-13 -6.77836e-15 0 0 5.35491e-15 1.54959e-14 1.3685e-13 -1.09305e-14 0 0 -4.66346e-14 7.69289e-14 3.82082e-14 1.04273e-13 0 0 -7.93185e-14 9.6155e-14 3.8855e-16 1.40256e-13 0 0 -4.74903e-14 2.73127e-14 7.60153e-14 8.85146e-14 0 0 -3.94934e-14 1.60367e-14 7.73914e-14 1.03928e-13 0 0 -1.05874e-13 8.04e-14 6.28572e-14 8.76431e-14 0 0 -8.72831e-14 5.30291e-14 1.09211e-13 2.18328e-14 0 0 1.698e-14 -2.94171e-14 1.32193e-13 -9.11624e-15 0 0 -2.57924e-14 2.85146e-14 8.58041e-14 -3.4686e-15 0 0 -1.11115e-13 1.26177e-13 -1.17837e-14 4.67802e-14 0 0 -5.59224e-14 1.07478e-13 -8.56673e-14 1.06273e-13 0 0 2.55782e-14 2.5553e-14 -4.83869e-15 4.47141e-14 0 0 7.86382e-14 -6.22625e-14 1.62199e-13 -6.96461e-14 0 0 1.66855e-13 -2.16238e-13 3.58885e-13 -1.66802e-13 0 0 7.17029e-14 -4.71653e-14 2.43746e-13 -1.10627e-13 0 0 -6.93042e-14 2.08342e-13 -1.10236e-14 6.62538e-14 0 0 -1.03873e-13 2.71159e-13 -9.78318e-14 1.83058e-13 0 0 6.23417e-14 4.87124e-14 1.21955e-13 5.54293e-14 0 0 2.43875e-13 -1.76871e-13 3.10608e-13 -8.3904e-14 0 0 1.40898e-13 3.58806e-14 6.03441e-14 3.0847e-14 0 0 4.65043e-14 7.98298e-14 8.67991e-14 -3.63039e-16 0 0 -8.50894e-15 7.09349e-14 2.09549e-13 -2.59079e-14 0 0 2.92306e-14 1.07637e-13 1.99592e-13 4.35104e-14 0 0 1.34257e-13 8.93994e-14 1.56445e-13 1.26917e-13 0 0 8.14723e-15 2.84104e-13 -3.48862e-15 2.24024e-13 0 0 -3.78851e-14 2.5884e-13 1.08863e-13 1.29748e-13 0 0 1.4149e-15 8.37781e-14 3.28732e-13 4.75891e-14 0 0 -2.53774e-14 4.9016e-14 3.91533e-13 9.51454e-14 0 0 -3.07442e-14 9.04511e-14 3.069e-13 1.64949e-13 0 0 -1.63384e-13 2.77751e-13 1.14808e-13 2.53153e-13 0 0 -7.32359e-14 9.87577e-14 2.90822e-13 1.94958e-13 0 0 1.00124e-13 -1.65023e-13 5.92185e-13 -2.6443e-16 0 0 -3.11911e-14 6.07124e-14 3.47005e-13 1.44358e-13 0 0 -7.43762e-14 1.15521e-13 1.79122e-13 2.83182e-13 0 0 3.1323e-14 4.56795e-14 1.57088e-13 2.26176e-13 0 0 3.56148e-13 -3.26501e-13 4.174e-13 -7.15468e-15 0 0 2.77626e-13 -1.76629e-13 3.62454e-13 -7.10137e-14 0 0 -5.39147e-14 2.74071e-13 8.28361e-14 8.2039e-14 0 0 -4.36848e-14 1.87401e-13 1.05911e-13 2.4514e-13 0 0 4.27629e-15 1.61636e-13 6.77596e-14 3.65734e-13 0 0 2.60664e-13 -1.89002e-13 6.10246e-13 -1.44369e-13 0 0 2.10348e-13 -3.51887e-14 5.65907e-13 -3.71343e-13 0 0 1.95257e-13 1.66888e-13 2.04677e-13 -1.5843e-13 0 0 4.46375e-13 -1.29049e-13 2.33013e-13 -2.39312e-14 0 0 3.98061e-13 2.69796e-14 -8.43115e-14 2.49442e-13 0 0 2.30637e-13 2.30468e-13 -2.39341e-13 3.00302e-13 0 0 7.22083e-14 3.03934e-13 -2.63661e-13 3.75063e-13 0 0 8.03759e-14 1.9919e-13 -1.07181e-13 3.0403e-13 0 0 1.79188e-13 -1.67355e-13 3.50596e-13 6.55774e-14 0 0 2.1112e-13 -3.71984e-13 6.74124e-13 -1.47496e-13 0 0 1.11067e-13 -3.29139e-13 6.1889e-13 -8.89279e-14 0 0 -1.65869e-13 -1.94686e-14 3.77192e-13 7.63018e-14 0 0 -2.79787e-13 2.97395e-13 -7.51569e-14 2.48392e-13 0 0 -2.48451e-13 3.10366e-13 -1.99382e-13 3.75202e-13 0 0 -5.46015e-14 1.8966e-13 -1.62364e-13 4.44051e-13 0 0 2.48825e-13 -1.05064e-13 -4.93497e-14 4.81704e-13 0 0 3.86482e-13 -3.2844e-13 8.34203e-14 4.48574e-13 0 0 3.70395e-13 -3.27735e-13 2.10353e-13 3.61152e-13 0 0 3.0161e-13 -2.53206e-13 2.21153e-13 2.95395e-13 0 0 1.49434e-13 -6.86961e-14 1.977e-13 2.55064e-13 0 0 6.08138e-15 1.20993e-13 1.71808e-13 1.7697e-13 0 0 -1.35783e-13 2.923e-13 1.70311e-13 8.25832e-14 0 0 -1.40384e-13 4.44406e-13 1.94033e-13 -4.39776e-15 0 0 -1.08665e-13 4.51238e-13 2.58077e-13 -7.57166e-14 0 0 -1.85889e-14 4.22183e-13 3.27996e-13 -9.89364e-14 0 0 8.0118e-14 3.59361e-13 3.95943e-13 -9.39662e-14 0 0 1.66602e-13 3.37625e-13 4.42472e-13 -3.28323e-14 0 0 2.41078e-13 3.08881e-13 5.18514e-13 -4.13189e-14 0 0 2.36561e-13 3.263e-13 6.15275e-13 -9.65606e-14 0 0 1.47044e-13 4.72603e-13 5.06611e-13 -9.8526e-15 0 0 2.6741e-14 6.14003e-13 4.04299e-13 -4.04803e-14 0 0 2.33414e-14 5.97004e-13 3.28233e-13 -8.70168e-14 0 0 3.04046e-14 5.85064e-13 1.27201e-13 -6.73813e-15 0 0 7.95787e-14 5.67811e-13 -1.8823e-15 1.32008e-13 0 0 1.80271e-13 4.84097e-13 -5.23702e-15 1.65092e-13 0 0 2.70914e-13 3.30877e-13 1.18791e-13 1.34647e-13 0 0 3.27186e-13 2.4721e-13 2.22245e-13 9.47213e-14 0 0 3.12571e-13 2.59941e-13 2.3769e-13 7.8187e-14 0 0 2.67687e-13 3.12737e-13 2.4817e-13 2.98546e-14 0 0 2.01439e-13 3.96202e-13 2.29156e-13 2.92057e-14 0 0 9.75713e-14 5.70779e-13 1.07028e-13 1.09123e-13 0 0 2.23506e-14 6.86577e-13 3.30311e-14 1.30291e-13 0 0 2.1952e-14 6.75292e-13 6.29e-14 7.73026e-14 0 0 7.10146e-14 5.59184e-13 1.72028e-13 -3.04319e-14 0 0 1.56673e-13 3.29435e-13 3.18925e-13 -1.23903e-13 0 0 2.45303e-13 2.6517e-14 4.93171e-13 -1.83336e-13 0 0 2.31427e-13 -7.30531e-15 4.66424e-13 -1.07138e-13 0 0 1.53081e-13 7.99401e-14 2.34427e-13 1.973e-13 0 0 8.21579e-14 1.652e-13 1.47514e-13 3.75292e-13 0 0 6.96302e-14 2.18625e-13 1.60589e-13 3.63567e-13 0 0 6.79146e-14 2.34459e-13 1.7353e-13 2.78352e-13 0 0 7.05011e-14 2.32056e-13 2.2325e-13 1.14416e-13 0 0 8.16967e-14 2.42249e-13 2.24074e-13 7.29398e-14 0 0 7.50436e-14 2.75074e-13 1.80758e-13 1.35999e-13 0 0 7.36462e-14 2.84776e-13 1.76871e-13 1.02172e-13 0 0 1.14988e-13 2.32145e-13 1.77069e-13 8.84161e-14 0 0 1.53889e-13 1.69991e-13 1.85969e-13 1.6002e-13 0 0 1.18167e-13 2.10988e-13 1.59775e-13 1.04508e-13 0 0 1.02759e-13 2.19606e-13 1.62049e-13 6.31631e-14 0 0 9.22119e-14 1.96726e-13 1.92906e-13 8.8581e-14 0 0 7.81205e-14 1.81494e-13 1.89917e-13 6.75146e-14 0 0 1.0307e-13 1.15103e-13 1.99789e-13 7.84692e-14 0 0 5.59839e-14 1.86673e-13 1.17222e-13 2.16851e-13 0 0 -1.12742e-15 2.67052e-13 1.48213e-13 1.32828e-13 0 0 1.90065e-14 2.73071e-13 2.17327e-13 2.30526e-14 0 0 8.39983e-14 2.1394e-13 2.69891e-13 8.36708e-14 0 0 1.1245e-13 1.39494e-13 4.34243e-13 -2.0479e-14 0 0 6.28813e-14 2.06461e-13 4.26588e-13 1.33102e-14 0 0 5.60104e-14 2.55156e-13 3.93605e-13 7.99123e-14 0 0 4.58365e-14 2.96786e-13 3.58346e-13 1.08765e-13 0 0 7.9672e-14 2.17314e-13 4.8445e-13 5.89038e-14 0 0 1.03597e-13 1.99255e-13 5.22507e-13 5.34106e-14 0 0 1.39205e-14 3.8772e-13 3.51857e-13 2.58967e-13 0 0 6.75024e-14 3.18367e-13 4.90209e-13 2.31381e-13 0 0 1.20412e-13 3.19686e-13 5.20034e-13 1.99151e-13 0 0 1.17649e-13 3.91669e-13 4.8638e-13 2.89986e-13 0 0 1.23114e-13 4.07391e-13 5.00184e-13 3.51456e-13 0 0 1.40521e-13 4.60471e-13 4.34041e-13 4.08819e-13 0 0 1.73406e-13 5.31926e-13 3.68626e-13 4.7029e-13 0 0 3.11807e-13 4.31131e-13 4.96072e-13 3.20792e-13 0 0 4.34803e-13 3.39174e-13 6.20593e-13 1.89239e-13 0 0 3.50397e-13 5.81595e-13 4.88668e-13 2.62018e-13 0 0 3.99038e-13 5.55174e-13 6.48771e-13 7.51923e-14 0 0 3.33411e-13 6.96459e-13 6.00569e-13 -7.05886e-15 0 0 4.10596e-13 6.91234e-13 5.62432e-13 6.36208e-15 0 0 6.0159e-13 5.42819e-13 5.55966e-13 7.44978e-14 0 0 5.94644e-13 6.83278e-13 3.42443e-13 2.12459e-13 0 0 6.42633e-13 6.2199e-13 3.76721e-13 2.93132e-13 0 0 6.46827e-13 5.60384e-13 5.05165e-13 2.23257e-13 0 0 6.23006e-13 6.03427e-13 5.14374e-13 1.94019e-13 0 0 6.11252e-13 6.99101e-13 4.12089e-13 2.60364e-13 0 0 4.94523e-13 9.29774e-13 2.13598e-13 2.99102e-13 0 0 4.97492e-13 8.45032e-13 3.72418e-13 1.84931e-13 0 0 6.08664e-13 6.81795e-13 4.14995e-13 2.33915e-13 0 0 5.72175e-13 7.6844e-13 3.1306e-13 3.05185e-13 0 0 5.97072e-13 6.74854e-13 6.49637e-13 -1.45368e-14 0 0 5.13456e-13 8.9233e-13 3.55023e-13 2.53294e-13 0 0 5.03919e-13 9.2694e-13 1.97124e-13 5.50601e-13 0 0 3.85745e-13 9.49352e-13 3.67086e-13 3.90735e-13 0 0 2.12134e-13 1.073e-12 4.42548e-13 2.1724e-13 0 0 4.339e-13 6.9824e-13 6.77234e-13 1.84391e-13 0 0 5.15865e-13 6.71865e-13 4.81215e-13 4.70699e-13 0 0 4.64533e-13 7.25944e-13 5.65249e-13 3.49712e-13 0 0 3.40304e-13 9.08819e-13 4.59614e-13 2.87779e-13 0 0 2.9385e-13 9.7405e-13 3.38945e-13 3.37753e-13 0 0 6.24467e-13 5.47149e-13 5.62939e-13 3.06266e-13 0 0 6.86034e-13 4.78733e-13 4.80519e-13 4.8934e-13 0 0 4.12077e-13 7.75505e-13 2.8647e-13 6.66898e-13 0 0 3.58279e-13 7.6072e-13 4.10214e-13 6.39532e-13 0 0 4.2897e-13 5.18449e-13 8.62205e-13 2.73729e-13 0 0 3.36297e-13 6.25368e-13 7.98616e-13 2.25183e-13 0 0 1.02557e-13 9.25106e-13 5.09195e-13 3.72689e-13 0 0 2.75985e-13 5.81884e-13 9.79698e-13 6.00312e-15 0 0 2.71652e-13 5.74279e-13 1.08705e-12 -1.32771e-13 0 0 -1.27429e-13 1.30196e-12 3.06408e-13 4.05329e-13 0 0 7.28471e-14 1.04694e-12 3.38171e-13 5.22137e-13 0 0 2.80018e-13 6.22778e-13 7.11376e-13 2.69887e-13 0 0 -4.77509e-14 9.67835e-13 6.60031e-13 1.15729e-13 0 0 -9.60179e-14 1.00247e-12 7.1841e-13 9.0066e-14 0 0 2.1866e-13 6.48103e-13 8.51703e-13 1.5456e-13 0 0 2.70837e-13 5.37446e-13 1.08452e-12 -1.01827e-13 0 0 1.84222e-13 6.5054e-13 1.0009e-12 -7.50407e-14 0 0 1.86683e-13 6.39518e-13 1.06462e-12 -1.23142e-13 0 0 1.68139e-13 5.73365e-13 1.3701e-12 -4.29553e-13 0
				</DataArray>
				<DataArray Name="VitesseY" type="Float32" format="ascii">