<?xml version="1.0"?>
<VTKFile type="PolyData">
	<PolyData>
		<Piece NumberOfPoints="1206" NumberOfPolys="1000">
			<Points>
				<DataArray type="Float32" NumberOfComponents="3" format="ascii">
 0 0 0 0.02 0 0 0.04 0 0 0.06 0 0 0.08 0 0 0.1 0 0 0 0.005 0 0.02 0.005 0 0.04 0.005 0 0.06 0.005 0 0.08 0.005 0 0.1 0.005 0 0 0.01 0 0.02 0.01 0 0.04 0.01 0 0.06 0.01 0 0.08 0.01 0 0.1 0.01 0 0 0.015 0 0.02 0.015 0 0.04 0.015 0 0.06 0.015 0 0.08 0.015 0 0.1 0.015 0 0 0.02 0 0.02 0.02 0 0.04 0.02 0 0.06 0.02 0 0.08 0.02 0 0.1 0.02 0 0 0.025 0 0.02 0.025 0 0.04 0.025 0 0.06 0.025 0 0.08 0.025 0 0.1 0.025 0 0 0.03 0 0.02 0.03 0 0.04 0.03 0 0.06 0.03 0 0.08 0.03 0 0.1 0.03 0 0 0.035 0 0.02 0.035 0 0.04 0.035 0 0.06 0.035 0 0.08 0.035 0 0.1 0.035 0 0 0.04 0 0.02 0.04 0 0.04 0.04 0 0.06 0.04 0 0.08 0.04 0 0.1 0.04 0 0 0.045 0 0.02 0.045 0 0.04 0.045 0 0.06 0.045 0 0.08 0.045 0 0.1 0.045 0 0 0.05 0 0.02 0.05 0 0.04 0.05 0 0.06 0.05 0 0.08 0.05 0 0.1 0.05 0 0 0.055 0 0.02 0.055 0 0.04 0.055 0 0.06 0.055 0 0.08 0.055 0 0.1 0.055 0 0 0.06 0 0.02 0.06 0 0.04 0.06 0 0.06 0.06 0 0.08 0.06 0 0.1 0.06 0 0 0.065 0 0.02 0.065 0 0.04 0.065 0 0.06 0.065 0 0.08 0.065 0 0.1 0.065 0 0 0.07 0 0.02 0.07 0 0.04 0.07 0 0.06 0.07 0 0.08 0.07 0 0.1 0.07 0 0 0.075 0 0.02 0.075 0 0.04 0.075 0 0.06 0.075 0 0.08 0.075 0 0.1 0.075 0 0 0.08 0 0.02 0.08 0 0.04 0.08 0 0.06 0.08 0 0.08 0.08 0 0.1 0.08 0 0 0.085 0 0.02 0.085 0 0.04 0.085 0 0.06 0.085 0 0.08 0.085 0 0.1 0.085 0 0 0.09 0 0.02 0.09 0 0.04 0.09 0 0.06 0.09 0 0.08 0.09 0 0.1 0.09 0 0 0.095 0 0.02 0.095 0 0.04 0.095 0 0.06 0.095 0 0.08 0.095 0 0.1 0.095 0 0 0.1 0 0.02 0.1 0 0.04 0.1 0 0.06 0.1 0 0.08 0.1 0 0.1 0.1 0 0 0.105 0 0.02 0.105 0 0.04 0.105 0 0.06 0.105 0 0.08 0.105 0 0.1 0.105 0 0 0.11 0 0.02 0.11 0 0.04 0.11 0 0.06 0.11 0 0.08 0.11 0 0.1 0.11 0 0 0.115 0 0.02 0.115 0 0.04 0.115 0 0.06 0.115 0 0.08 0.115 0 0.1 0.115 0 0 0.12 0 0.02 0.12 0 0.04 0.12 0 0.06 0.12 0 0.08 0.12 0 0.1 0.12 0 0 0.125 0 0.02 0.125 0 0.04 0.125 0 0.06 0.125 0 0.08 0.125 0 0.1 0.125 0 0 0.13 0 0.02 0.13 0 0.04 0.13 0 0.06 0.13 0 0.08 0.13 0 0.1 0.13 0 0 0.135 0 0.02 0.135 0 0.04 0.135 0 0.06 0.135 0 0.08 0.135 0 0.1 0.135 0 0 0.14 0 0.02 0.14 0 0.04 0.14 0 0.06 0.14 0 0.08 0.14 0 0.1 0.14 0 0 0.145 0 0.02 0.145 0 0.04 0.145 0 0.06 0.145 0 0.08 0.145 0 0.1 0.145 0 0 0.15 0 0.02 0.15 0 0.04 0.15 0 0.06 0.15 0 0.08 0.15 0 0.1 0.15 0 0 0.155 0 0.02 0.155 0 0.04 0.155 0 0.06 0.155 0 0.08 0.155 0 0.1 0.155 0 0 0.16 0 0.02 0.16 0 0.04 0.16 0 0.06 0.16 0 0.08 0.16 0 0.1 0.16 0 0 0.165 0 0.02 0.165 0 0.04 0.165 0 0.06 0.165 0 0.08 0.165 0 0.1 0.165 0 0 0.17 0 0.02 0.17 0 0.04 0.17 0 0.06 0.17 0 0.08 0.17 0 0.1 0.17 0 0 0.175 0 0.02 0.175 0 0.04 0.175 0 0.06 0.175 0 0.08 0.175 0 0.1 0.175 0 0 0.18 0 0.02 0.18 0 0.04 0.18 0 0.06 0.18 0 0.08 0.18 0 0.1 0.18 0 0 0.185 0 0.02 0.185 0 0.04 0.185 0 0.06 0.185 0 0.08 0.185 0 0.1 0.185 0 0 0.19 0 0.02 0.19 0 0.04 0.19 0 0.06 0.19 0 0.08 0.19 0 0.1 0.19 0 0 0.195 0 0.02 0.195 0 0.04 0.195 0 0.06 0.195 0 0.08 0.195 0 0.1 0.195 0 0 0.2 0 0.02 0.2 0 0.04 0.2 0 0.06 0.2 0 0.08 0.2 0 0.1 0.2 0 0 0.205 0 0.02 0.205 0 0.04 0.205 0 0.06 0.205 0 0.08 0.205 0 0.1 0.205 0 0 0.21 0 0.02 0.21 0 0.04 0.21 0 0.06 0.21 0 0.08 0.21 0 0.1 0.21 0 0 0.215 0 0.02 0.215 0 0.04 0.215 0 0.06 0.215 0 0.08 0.215 0 0.1 0.215 0 0 0.22 0 0.02 0.22 0 0.04 0.22 0 0.06 0.22 0 0.08 0.22 0 0.1 0.22 0 0 0.225 0 0.02 0.225 0 0.04 0.225 0 0.06 0.225 0 0.08 0.225 0 0.1 0.225 0 0 0.23 0 0.02 0.23 0 0.04 0.23 0 0.06 0.23 0 0.08 0.23 0 0.1 0.23 0 0 0.235 0 0.02 0.235 0 0.04 0.235 0 0.06 0.235 0 0.08 0.235 0 0.1 0.235 0 0 0.24 0 0.02 0.24 0 0.04 0.24 0 0.06 0.24 0 0.08 0.24 0 0.1 0.24 0 0 0.245 0 0.02 0.245 0 0.04 0.245 0 0.06 0.245 0 0.08 0.245 0 0.1 0.245 0 0 0.25 0 0.02 0.25 0 0.04 0.25 0 0.06 0.25 0 0.08 0.25 0 0.1 0.25 0 0 0.255 0 0.02 0.255 0 0.04 0.255 0 0.06 0.255 0 0.08 0.255 0 0.1 0.255 0 0 0.26 0 0.02 0.26 0 0.04 0.26 0 0.06 0.26 0 0.08 0.26 0 0.1 0.26 0 0 0.265 0 0.02 0.265 0 0.04 0.265 0 0.06 0.265 0 0.08 0.265 0 0.1 0.265 0 0 0.27 0 0.02 0.27 0 0.04 0.27 0 0.06 0.27 0 0.08 0.27 0 0.1 0.27 0 0 0.275 0 0.02 0.275 0 0.04 0.275 0 0.06 0.275 0 0.08 0.275 0 0.1 0.275 0 0 0.28 0 0.02 0.28 0 0.04 0.28 0 0.06 0.28 0 0.08 0.28 0 0.1 0.28 0 0 0.285 0 0.02 0.285 0 0.04 0.285 0 0.06 0.285 0 0.08 0.285 0 0.1 0.285 0 0 0.29 0 0.02 0.29 0 0.04 0.29 0 0.06 0.29 0 0.08 0.29 0 0.1 0.29 0 0 0.295 0 0.02 0.295 0 0.04 0.295 0 0.06 0.295 0 0.08 0.295 0 0.1 0.295 0 0 0.3 0 0.02 0.3 0 0.04 0.3 0 0.06 0.3 0 0.08 0.3 0 0.1 0.3 0 0 0.305 0 0.02 0.305 0 0.04 0.305 0 0.06 0.305 0 0.08 0.305 0 0.1 0.305 0 0 0.31 0 0.02 0.31 0 0.04 0.31 0 0.06 0.31 0 0.08 0.31 0 0.1 0.31 0 0 0.315 0 0.02 0.315 0 0.04 0.315 0 0.06 0.315 0 0.08 0.315 0 0.1 0.315 0 0 0.32 0 0.02 0.32 0 0.04 0.32 0 0.06 0.32 0 0.08 0.32 0 0.1 0.32 0 0 0.325 0 0.02 0.325 0 0.04 0.325 0 0.06 0.325 0 0.08 0.325 0 0.1 0.325 0 0 0.33 0 0.02 0.33 0 0.04 0.33 0 0.06 0.33 0 0.08 0.33 0 0.1 0.33 0 0 0.335 0 0.02 0.335 0 0.04 0.335 0 0.06 0.335 0 0.08 0.335 0 0.1 0.335 0 0 0.34 0 0.02 0.34 0 0.04 0.34 0 0.06 0.34 0 0.08 0.34 0 0.1 0.34 0 0 0.345 0 0.02 0.345 0 0.04 0.345 0 0.06 0.345 0 0.08 0.345 0 0.1 0.345 0 0 0.35 0 0.02 0.35 0 0.04 0.35 0 0.06 0.35 0 0.08 0.35 0 0.1 0.35 0 0 0.355 0 0.02 0.355 0 0.04 0.355 0 0.06 0.355 0 0.08 0.355 0 0.1 0.355 0 0 0.36 0 0.02 0.36 0 0.04 0.36 0 0.06 0.36 0 0.08 0.36 0 0.1 0.36 0 0 0.365 0 0.02 0.365 0 0.04 0.365 0 0.06 0.365 0 0.08 0.365 0 0.1 0.365 0 0 0.37 0 0.02 0.37 0 0.04 0.37 0 0.06 0.37 0 0.08 0.37 0 0.1 0.37 0 0 0.375 0 0.02 0.375 0 0.04 0.375 0 0.06 0.375 0 0.08 0.375 0 0.1 0.375 0 0 0.38 0 0.02 0.38 0 0.04 0.38 0 0.06 0.38 0 0.08 0.38 0 0.1 0.38 0 0 0.385 0 0.02 0.385 0 0.04 0.385 0 0.06 0.385 0 0.08 0.385 0 0.1 0.385 0 0 0.39 0 0.02 0.39 0 0.04 0.39 0 0.06 0.39 0 0.08 0.39 0 0.1 0.39 0 0 0.395 0 0.02 0.395 0 0.04 0.395 0 0.06 0.395 0 0.08 0.395 0 0.1 0.395 0 0 0.4 0 0.02 0.4 0 0.04 0.4 0 0.06 0.4 0 0.08 0.4 0 0.1 0.4 0 0 0.405 0 0.02 0.405 0 0.04 0.405 0 0.06 0.405 0 0.08 0.405 0 0.1 0.405 0 0 0.41 0 0.02 0.41 0 0.04 0.41 0 0.06 0.41 0 0.08 0.41 0 0.1 0.41 0 0 0.415 0 0.02 0.415 0 0.04 0.415 0 0.06 0.415 0 0.08 0.415 0 0.1 0.415 0 0 0.42 0 0.02 0.42 0 0.04 0.42 0 0.06 0.42 0 0.08 0.42 0 0.1 0.42 0 0 0.425 0 0.02 0.425 0 0.04 0.425 0 0.06 0.425 0 0.08 0.425 0 0.1 0.425 0 0 0.43 0 0.02 0.43 0 0.04 0.43 0 0.06 0.43 0 0.08 0.43 0 0.1 0.43 0 0 0.435 0 0.02 0.435 0 0.04 0.435 0 0.06 0.435 0 0.08 0.435 0 0.1 0.435 0 0 0.44 0 0.02 0.44 0 0.04 0.44 0 0.06 0.44 0 0.08 0.44 0 0.1 0.44 0 0 0.445 0 0.02 0.445 0 0.04 0.445 0 0.06 0.445 0 0.08 0.445 0 0.1 0.445 0 0 0.45 0 0.02 0.45 0 0.04 0.45 0 0.06 0.45 0 0.08 0.45 0 0.1 0.45 0 0 0.455 0 0.02 0.455 0 0.04 0.455 0 0.06 0.455 0 0.08 0.455 0 0.1 0.455 0 0 0.46 0 0.02 0.46 0 0.04 0.46 0 0.06 0.46 0 0.08 0.46 0 0.1 0.46 0 0 0.465 0 0.02 0.465 0 0.04 0.465 0 0.06 0.465 0 0.08 0.465 0 0.1 0.465 0 0 0.47 0 0.02 0.47 0 0.04 0.47 0 0.06 0.47 0 0.08 0.47 0 0.1 0.47 0 0 0.475 0 0.02 0.475 0 0.04 0.475 0 0.06 0.475 0 0.08 0.475 0 0.1 0.475 0 0 0.48 0 0.02 0.48 0 0.04 0.48 0 0.06 0.48 0 0.08 0.48 0 0.1 0.48 0 0 0.485 0 0.02 0.485 0 0.04 0.485 0 0.06 0.485 0 0.08 0.485 0 0.1 0.485 0 0 0.49 0 0.02 0.49 0 0.04 0.49 0 0.06 0.49 0 0.08 0.49 0 0.1 0.49 0 0 0.495 0 0.02 0.495 0 0.04 0.495 0 0.06 0.495 0 0.08 0.495 0 0.1 0.495 0 0 0.5 0 0.02 0.5 0 0.04 0.5 0 0.06 0.5 0 0.08 0.5 0 0.1 0.5 0 0 0.505 0 0.02 0.505 0 0.04 0.505 0 0.06 0.505 0 0.08 0.505 0 0.1 0.505 0 0 0.51 0 0.02 0.51 0 0.04 0.51 0 0.06 0.51 0 0.08 0.51 0 0.1 0.51 0 0 0.515 0 0.02 0.515 0 0.04 0.515 0 0.06 0.515 0 0.08 0.515 0 0.1 0.515 0 0 0.52 0 0.02 0.52 0 0.04 0.52 0 0.06 0.52 0 0.08 0.52 0 0.1 0.52 0 0 0.525 0 0.02 0.525 0 0.04 0.525 0 0.06 0.525 0 0.08 0.525 0 0.1 0.525 0 0 0.53 0 0.02 0.53 0 0.04 0.53 0 0.06 0.53 0 0.08 0.53 0 0.1 0.53 0 0 0.535 0 0.02 0.535 0 0.04 0.535 0 0.06 0.535 0 0.08 0.535 0 0.1 0.535 0 0 0.54 0 0.02 0.54 0 0.04 0.54 0 0.06 0.54 0 0.08 0.54 0 0.1 0.54 0 0 0.545 0 0.02 0.545 0 0.04 0.545 0 0.06 0.545 0 0.08 0.545 0 0.1 0.545 0 0 0.55 0 0.02 0.55 0 0.04 0.55 0 0.06 0.55 0 0.08 0.55 0 0.1 0.55 0 0 0.555 0 0.02 0.555 0 0.04 0.555 0 0.06 0.555 0 0.08 0.555 0 0.1 0.555 0 0 0.56 0 0.02 0.56 0 0.04 0.56 0 0.06 0.56 0 0.08 0.56 0 0.1 0.56 0 0 0.565 0 0.02 0.565 0 0.04 0.565 0 0.06 0.565 0 0.08 0.565 0 0.1 0.565 0 0 0.57 0 0.02 0.57 0 0.04 0.57 0 0.06 0.57 0 0.08 0.57 0 0.1 0.57 0 0 0.575 0 0.02 0.575 0 0.04 0.575 0 0.06 0.575 0 0.08 0.575 0 0.1 0.575 0 0 0.58 0 0.02 0.58 0 0.04 0.58 0 0.06 0.58 0 0.08 0.58 0 0.1 0.58 0 0 0.585 0 0.02 0.585 0 0.04 0.585 0 0.06 0.585 0 0.08 0.585 0 0.1 0.585 0 0 0.59 0 0.02 0.59 0 0.04 0.59 0 0.06 0.59 0 0.08 0.59 0 0.1 0.59 0 0 0.595 0 0.02 0.595 0 0.04 0.595 0 0.06 0.595 0 0.08 0.595 0 0.1 0.595 0 0 0.6 0 0.02 0.6 0 0.04 0.6 0 0.06 0.6 0 0.08 0.6 0 0.1 0.6 0 0 0.605 0 0.02 0.605 0 0.04 0.605 0 0.06 0.605 0 0.08 0.605 0 0.1 0.605 0 0 0.61 0 0.02 0.61 0 0.04 0.61 0 0.06 0.61 0 0.08 0.61 0 0.1 0.61 0 0 0.615 0 0.02 0.615 0 0.04 0.615 0 0.06 0.615 0 0.08 0.615 0 0.1 0.615 0 0 0.62 0 0.02 0.62 0 0.04 0.62 0 0.06 0.62 0 0.08 0.62 0 0.1 0.62 0 0 0.625 0 0.02 0.625 0 0.04 0.625 0 0.06 0.625 0 0.08 0.625 0 0.1 0.625 0 0 0.63 0 0.02 0.63 0 0.04 0.63 0 0.06 0.63 0 0.08 0.63 0 0.1 0.63 0 0 0.635 0 0.02 0.635 0 0.04 0.635 0 0.06 0.635 0 0.08 0.635 0 0.1 0.635 0 0 0.64 0 0.02 0.64 0 0.04 0.64 0 0.06 0.64 0 0.08 0.64 0 0.1 0.64 0 0 0.645 0 0.02 0.645 0 0.04 0.645 0 0.06 0.645 0 0.08 0.645 0 0.1 0.645 0 0 0.65 0 0.02 0.65 0 0.04 0.65 0 0.06 0.65 0 0.08 0.65 0 0.1 0.65 0 0 0.655 0 0.02 0.655 0 0.04 0.655 0 0.06 0.655 0 0.08 0.655 0 0.1 0.655 0 0 0.66 0 0.02 0.66 0 0.04 0.66 0 0.06 0.66 0 0.08 0.66 0 0.1 0.66 0 0 0.665 0 0.02 0.665 0 0.04 0.665 0 0.06 0.665 0 0.08 0.665 0 0.1 0.665 0 0 0.67 0 0.02 0.67 0 0.04 0.67 0 0.06 0.67 0 0.08 0.67 0 0.1 0.67 0 0 0.675 0 0.02 0.675 0 0.04 0.675 0 0.06 0.675 0 0.08 0.675 0 0.1 0.675 0 0 0.68 0 0.02 0.68 0 0.04 0.68 0 0.06 0.68 0 0.08 0.68 0 0.1 0.68 0 0 0.685 0 0.02 0.685 0 0.04 0.685 0 0.06 0.685 0 0.08 0.685 0 0.1 0.685 0 0 0.69 0 0.02 0.69 0 0.04 0.69 0 0.06 0.69 0 0.08 0.69 0 0.1 
[...]
			<PointData Scalars="VitesseX">
				<DataArray Name="VitesseX" type="Float32" format="ascii">
 0 1.72131e-15 -1.43547e-14 -2.08779e-14 -2.63465e-14 0 0 5.55614e-16 -1.48242e-14 -1.9424e-14 -2.72347e-14 0 0 -2.27488e-15 -1.54763e-14 -1.69526e-14 -2.67069e-14 0 0 -6.09794e-15 -1.59253e-14 -1.54444e-14 -2.50599e-14 0 0 -1.19347e-14 -1.51687e-14 -1.75954e-14 -1.98196e-14 0 0 -1.35833e-14 -2.20863e-14 -1.51796e-14 -1.76018e-14 0 0 -1.98086e-14 -1.9498e-14 -2.61457e-14 -9.61691e-15 0 0 -1.77623e-14 -3.36357e-14 -1.9185e-14 -1.25598e-14 0 0 -7.15339e-15 -5.474e-14 -9.71175e-15 -1.65859e-14 0 0 -1.33999e-14 -4.81049e-14 -2.38873e-14 -1.04024e-14 0 0 -2.54265e-14 -3.30947e-14 -3.22459e-14 -1.43314e-14 0 0 -2.84754e-14 -2.04386e-14 -4.02848e-14 -1.10541e-14 0 0 -1.12444e-14 -4.82998e-14 -3.5985e-15 -3.14238e-14 0 0 -4.61167e-15 -6.21301e-14 1.81377e-14 -3.90457e-14 0 0 -2.29737e-14 -2.98239e-14 -4.25711e-15 -2.03754e-14 0 0 -2.0322e-14 -1.35015e-14 -2.39e-14 -1.00355e-14 0 0 -1.54074e-14 -3.94641e-15 -3.50819e-14 -1.72904e-14 0 0 1.71225e-14 -5.28996e-14 8.73307e-15 -4.12527e-14 0 0 2.30414e-14 -3.92318e-14 -2.60279e-14 -5.47719e-16 0 0 1.39102e-14 -1.37953e-14 -3.17544e-14 -5.37871e-15 0 0 2.54416e-14 -4.38673e-14 2.05923e-14 -5.26905e-14 0 0 8.50665e-16 -1.06785e-14 -2.45515e-14 -2.4653e-14 0 0 -5.16774e-16 -3.61458e-14 -5.30035e-15 -2.99649e-14 0 0 -1.87579e-14 -4.10963e-14 1.16874e-14 -4.39933e-14 0 0 -4.30109e-14 2.09854e-15 -4.33653e-14 -1.80003e-14 0 0 -2.3738e-14 -1.13321e-14 -5.24886e-14 -2.40001e-14 0 0 2.6132e-14 -6.49689e-14 -2.37874e-14 -4.53591e-14 0 0 3.43445e-14 -6.22293e-14 -4.58546e-14 -3.1757e-14 0 0 -3.48812e-14 4.31849e-14 -1.08126e-13 -2.42448e-14 0 0 -4.15645e-14 6.87945e-14 -1.13295e-13 -5.63503e-14 0 0 -1.02469e-14 1.12467e-14 -6.60822e-14 -1.03874e-13 0 0 -1.59748e-14 2.7973e-15 -6.67931e-14 -9.85452e-14 0 0 -1.20552e-14 -2.92638e-14 -4.0679e-14 -9.42372e-14 0 0 -2.42824e-14 -5.52863e-14 -1.32706e-15 -9.89295e-14 0 0 -2.27958e-14 -5.17481e-14 -6.84246e-14 -1.86442e-15 0 0 -1.18762e-14 -7.65123e-14 -3.36995e-14 -1.79434e-15 0 0 2.03935e-15 -9.28715e-14 1.15068e-14 -2.73417e-14 0 0 -1.85725e-14 -3.47919e-14 -6.94129e-14 3.05638e-14 0 0 -5.69123e-14 2.53813e-15 -8.04411e-14 2.1567e-14 0 0 -1.06142e-13 5.3674e-14 -8.17461e-14 -2.51785e-14 0 0 -1.22123e-13 6.1442e-14 -4.53432e-14 -1.06593e-13 0 0 -3.13387e-14 -4.60838e-14 2.52177e-14 -1.38351e-13 0 0 4.11954e-14 -1.23541e-13 5.82516e-14 -1.12021e-13 0 0 1.12414e-14 -7.44623e-14 1.85548e-15 -5.65951e-14 0 0 -2.02836e-14 -1.68213e-14 -5.20927e-14 5.3894e-15 0 0 -6.72508e-14 -1.0285e-14 -3.10558e-14 4.60482e-14 0 0 -8.69985e-14 -5.73247e-14 1.99613e-14 4.48007e-14 0 0 -1.00434e-13 -3.20741e-14 -1.93992e-14 4.36092e-14 0 0 -1.01919e-16 -9.91796e-14 -1.47917e-14 1.03332e-14 0 0 1.14508e-13 -2.47377e-13 4.83614e-14 -2.21329e-14 0 0 1.28582e-14 -1.97628e-13 3.15658e-14 -3.4994e-14 0 0 2.37154e-14 -2.08212e-13 5.31144e-14 -9.42362e-14 0 0 -1.0139e-14 -1.59814e-13 1.40286e-14 -1.14042e-13 0 0 -1.4484e-16 -2.23771e-13 8.01467e-14 -1.40739e-13 0 0 4.16935e-14 -2.44964e-13 1.72636e-14 -5.03113e-14 0 0 -3.1986e-14 -1.33424e-13 -1.74656e-13 7.50136e-14 0 0 -2.28033e-14 -2.25579e-13 -1.01929e-13 -4.12964e-14 0 0 -9.47417e-14 -1.4197e-13 -1.45808e-13 -1.31781e-13 0 0 -1.46322e-13 -7.21521e-14 -1.91422e-13 -1.24326e-13 0 0 -9.07449e-14 -1.53995e-13 -1.63999e-13 -5.64905e-14 0 0 -2.06393e-14 -1.78761e-13 -2.33247e-13 8.10747e-14 0 0 -1.7805e-14 -2.26036e-13 -1.57043e-13 5.93242e-14 0 0 -1.47831e-13 -2.08837e-13 -8.11641e-14 3.28119e-14 0 0 -3.09512e-13 -1.51479e-13 -4.70879e-14 -1.67851e-14 0 0 -3.79898e-13 -1.83132e-13 5.09022e-14 -1.34479e-13 0 0 -3.61682e-13 -1.8624e-13 -3.03683e-15 -1.12903e-13 0 0 -2.71336e-13 -2.61402e-13 1.6602e-14 -1.63695e-13 0 0 -1.53777e-13 -3.46401e-13 1.66555e-14 -2.23701e-13 0 0 -1.72737e-13 -2.52353e-13 -1.52458e-13 -1.02062e-13 0 0 -1.9811e-13 -1.82267e-13 -2.94257e-13 2.25683e-14 0 0 -1.70963e-13 -2.74959e-13 -1.80595e-13 -2.12327e-14 0 0 -1.71273e-13 -4.37425e-13 -2.34174e-14 -9.67043e-14 0 0 -2.01196e-13 -4.91559e-13 -4.08053e-14 -6.29584e-14 0 0 -2.36579e-13 -4.7189e-13 -1.17362e-13 3.46237e-14 0 0 -2.50722e-13 -4.02046e-13 -2.74205e-13 1.65067e-13 0 0 -2.53253e-13 -2.96849e-13 -4.18727e-13 1.65633e-13 0 0 -2.62418e-13 -2.28725e-13 -4.05355e-13 8.25744e-14 0 0 -2.66361e-13 -2.08691e-13 -3.1474e-13 -5.73551e-14 0 0 -2.77419e-13 -2.36177e-13 -1.52197e-13 -1.31607e-13 0 0 -2.53289e-13 -3.01114e-13 -1.66066e-14 -1.06746e-13 0 0 -2.15666e-13 -3.50387e-13 7.11994e-14 -1.91174e-14 0 0 -1.81551e-13 -3.67877e-13 1.2159e-13 2.94247e-14 0 0 -1.31715e-13 -3.7541e-13 1.01228e-13 1.64827e-14 0 0 -6.28218e-14 -3.95904e-13 7.47888e-14 -1.30264e-14 0 0 1.03713e-14 -4.13545e-13 5.6928e-14 -4.23647e-14 0 0 8.6011e-14 -4.06018e-13 3.83651e-14 -8.12593e-14 0 0 9.16289e-14 -3.75532e-13 -1.6774e-14 -1.06559e-13 0 0 7.31845e-14 -2.94666e-13 -1.03992e-13 -8.70933e-14 0 0 7.84045e-15 -2.03706e-13 -2.05253e-13 -2.53086e-14 0 0 -6.43429e-14 -1.15887e-13 -3.12257e-13 -1.95887e-14 0 0 -9.80424e-14 -8.46715e-14 -3.30513e-13 -2.10093e-14 0 0 -9.96903e-14 -8.27973e-14 -3.25452e-13 -5.10429e-14 0 0 -9.21508e-14 -8.61914e-14 -3.07641e-13 -1.07766e-13 0 0 -7.04747e-14 -1.27696e-13 -2.44339e-13 -1.49602e-13 0 0 -5.50808e-14 -1.83046e-13 -1.74569e-13 -1.96618e-13 0 0 -4.19524e-14 -2.09613e-13 -1.69009e-13 -2.72457e-13 0 0 -2.48637e-14 -2.19008e-13 -1.78974e-13 -3.0107e-13 0 0 -1.00358e-14 -2.24212e-13 -2.2283e-13 -2.97019e-13 0 0 1.02778e-14 -2.23117e-13 -3.13772e-13 -2.86812e-13 0 0 4.38864e-14 -1.89868e-13 -3.99312e-13 -2.72025e-13 0 0 7.33349e-14 -1.84964e-13 -4.70799e-13 -2.67359e-13 0 0 1.09241e-13 -1.89596e-13 -5.37734e-13 -2.53824e-13 0 0 1.62458e-13 -2.02573e-13 -5.33012e-13 -2.42845e-13 0 0 2.15627e-13 -2.4158e-13 -5.12658e-13 -2.22877e-13 0 0 2.84321e-13 -2.94122e-13 -4.81172e-13 -1.89111e-13 0 0 2.84574e-13 -3.81674e-13 -4.08053e-13 -1.96958e-13 0 0 2.67449e-13 -3.74989e-13 -4.12789e-13 -1.91941e-13 0 0 2.08391e-13 -3.52887e-13 -4.12305e-13 -2.09496e-13 0 0 1.13718e-13 -3.03481e-13 -3.958e-13 -2.69407e-13 0 0 3.40029e-14 -2.6082e-13 -4.03613e-13 -2.50933e-13 0 0 -4.11251e-14 -2.58045e-13 -3.36484e-13 -2.94356e-13 0 0 -9.09628e-14 -2.38915e-13 -3.30936e-13 -3.82559e-13 0 0 -1.22048e-13 -2.10974e-13 -3.71067e-13 -3.78334e-13 0 0 -1.15728e-13 -1.96693e-13 -4.03703e-13 -3.73728e-13 0 0 -1.11187e-13 -1.78994e-13 -4.11216e-13 -3.58416e-13 0 0 -1.13728e-13 -1.89347e-13 -3.93548e-13 -3.25426e-13 0 0 -9.84359e-14 -2.30145e-13 -3.7885e-13 -2.53839e-13 0 0 -9.74963e-14 -2.22497e-13 -3.59852e-13 -2.18725e-13 0 0 -1.24066e-13 -2.15459e-13 -3.0225e-13 -2.25073e-13 0 0 -1.63844e-13 -2.21408e-13 -2.4858e-13 -2.28256e-13 0 0 -2.03496e-13 -2.52971e-13 -2.30888e-13 -2.05852e-13 0 0 -2.53659e-13 -2.83379e-13 -2.1948e-13 -2.22811e-13 0 0 -3.06369e-13 -2.79702e-13 -2.43946e-13 -2.58927e-13 0 0 -3.20542e-13 -2.55571e-13 -3.08659e-13 -2.2118e-13 0 0 -2.99285e-13 -2.57291e-13 -3.29185e-13 -1.95463e-13 0 0 -2.49752e-13 -3.11806e-13 -2.84992e-13 -1.78829e-13 0 0 -1.76056e-13 -3.57579e-13 -1.98108e-13 -1.81154e-13 0 0 -1.48129e-13 -3.74615e-13 -1.23835e-13 -1.89598e-13 0 0 -1.61089e-13 -3.27664e-13 -1.53868e-13 -1.38539e-13 0 0 -2.00203e-13 -1.89318e-13 -2.1688e-13 -8.26313e-14 0 0 -2.39441e-13 -7.9212e-14 -2.03106e-13 -7.30656e-14 0 0 -2.83776e-13 -5.32994e-15 -1.92607e-13 -5.79162e-14 0 0 -3.0808e-13 1.22973e-14 -1.89614e-13 -9.40418e-14 0 0 -2.76876e-13 -5.92161e-14 -1.41205e-13 -1.62026e-13 0 0 -2.27568e-13 -2.01437e-13 -6.38213e-14 -1.80943e-13 0 0 -2.26547e-13 -2.06879e-13 -1.1303e-13 -2.0104e-13 0 0 -1.86495e-13 -3.07879e-13 -6.59859e-14 -1.80438e-13 0 0 -1.45384e-13 -4.23976e-13 -1.1668e-13 7.4363e-14 0 0 -1.80964e-13 -3.70736e-13 -2.03353e-13 2.50773e-13 0 0 -2.22629e-13 -3.27896e-13 -1.21377e-13 9.82757e-14 0 0 -2.16832e-13 -2.66911e-13 -5.50537e-14 -1.44656e-13 0 0 -2.15827e-13 -2.03198e-13 -6.3435e-14 -1.83822e-13 0 0 -2.21049e-13 -1.47539e-13 -1.31909e-13 -1.61237e-13 0 0 -2.1412e-13 -1.38591e-13 -1.9331e-13 -1.30608e-13 0 0 -1.94994e-13 -1.46625e-13 -1.87447e-13 -1.58792e-13 0 0 -1.91456e-13 -1.71614e-13 -1.82269e-13 -1.79571e-13 0 0 -1.93704e-13 -1.93934e-13 -1.84551e-13 -1.72794e-13 0 0 -1.88508e-13 -2.16552e-13 -1.98484e-13 -1.53558e-13 0 0 -1.85688e-13 -2.36592e-13 -2.53138e-13 -1.14898e-13 0 0 -1.91095e-13 -2.74424e-13 -2.55568e-13 -8.67526e-14 0 0 -2.07043e-13 -3.10987e-13 -2.72904e-13 -1.39634e-13 0 0 -2.06502e-13 -3.57477e-13 -3.23855e-13 -1.62037e-13 0 0 -2.12721e-13 -3.8739e-13 -2.91362e-13 -2.5249e-13 0 0 -2.53992e-13 -3.37958e-13 -3.12454e-13 -4.96458e-13 0 0 -2.50543e-13 -2.77961e-13 -4.06411e-13 -5.66697e-13 0 0 -2.1988e-13 -2.39046e-13 -4.79133e-13 -5.27134e-13 0 0 -2.30436e-13 -2.49914e-13 -4.35401e-13 -4.35079e-13 0 0 -2.15564e-13 -3.16511e-13 -3.15545e-13 -1.50667e-13 0 0 -2.31746e-13 -3.29603e-13 -2.1524e-13 8.94483e-14 0 0 -2.55855e-13 -3.4676e-13 -1.11789e-13 8.56761e-14 0 0 -2.45821e-13 -3.44963e-13 -1.10423e-13 -2.07159e-14 0 0 -1.35098e-13 -3.8817e-13 -1.34005e-13 -5.35231e-14 0 0 -1.82336e-14 -4.02427e-13 -3.1599e-13 4.6177e-17 0 0 -8.4935e-14 -3.35512e-13 -2.87941e-13 -2.77502e-13 0 0 -1.86842e-13 -3.29131e-13 -1.25897e-13 -5.13809e-13 0 0 -2.31337e-13 -2.5917e-13 -2.54129e-13 -3.51113e-13 0 0 -2.59613e-13 -2.37087e-13 -3.88278e-13 -1.93785e-13 0 0 -2.50214e-13 -2.51858e-13 -4.90336e-13 -1.90545e-13 0 0 -2.3705e-13 -3.32428e-13 -5.16941e-13 -1.54806e-13 0 0 -2.52724e-13 -3.41231e-13 -5.60211e-13 -3.92027e-14 0 0 -2.92351e-13 -3.13952e-13 -5.1238e-13 -1.25457e-13 0 0 -2.6733e-13 -3.65403e-13 -4.41039e-13 -2.11457e-13 0 0 -2.19005e-13 -4.396e-13 -3.54139e-13 -2.31772e-13 0 0 -2.55163e-13 -3.63201e-13 -4.09214e-13 -2.02391e-13 0 0 -3.11082e-13 -2.88468e-13 -5.07031e-13 -7.09427e-14 0 0 -3.62454e-13 -2.2909e-13 -6.02462e-13 4.14985e-14 0 0 -3.29755e-13 -2.87221e-13 -5.62067e-13 4.13998e-16 0 0 -2.9722e-13 -3.50618e-13 -4.79547e-13 -1.2417e-13 0 0 -2.3657e-13 -3.78908e-13 -5.09405e-13 -1.15159e-13 0 0 -1.87575e-13 -4.26134e-13 -4.56401e-13 -1.50392e-13 0 0 -2.13042e-13 -3.85322e-13 -4.11063e-13 -2.27493e-13 0 0 -1.27728e-13 -4.4432e-13 -2.90267e-13 -4.09695e-13 0 0 -1.0583e-13 -3.81858e-13 -3.99176e-13 -3.94297e-13 0 0 -1.59592e-13 -2.97264e-13 -5.05396e-13 -2.5536e-13 0 0 -2.22529e-13 -2.3594e-13 -4.36285e-13 -3.28572e-13 0 0 -2.07292e-13 -2.08357e-13 -3.58707e-13 -4.44943e-13 0 0 -1.44232e-13 -2.32298e-13 -3.5602e-13 -2.82968e-13 0 0 -1.3316e-13 -2.70086e-13 -3.83067e-13 -8.54061e-14 0 0 -1.4713e-13 -2.52124e-13 -3.13211e-13 -2.0817e-13 0 0 -1.38424e-13 -3.07409e-13 -1.48654e-13 -3.48296e-13 0 0 -2.62261e-13 -2.25057e-13 -2.89752e-13 -1.45646e-13 0 0 -2.74453e-13 -2.40498e-13 -3.91222e-13 3.10406e-14 0 0 -8.96544e-14 -4.60053e-13 -1.62209e-13 -2.50647e-13 0 0 -1.7552e-13 -3.65828e-13 -1.06959e-13 -4.60174e-13 0 0 -1.90389e-13 -4.46879e-13 -1.07748e-13 -2.78162e-13 0 0 -2.05009e-13 -3.94348e-13 -4.23716e-13 1.85458e-13 0 0 -4.25682e-13 -1.73787e-13 -6.08201e-13 2.90203e-13 0 0 -3.90399e-13 -3.3475e-13 -2.81814e-13 -8.2113e-14 0 0 -2.9562e-13 -4.08563e-13 -2.36553e-13 -1.97485e-13 0 0 -4.60901e-13 -2.10147e-13 -3.33488e-13 -2.17579e-13 0 0 -5.38113e-13 -1.76232e-13 -2.17487e-13 -3.53425e-13 0
				</DataArray>
				<DataArray Name="VitesseY" type="Float32" format="ascii">