<?xml version="1.0"?>
<VTKFile type="PolyData">
	<PolyData>
		<Piece NumberOfPoints="1206" NumberOfPolys="1000">
			<Points>
				<DataArray type="Float32" NumberOfComponents="3" format="ascii">
 0 0 0 0.005 0 0 0.01 0 0 0.015 0 0 0.02 0 0 0.025 0 0 0.03 0 0 0.035 0 0 0.04 0 0 0.045 0 0 0.05 0 0 0.055 0 0 0.06 0 0 0.065 0 0 0.07 0 0 0.075 0 0 0.08 0 0 0.085 0 0 0.09 0 0 0.095 0 0 0.1 0 0 0.105 0 0 0.11 0 0 0.115 0 0 0.12 0 0 0.125 0 0 0.13 0 0 0.135 0 0 0.14 0 0 0.145 0 0 0.15 0 0 0.155 0 0 0.16 0 0 0.165 0 0 0.17 0 0 0.175 0 0 0.18 0 0 0.185 0 0 0.19 0 0 0.195 0 0 0.2 0 0 0.205 0 0 0.21 0 0 0.215 0 0 0.22 0 0 0.225 0 0 0.23 0 0 0.235 0 0 0.24 0 0 0.245 0 0 0.25 0 0 0.255 0 0 0.26 0 0 0.265 0 0 0.27 0 0 0.275 0 0 0.28 0 0 0.285 0 0 0.29 0 0 0.295 0 0 0.3 0 0 0.305 0 0 0.31 0 0 0.315 0 0 0.32 0 0 0.325 0 0 0.33 0 0 0.335 0 0 0.34 0 0 0.345 0 0 0.35 0 0 0.355 0 0 0.36 0 0 0.365 0 0 0.37 0 0 0.375 0 0 0.38 0 0 0.385 0 0 0.39 0 0 0.395 0 0 0.4 0 0 0.405 0 0 0.41 0 0 0.415 0 0 0.42 0 0 0.425 0 0 0.43 0 0 0.435 0 0 0.44 0 0 0.445 0 0 0.45 0 0 0.455 0 0 0.46 0 0 0.465 0 0 0.47 0 0 0.475 0 0 0.48 0 0 0.485 0 0 0.49 0 0 0.495 0 0 0.5 0 0 0.505 0 0 0.51 0 0 0.515 0 0 0.52 0 0 0.525 0 0 0.53 0 0 0.535 0 0 0.54 0 0 0.545 0 0 0.55 0 0 0.555 0 0 0.56 0 0 0.565 0 0 0.57 0 0 0.575 0 0 0.58 0 0 0.585 0 0 0.59 0 0 0.595 0 0 0.6 0 0 0.605 0 0 0.61 0 0 0.615 0 0 0.62 0 0 0.625 0 0 0.63 0 0 0.635 0 0 0.64 0 0 0.645 0 0 0.65 0 0 0.655 0 0 0.66 0 0 0.665 0 0 0.67 0 0 0.675 0 0 0.68 0 0 0.685 0 0 0.69 0 0 0.695 0 0 0.7 0 0 0.705 0 0 0.71 0 0 0.715 0 0 0.72 0 0 0.725 0 0 0.73 0 0 0.735 0 0 0.74 0 0 0.745 0 0 0.75 0 0 0.755 0 0 0.76 0 0 0.765 0 0 0.77 0 0 0.775 0 0 0.78 0 0 0.785 0 0 0.79 0 0 0.795 0 0 0.8 0 0 0.805 0 0 0.81 0 0 0.815 0 0 0.82 0 0 0.825 0 0 0.83 0 0 0.835 0 0 0.84 0 0 0.845 0 0 0.85 0 0 0.855 0 0 0.86 0 0 0.865 0 0 0.87 0 0 0.875 0 0 0.88 0 0 0.885 0 0 0.89 0 0 0.895 0 0 0.9 0 0 0.905 0 0 0.91 0 0 0.915 0 0 0.92 0 0 0.925 0 0 0.93 0 0 0.935 0 0 0.94 0 0 0.945 0 0 0.95 0 0 0.955 0 0 0.96 0 0 0.965 0 0 0.97 0 0 0.975 0 0 0.98 0 0 0.985 0 0 0.99 0 0 0.995 0 0 1 0 0 0 0.02 0 0.005 0.02 0 0.01 0.02 0 0.015 0.02 0 0.02 0.02 0 0.025 0.02 0 0.03 0.02 0 0.035 0.02 0 0.04 0.02 0 0.045 0.02 0 0.05 0.02 0 0.055 0.02 0 0.06 0.02 0 0.065 0.02 0 0.07 0.02 0 0.075 0.02 0 0.08 0.02 0 0.085 0.02 0 0.09 0.02 0 0.095 0.02 0 0.1 0.02 0 0.105 0.02 0 0.11 0.02 0 0.115 0.02 0 0.12 0.02 0 0.125 0.02 0 0.13 0.02 0 0.135 0.02 0 0.14 0.02 0 0.145 0.02 0 0.15 0.02 0 0.155 0.02 0 0.16 0.02 0 0.165 0.02 0 0.17 0.02 0 0.175 0.02 0 0.18 0.02 0 0.185 0.02 0 0.19 0.02 0 0.195 0.02 0 0.2 0.02 0 0.205 0.02 0 0.21 0.02 0 0.215 0.02 0 0.22 0.02 0 0.225 0.02 0 0.23 0.02 0 0.235 0.02 0 0.24 0.02 0 0.245 0.02 0 0.25 0.02 0 0.255 0.02 0 0.26 0.02 0 0.265 0.02 0 0.27 0.02 0 0.275 0.02 0 0.28 0.02 0 0.285 0.02 0 0.29 0.02 0 0.295 0.02 0 0.3 0.02 0 0.305 0.02 0 0.31 0.02 0 0.315 0.02 0 0.32 0.02 0 0.325 0.02 0 0.33 0.02 0 0.335 0.02 0 0.34 0.02 0 0.345 0.02 0 0.35 0.02 0 0.355 0.02 0 0.36 0.02 0 0.365 0.02 0 0.37 0.02 0 0.375 0.02 0 0.38 0.02 0 0.385 0.02 0 0.39 0.02 0 0.395 0.02 0 0.4 0.02 0 0.405 0.02 0 0.41 0.02 0 0.415 0.02 0 0.42 0.02 0 0.425 0.02 0 0.43 0.02 0 0.435 0.02 0 0.44 0.02 0 0.445 0.02 0 0.45 0.02 0 0.455 0.02 0 0.46 0.02 0 0.465 0.02 0 0.47 0.02 0 0.475 0.02 0 0.48 0.02 0 0.485 0.02 0 0.49 0.02 0 0.495 0.02 0 0.5 0.02 0 0.505 0.02 0 0.51 0.02 0 0.515 0.02 0 0.52 0.02 0 0.525 0.02 0 0.53 0.02 0 0.535 0.02 0 0.54 0.02 0 0.545 0.02 0 0.55 0.02 0 0.555 0.02 0 0.56 0.02 0 0.565 0.02 0 0.57 0.02 0 0.575 0.02 0 0.58 0.02 0 0.585 0.02 0 0.59 0.02 0 0.595 0.02 0 0.6 0.02 0 0.605 0.02 0 0.61 0.02 0 0.615 0.02 0 0.62 0.02 0 0.625 0.02 0 0.63 0.02 0 0.635 0.02 0 0.64 0.02 0 0.645 0.02 0 0.65 0.02 0 0.655 0.02 0 0.66 0.02 0 0.665 0.02 0 0.67 0.02 0 0.675 0.02 0 0.68 0.02 0 0.685 0.02 0 0.69 0.02 0 0.695 0.02 0 0.7 0.02 0 0.705 0.02 0 0.71 0.02 0 0.715 0.02 0 0.72 0.02 0 0.725 0.02 0 0.73 0.02 0 0.735 0.02 0 0.74 0.02 0 0.745 0.02 0 0.75 0.02 0 0.755 0.02 0 0.76 0.02 0 0.765 0.02 0 0.77 0.02 0 0.775 0.02 0 0.78 0.02 0 0.785 0.02 0 0.79 0.02 0 0.795 0.02 0 0.8 0.02 0 0.805 0.02 0 0.81 0.02 0 0.815 0.02 0 0.82 0.02 0 0.825 0.02 0 0.83 0.02 0 0.835 0.02 0 0.84 0.02 0 0.845 0.02 0 0.85 0.02 0 0.855 0.02 0 0.86 0.02 0 0.865 0.02 0 0.87 0.02 0 0.875 0.02 0 0.88 0.02 0 0.885 0.02 0 0.89 0.02 0 0.895 0.02 0 0.9 0.02 0 0.905 0.02 0 0.91 0.02 0 0.915 0.02 0 0.92 0.02 0 0.925 0.02 0 0.93 0.02 0 0.935 0.02 0 0.94 0.02 0 0.945 0.02 0 0.95 0.02 0 0.955 0.02 0 0.96 0.02 0 0.965 0.02 0 0.97 0.02 0 0.975 0.02 0 0.98 0.02 0 0.985 0.02 0 0.99 0.02 0 0.995 0.02 0 1 0.02 0 0 0.04 0 0.005 0.04 0 0.01 0.04 0 0.015 0.04 0 0.02 0.04 0 0.025 0.04 0 0.03 0.04 0 0.035 0.04 0 0.04 0.04 0 0.045 0.04 0 0.05 0.04 0 0.055 0.04 0 0.06 0.04 0 0.065 0.04 0 0.07 0.04 0 0.075 0.04 0 0.08 0.04 0 0.085 0.04 0 0.09 0.04 0 0.095 0.04 0 0.1 0.04 0 0.105 0.04 0 0.11 0.04 0 0.115 0.04 0 0.12 0.04 0 0.125 0.04 0 0.13 0.04 0 0.135 0.04 0 0.14 0.04 0 0.145 0.04 0 0.15 0.04 0 0.155 0.04 0 0.16 0.04 0 0.165 0.04 0 0.17 0.04 0 0.175 0.04 0 0.18 0.04 0 0.185 0.04 0 0.19 0.04 0 0.195 0.04 0 0.2 0.04 0 0.205 0.04 0 0.21 0.04 0 0.215 0.04 0 0.22 0.04 0 0.225 0.04 0 0.23 0.04 0 0.235 0.04 0 0.24 0.04 0 0.245 0.04 0 0.25 0.04 0 0.255 0.04 0 0.26 0.04 0 0.265 0.04 0 0.27 0.04 0 0.275 0.04 0 0.28 0.04 0 0.285 0.04 0 0.29 0.04 0 0.295 0.04 0 0.3 0.04 0 0.305 0.04 0 0.31 0.04 0 0.315 0.04 0 0.32 0.04 0 0.325 0.04 0 0.33 0.04 0 0.335 0.04 0 0.34 0.04 0 0.345 0.04 0 0.35 0.04 0 0.355 0.04 0 0.36 0.04 0 0.365 0.04 0 0.37 0.04 0 0.375 0.04 0 0.38 0.04 0 0.385 0.04 0 0.39 0.04 0 0.395 0.04 0 0.4 0.04 0 0.405 0.04 0 0.41 0.04 0 0.415 0.04 0 0.42 0.04 0 0.425 0.04 0 0.43 0.04 0 0.435 0.04 0 0.44 0.04 0 0.445 0.04 0 0.45 0.04 0 0.455 0.04 0 0.46 0.04 0 0.465 0.04 0 0.47 0.04 0 0.475 0.04 0 0.48 0.04 0 0.485 0.04 0 0.49 0.04 0 0.495 0.04 0 0.5 0.04 0 0.505 0.04 0 0.51 0.04 0 0.515 0.04 0 0.52 0.04 0 0.525 0.04 0 0.53 0.04 0 0.535 0.04 0 0.54 0.04 0 0.545 0.04 0 0.55 0.04 0 0.555 0.04 0 0.56 0.04 0 0.565 0.04 0 0.57 0.04 0 0.575 0.04 0 0.58 0.04 0 0.585 0.04 0 0.59 0.04 0 0.595 0.04 0 0.6 0.04 0 0.605 0.04 0 0.61 0.04 0 0.615 0.04 0 0.62 0.04 0 0.625 0.04 0 0.63 0.04 0 0.635 0.04 0 0.64 0.04 0 0.645 0.04 0 0.65 0.04 0 0.655 0.04 0 0.66 0.04 0 0.665 0.04 0 0.67 0.04 0 0.675 0.04 0 0.68 0.04 0 0.685 0.04 0 0.69 0.04 0 0.695 0.04 0 0.7 0.04 0 0.705 0.04 0 0.71 0.04 0 0.715 0.04 0 0.72 0.04 0 0.725 0.04 0 0.73 0.04 0 0.735 0.04 0 0.74 0.04 0 0.745 0.04 0 0.75 0.04 0 0.755 0.04 0 0.76 0.04 0 0.765 0.04 0 0.77 0.04 0 0.775 0.04 0 0.78 0.04 0 0.785 0.04 0 0.79 0.04 0 0.795 0.04 0 0.8 0.04 0 0.805 0.04 0 0.81 0.04 0 0.815 0.04 0 0.82 0.04 0 0.825 0.04 0 0.83 0.04 0 0.835 0.04 0 0.84 0.04 0 0.845 0.04 0 0.85 0.04 0 0.855 0.04 0 0.86 0.04 0 0.865 0.04 0 0.87 0.04 0 0.875 0.04 0 0.88 0.04 0 0.885 0.04 0 0.89 0.04 0 0.895 0.04 0 0.9 0.04 0 0.905 0.04 0 0.91 0.04 0 0.915 0.04 0 0.92 0.04 0 0.925 0.04 0 0.93 0.04 0 0.935 0.04 0 0.94 0.04 0 0.945 0.04 0 0.95 0.04 0 0.955 0.04 0 0.96 0.04 0 0.965 0.04 0 0.97 0.04 0 0.975 0.04 0 0.98 0.04 0 0.985 0.04 0 0.99 0.04 0 0.995 0.04 0 1 0.04 0 0 0.06 0 0.005 0.06 0 0.01 0.06 0 0.015 0.06 0 0.02 0.06 0 0.025 0.06 0 0.03 0.06 0 0.035 0.06 0 0.04 0.06 0 0.045 0.06 0 0.05 0.06 0 0.055 0.06 0 0.06 0.06 0 0.065 0.06 0 0.07 0.06 0 0.075 0.06 0 0.08 0.06 0 0.085 0.06 0 0.09 0.06 0 0.095 0.06 0 0.1 0.06 0 0.105 0.06 0 0.11 0.06 0 0.115 0.06 0 0.12 0.06 0 0.125 0.06 0 0.13 0.06 0 0.135 0.06 0 0.14 0.06 0 0.145 0.06 0 0.15 0.06 0 0.155 0.06 0 0.16 0.06 0 0.165 0.06 0 0.17 0.06 0 0.175 0.06 0 0.18 0.06 0 0.185 0.06 0 0.19 0.06 0 0.195 0.06 0 0.2 0.06 0 0.205 0.06 0 0.21 0.06 0 0.215 0.06 0 0.22 0.06 0 0.225 0.06 0 0.23 0.06 0 0.235 0.06 0 0.24 0.06 0 0.245 0.06 0 0.25 0.06 0 0.255 0.06 0 0.26 0.06 0 0.265 0.06 0 0.27 0.06 0 0.275 0.06 0 0.28 0.06 0 0.285 0.06 0 0.29 0.06 0 0.295 0.06 0 0.3 0.06 0 0.305 0.06 0 0.31 0.06 0 0.315 0.06 0 0.32 0.06 0 0.325 0.06 0 0.33 0.06 0 0.335 0.06 0 0.34 0.06 0 0.345 0.06 0 0.35 0.06 0 0.355 0.06 0 0.36 0.06 0 0.365 0.06 0 0.37 0.06 0 0.375 0.06 0 0.38 0.06 0 0.385 0.06 0 0.39 0.06 0 0.395 0.06 0 0.4 0.06 0 0.405 0.06 0 0.41 0.06 0 0.415 0.06 0 0.42 0.06 0 0.425 0.06 0 0.43 0.06 0 0.435 0.06 0 0.44 0.06 0 0.445 0.06 0 0.45 0.06 0 0.455 0.06 0 0.46 0.06 0 0.465 0.06 0 0.47 0.06 0 0.475 0.06 0 0.48 0.06 0 0.485 0.06 0 0.49 0.06 0 0.495 0.06 0 0.5 0.06 0 0.505 0.06 0 0.51 0.06 0 0.515 0.06 0 0.52 0.06 0 0.525 0.06 0 0.53 0.06 0 0.535 0.06 0 0.54 0.06 0 0.545 0.06 0 0.55 0.06 0 0.555 0.06 0 0.56 0.06 0 0.565 0.06 0 0.57 0.06 0 0.575 0.06 0 0.58 0.06 0 0.585 0.06 0 0.59 0.06 0 0.595 0.06 0 0.6 0.06 0 0.605 0.06 0 0.61 0.06 0 0.615 0.06 0 0.62 0.06 0 0.625 0.06 0 0.63 0.06 0 0.635 0.06 0 0.64 0.06 0 0.645 0.06 0 0.65 0.06 0 0.655 0.06 0 0.66 0.06 0 0.665 0.06 0 0.67 0.06 0 0.675 0.06 0 0.68 0.06 0 0.685 0.06 0 0.69 0.06 0 0.695 0.06 0 0.7 0.06 0 0.705 0.06 0 0.71 0.06 0 0.715 0.06 0 0.72 0.06 0 0.725 0.06 0 0.73 0.06 0 0.735 0.06 0 0.74 0.06 0 0.745 0.06 0 0.75 0.06 0 0.755 0.06 0 0.76 0.06 0 0.765 0.06 0 0.77 0.06 0 0.775 0.06 0 0.78 0.06 0 0.785 0.06 0 0.79 0.06 0 0.795 0.06 0 0.8 0.06 0 0.805 0.06 0 0.81 0.06 0 0.815 0.06 0 0.82 0.06 0 0.825 0.06 0 0.83 0.06 0 0.835 0.06 0 0.84 0.06 0 0.845 0.06 0 0.85 0.06 0 0.855 0.06 0 0.86 0.06 0 0.865 0.06 0 0.87 0.06 0 0.875 0.06 0 0.88 0.06 0 0.885 0.06 0 0.89 0.06 0 0.895 0.06 0 0.9 0.06 0 0.905 0.06 0 0.91 0.06 0 0.915 0.06 0 0.92 0.06 0 0.925 0.06 0 0.93 0.06 0 0.935 0.06 0 0.94 0.06 0 0.945 0.06 0 0.95 0.06 0 0.955 0.06 0 0.96 0.06 0 0.965 0.06 0 0.97 0.06 0 0.975 0.06 0 0.98 0.06 0 0.985 0.06 0 0.99 0.06 0 0.995 0.06 0 1 0.06 0 0 0.08 0 0.005 0.08 0 0.01 0.08 0 0.015 0.08 0 0.02 0.08 0 0.025 0.08 0 0.03 0.08 0 0.035 0.08 0 0.04 0.08 0 0.045 0.08 0 0.05 0.08 0 0.055 0.08 0 0.06 0.08 0 0.065 0.08 0 0.07 0.08 0 0.075 0.08 0 0.08 0.08 0 0.085 0.08 0 0.09 0.08 0 0.095 0.08 0 0.1 0.08 0 0.105 0.08 0 0.11 0.08 0 0.115 0.08 0 0.12 0.08 0 0.125 0.08 0 0.13 0.08 0 0.135 0.08 0 0.14 0.08 0 0.145 0.08 0 0.15 0.08 0 0.155 0.08 0 0.16 0.08 0 0.165 0.08 0
[...]
			<PointData Scalars="VitesseX">
				<DataArray Name="VitesseX" type="Float32" format="ascii">
 0 -1.04814e-14 -1.88964e-14 -1.38473e-14 -2.62936e-14 -1.62355e-14 -4.61993e-14 -2.85794e-14 -5.36375e-14 -6.94474e-14 -4.63067e-14 -3.24057e-14 -7.32966e-14 -4.08551e-14 -3.22674e-14 -4.09249e-15 3.24446e-14 -3.44697e-14 -1.46411e-14 6.50696e-14 -7.77116e-14 5.50149e-14 -1.27109e-13 5.82974e-14 -8.30453e-14 -3.58033e-14 -1.24148e-13 -3.6929e-14 -4.77988e-14 6.13786e-14 4.85811e-15 -4.14811e-14 4.29847e-14 -7.13187e-14 1.94216e-13 4.5007e-13 2.31432e-12 1.33716e-11 7.4563e-11 3.97969e-10 2.02603e-09 9.80226e-09 4.49945e-08 1.9549e-07 8.0185e-07 3.09596e-06 1.12144e-05 3.79624e-05 0.000119552 0.000348415 0.000934002 0.00228817 0.00509209 0.0102483 0.01862 0.03063 0.0460047 0.0639139 0.083397 0.103715 0.124436 0.145345 0.166338 0.187361 0.20838 0.229383 0.250361 0.271307 0.292214 0.313076 0.33389 0.354651 0.375357 0.396003 0.416587 0.437105 0.457554 0.477932 0.498234 0.518455 0.538593 0.558641 0.578593 0.598443 0.618181 0.637796 0.657277 0.676608 0.69577 0.714741 0.733491 0.751988 0.770189 0.788044 0.80549 0.822453 0.838839 0.854538 0.869416 0.883318 0.896063 0.907459 0.917309 0.925442 0.931742 0.936185 0.938914 0.938891 0.938626 0.938079 0.937381 0.936581 0.935728 0.934865 0.934019 0.933215 0.932474 0.931807 0.931221 0.930715 0.930285 0.929924 0.929623 0.929373 0.929165 0.928991 0.928844 0.928718 0.928609 0.928512 0.928426 0.92835 0.928264 0.928054 0.927827 0.9289 0.94592 0.944813 0.934352 0.929187 0.928052 0.927748 0.92766 0.927624 0.927602 0.927585 0.92757 0.927557 0.927546 0.927537 0.927529 0.927522 0.927513 0.927494 0.927456 0.927371 0.927191 0.926819 0.926067 0.924599 0.921803 0.916605 0.907201 0.890755 0.863231 0.819653 0.755078 0.666411 0.55479 0.42767 0.29903 0.184819 0.0992365 0.0464161 0.0195418 0.00775065 0.00298555 0.0011353 0.000429215 0.000161773 6.08447e-05 2.28419e-05 8.55898e-06 3.20058e-06 1.19417e-06 4.4446e-07 1.64979e-07 6.10568e-08 2.25238e-08 8.28029e-09 3.03242e-09 1.10584e-09 4.01726e-10 1.4492e-10 5.18888e-11 1.88716e-11 6.58514e-12 1.57865e-12 1.34142e-12 -1.92733e-14 0 0 -1.73026e-15 -1.32029e-14 -1.79006e-14 -2.20988e-14 -4.52481e-14 -3.97981e-14 -5.52098e-14 -4.62325e-14 -3.37035e-14 -6.44534e-14 -5.73923e-14 -1.86417e-14 -7.99682e-14 -2.21216e-14 1.40007e-14 -2.52068e-14 5.06103e-14 4.08294e-14 -3.43749e-14 2.39818e-14 -6.80332e-14 4.8141e-14 -1.35815e-13 9.43821e-15 -5.84073e-14 -6.8767e-14 -4.0658e-14 6.97592e-14 -5.64577e-14 -5.1219e-14 6.07819e-16 -1.39657e-14 6.23393e-14 4.44586e-14 4.44822e-13 2.465e-12 1.33545e-11 7.44782e-11 3.98134e-10 2.02582e-09 9.80215e-09 4.49948e-08 1.9549e-07 8.01849e-07 3.09596e-06 1.12144e-05 3.79624e-05 0.000119552 0.000348415 0.000934002 0.00228817 0.00509209 0.0102483 0.01862 0.03063 0.0460047 0.0639139 0.083397 0.103715 0.124436 0.145345 0.166338 0.187361 0.20838 0.229383 0.250361 0.271307 0.292214 0.313076 0.33389 0.354651 0.375357 0.396003 0.416587 0.437105 0.457554 0.477932 0.498234 0.518455 0.538593 0.558641 0.578593 0.598443 0.618181 0.637796 0.657277 0.676608 0.69577 0.714741 0.733491 0.751988 0.770189 0.788044 0.80549 0.822453 0.838839 0.854538 0.869416 0.883318 0.896063 0.907459 0.917309 0.925442 0.931742 0.936185 0.938914 0.938891 0.938626 0.938079 0.937381 0.936581 0.935728 0.934865 0.934019 0.933215 0.932474 0.931807 0.931221 0.930715 0.930285 0.929924 0.929623 0.929373 0.929165 0.928991 0.928844 0.928718 0.928609 0.928512 0.928426 0.92835 0.928264 0.928054 0.927827 0.9289 0.94592 0.944813 0.934352 0.929187 0.928052 0.927748 0.92766 0.927624 0.927602 0.927585 0.92757 0.927557 0.927546 0.927537 0.927529 0.927522 0.927513 0.927494 0.927456 0.927371 0.927191 0.926819 0.926067 0.924599 0.921803 0.916605 0.907201 0.890755 0.863231 0.819653 0.755078 0.666411 0.55479 0.42767 0.29903 0.184819 0.0992365 0.0464161 0.0195418 0.00775065 0.00298555 0.0011353 0.000429215 0.000161773 6.08447e-05 2.28419e-05 8.55898e-06 3.20058e-06 1.19417e-06 4.4446e-07 1.64979e-07 6.10572e-08 2.25241e-08 8.27988e-09 3.03202e-09 1.10584e-09 4.01443e-10 1.45194e-10 5.23004e-11 1.8319e-11 6.44877e-12 2.52911e-12 1.58885e-13 1.97524e-13 0 0 -6.8004e-15 -1.20444e-14 -3.21007e-14 -3.81682e-14 -2.74506e-14 -4.61492e-14 -3.11083e-14 -4.04994e-14 -6.50749e-14 -7.39344e-14 -3.7283e-14 -4.4971e-14 2.89934e-17 -4.73073e-14 -3.96847e-15 2.9299e-14 2.52671e-14 1.10911e-14 -3.2497e-14 -3.50854e-14 4.87499e-14 -9.76986e-14 1.1805e-14 -5.06958e-14 -3.09792e-14 -2.49554e-14 -8.32206e-14 -3.24367e-14 9.55853e-15 -1.2836e-13 1.76823e-14 2.48428e-14 6.44813e-14 2.12111e-13 4.62911e-13 2.32062e-12 1.33848e-11 7.45204e-11 3.98028e-10 2.02596e-09 9.80208e-09 4.49947e-08 1.9549e-07 8.01849e-07 3.09596e-06 1.12144e-05 3.79624e-05 0.000119552 0.000348415 0.000934002 0.00228817 0.00509209 0.0102483 0.01862 0.03063 0.0460047 0.0639139 0.083397 0.103715 0.124436 0.145345 0.166338 0.187361 0.20838 0.229383 0.250361 0.271307 0.292214 0.313076 0.33389 0.354651 0.375357 0.396003 0.416587 0.437105 0.457554 0.477932 0.498234 0.518455 0.538593 0.558641 0.578593 0.598443 0.618181 0.637796 0.657277 0.676608 0.69577 0.714741 0.733491 0.751988 0.770189 0.788044 0.80549 0.822453 0.838839 0.854538 0.869416 0.883318 0.896063 0.907459 0.917309 0.925442 0.931742 0.936185 0.938914 0.938891 0.938626 0.938079 0.937381 0.936581 0.935728 0.934865 0.934019 0.933215 0.932474 0.931807 0.931221 0.930715 0.930285 0.929924 0.929623 0.929373 0.929165 0.928991 0.928844 0.928718 0.928609 0.928512 0.928426 0.92835 0.928264 0.928054 0.927827 0.9289 0.94592 0.944813 0.934352 0.929187 0.928052 0.927748 0.92766 0.927624 0.927602 0.927585 0.92757 0.927557 0.927546 0.927537 0.927529 0.927522 0.927513 0.927494 0.927456 0.927371 0.927191 0.926819 0.926067 0.924599 0.921803 0.916605 0.907201 0.890755 0.863231 0.819653 0.755078 0.666411 0.55479 0.42767 0.29903 0.184819 0.0992365 0.0464161 0.0195418 0.00775065 0.00298555 0.0011353 0.000429215 0.000161773 6.08447e-05 2.28419e-05 8.55898e-06 3.20058e-06 1.19417e-06 4.4446e-07 1.64979e-07 6.10572e-08 2.25241e-08 8.27991e-09 3.03214e-09 1.10584e-09 4.01488e-10 1.44892e-10 5.22028e-11 1.86718e-11 6.60247e-12 1.79714e-12 4.80321e-13 7.70088e-13 0 0 -1.86852e-14 -2.56806e-14 -2.74189e-14 -4.7424e-14 -3.7215e-14 -3.78253e-14 -3.6281e-14 -2.96489e-14 -5.1428e-14 -4.54522e-14 -7.02932e-14 -3.99317e-15 5.01509e-15 -2.44688e-16 -2.06134e-14 -3.24509e-14 -3.86262e-14 -7.08526e-14 7.88021e-14 6.79187e-15 2.73949e-14 -8.3952e-14 -1.79579e-14 -7.09256e-14 -2.85479e-14 -1.01774e-13 -1.50442e-13 -2.22607e-13 4.50266e-14 4.56949e-14 3.74332e-14 1.38793e-13 8.65354e-15 2.78238e-13 4.8025e-13 2.42944e-12 1.3321e-11 7.43979e-11 3.98077e-10 2.02591e-09 9.80217e-09 4.49945e-08 1.9549e-07 8.01849e-07 3.09596e-06 1.12144e-05 3.79624e-05 0.000119552 0.000348415 0.000934002 0.00228817 0.00509209 0.0102483 0.01862 0.03063 0.0460047 0.0639139 0.083397 0.103715 0.124436 0.145345 0.166338 0.187361 0.20838 0.229383 0.250361 0.271307 0.292214 0.313076 0.33389 0.354651 0.375357 0.396003 0.416587 0.437105 0.457554 0.477932 0.498234 0.518455 0.538593 0.558641 0.578593 0.598443 0.618181 0.637796 0.657277 0.676608 0.69577 0.714741 0.733491 0.751988 0.770189 0.788044 0.80549 0.822453 0.838839 0.854538 0.869416 0.883318 0.896063 0.907459 0.917309 0.925442 0.931742 0.936185 0.938914 0.938891 0.938626 0.938079 0.937381 0.936581 0.935728 0.934865 0.934019 0.933215 0.932474 0.931807 0.931221 0.930715 0.930285 0.929924 0.929623 0.929373 0.929165 0.928991 0.928844 0.928718 0.928609 0.928512 0.928426 0.92835 0.928264 0.928054 0.927827 0.9289 0.94592 0.944813 0.934352 0.929187 0.928052 0.927748 0.92766 0.927624 0.927602 0.927585 0.92757 0.927557 0.927546 0.927537 0.927529 0.927522 0.927513 0.927494 0.927456 0.927371 0.927191 0.926819 0.926067 0.924599 0.921803 0.916605 0.907201 0.890755 0.863231 0.819653 0.755078 0.666411 0.55479 0.42767 0.29903 0.184819 0.0992365 0.0464161 0.0195418 0.00775065 0.00298555 0.0011353 0.000429215 0.000161773 6.08447e-05 2.28419e-05 8.55898e-06 3.20058e-06 1.19417e-06 4.4446e-07 1.64978e-07 6.10577e-08 2.2524e-08 8.28015e-09 3.03232e-09 1.10556e-09 4.0177e-10 1.44913e-10 5.18939e-11 1.88569e-11 6.78155e-12 2.04162e-12 6.21942e-13 -6.79204e-13 0 0 -5.76175e-15 -1.47201e-14 -1.90066e-14 -3.79447e-14 -6.48203e-14 -1.89234e-14 -5.28361e-14 -5.93088e-14 -2.26746e-14 -3.63997e-14 -8.14476e-14 2.58765e-14 -3.43505e-14 2.99125e-14 1.80065e-14 -8.86393e-14 -4.31877e-15 1.2424e-14 -2.55706e-14 2.88739e-14 -1.00437e-13 1.98868e-14 -2.14496e-13 -1.18397e-13 -8.76257e-14 -6.48996e-14 -5.98678e-14 -1.96029e-14 -2.32454e-14 1.34259e-13 7.73618e-14 6.03465e-14 1.2579e-13 1.86288e-13 5.00419e-13 2.41597e-12 1.33272e-11 7.43393e-11 3.98164e-10 2.02581e-09 9.80222e-09 4.49946e-08 1.9549e-07 8.01849e-07 3.09596e-06 1.12144e-05 3.79624e-05 0.000119552 0.000348415 0.000934002 0.00228817 0.00509209 0.0102483 0.01862 0.03063 0.0460047 0.0639139 0.083397 0.103715 0.124436 0.145345 0.166338 0.187361 0.20838 0.229383 0.250361 0.271307 0.292214 0.313076 0.33389 0.354651 0.375357 0.396003 0.416587 0.437105 0.457554 0.477932 0.498234 0.518455 0.538593 0.558641 0.578593 0.598443 0.618181 0.637796 0.657277 0.676608 0.69577 0.714741 0.733491 0.751988 0.770189 0.788044 0.80549 0.822453 0.838839 0.854538 0.869416 0.883318 0.896063 0.907459 0.917309 0.925442 0.931742 0.936185 0.938914 0.938891 0.938626 0.938079 0.937381 0.936581 0.935728 0.934865 0.934019 0.933215 0.932474 0.931807 0.931221 0.930715 0.930285 0.929924 0.929623 0.929373 0.929165 0.928991 0.928844 0.928718 0.928609 0.928512 0.928426 0.92835 0.928264 0.928054 0.927827 0.9289 0.94592 0.944813 0.934352 0.929187 0.928052 0.927748 0.92766 0.927624 0.927602 0.927585 0.92757 0.927557 0.927546 0.927537 0.927529 0.927522 0.927513 0.927494 0.927456 0.927371 0.927191 0.926819 0.926067 0.924599 0.921803 0.916605 0.907201 0.890755 0.863231 0.819653 0.755078 0.666411 0.55479 0.42767 0.29903 0.184819 0.0992365 0.0464161 0.0195418 0.00775065 0.00298555 0.0011353 0.000429215 0.000161773 6.08447e-05 2.28419e-05 8.55898e-06 3.20058e-06 1.19417e-06 4.4446e-07 1.64979e-07 6.10577e-08 2.25242e-08 8.28016e-09 3.03217e-09 1.10595e-09 4.01657e-10 1.45243e-10 5.22021e-11 1.84142e-11 6.40627e-12 2.82142e-12 -8.06669e-14 -9.34304e-13 0 0 5.22529e-15 5.34184e-15 -2.54231e-14 -3.9474e-14 -3.58509e-14 -2.10977e-14 -1.34866e-14 -1.01491e-13 -7.46835e-14 -4.71635e-14 -1.44959e-14 -6.62159e-14 4.04081e-14 -2.23243e-14 3.72089e-14 2.90795e-14 -1.65415e-14 9.24355e-14 -1.3992e-13 -1.51682e-13 3.29174e-14 -2.11111e-13 -3.954e-14 -2.98256e-13 -9.91028e-14 3.72235e-14 5.90937e-14 1.53817e-13 5.6867e-14 2.77051e-14 7.2525e-14 -3.62903e-14 1.67238e-13 3.45623e-13 5.26586e-13 1.9986e-12 1.34447e-11 7.45301e-11 3.9793e-10 2.02613e-09 9.80223e-09 4.49945e-08 1.9549e-07 8.01849e-07 3.09596e-06 1.12144e-05 3.79624e-05 0.000119552 0.000348415 0.000934002 0.00228817 0.00509209 0.0102483 0.01862 0.03063 0.0460047 0.0639139 0.083397 0.103715 0.124436 0.145345 0.166338 0.187361 0.20838 0.229383 0.250361 0.271307 0.292214 0.313076 0.33389 0.354651 0.375357 0.396003 0.416587 0.437105 0.457554 0.477932 0.498234 0.518455 0.538593 0.558641 0.578593 0.598443 0.618181 0.637796 0.657277 0.676608 0.69577 0.714741 0.733491 0.751988 0.770189 0.788044 0.80549 0.822453 0.838839 0.854538 0.869416 0.883318 0.896063 0.907459 0.917309 0.925442 0.931742 0.936185 0.938914 0.938891 0.938626 0.938079 0.937381 0.936581 0.935728 0.934865 0.934019 0.933215 0.932474 0.931807 0.931221 0.930715 0.930285 0.929924 0.929623 0.929373 0.929165 0.928991 0.928844 0.928718 0.928609 0.928512 0.928426 0.92835 0.928264 0.928054 0.927827 0.9289 0.94592 0.944813 0.934352 0.929187 0.928052 0.927748 0.92766 0.927624 0.927602 0.927585 0.92757 0.927557 0.927546 0.927537 0.927529 0.927522 0.927513 0.927494 0.927456 0.927371 0.927191 0.926819 0.926067 0.924599 0.921803 0.916605 0.907201 0.890755 0.863231 0.819653 0.755078 0.666411 0.55479 0.42767 0.29903 0.184819 0.0992365 0.0464161 0.0195418 0.00775065 0.00298555 0.0011353 0.000429215 0.000161773 6.08447e-05 2.28419e-05 8.55899e-06 3.20058e-06 1.19417e-06 4.4446e-07 1.6498e-07 6.10567e-08 2.25241e-08 8.28038e-09 3.03237e-09 1.10662e-09 4.01591e-10 1.44977e-10 5.23102e-11 1.86918e-11 6.14198e-12 1.67429e-12 5.79071e-13 6.15655e-13 0
				</DataArray>
				<DataArray Name="VitesseY" type="Float32" format="ascii">