<?xml version="1.0"?>
<VTKFile type="PolyData">
	<PolyData>
		<Piece NumberOfPoints="1206" NumberOfPolys="1000">
			<Points>
				<DataArray type="Float32" NumberOfComponents="3" format="ascii">
 0 0 0 0.005 0 0 0.01 0 0 0.015 0 0 0.02 0 0 0.025 0 0 0.03 0 0 0.035 0 0 0.04 0 0 0.045 0 0 0.05 0 0 0.055 0 0 0.06 0 0 0.065 0 0 0.07 0 0 0.075 0 0 0.08 0 0 0.085 0 0 0.09 0 0 0.095 0 0 0.1 0 0 0.105 0 0 0.11 0 0 0.115 0 0 0.12 0 0 0.125 0 0 0.13 0 0 0.135 0 0 0.14 0 0 0.145 0 0 0.15 0 0 0.155 0 0 0.16 0 0 0.165 0 0 0.17 0 0 0.175 0 0 0.18 0 0 0.185 0 0 0.19 0 0 0.195 0 0 0.2 0 0 0.205 0 0 0.21 0 0 0.215 0 0 0.22 0 0 0.225 0 0 0.23 0 0 0.235 0 0 0.24 0 0 0.245 0 0 0.25 0 0 0.255 0 0 0.26 0 0 0.265 0 0 0.27 0 0 0.275 0 0 0.28 0 0 0.285 0 0 0.29 0 0 0.295 0 0 0.3 0 0 0.305 0 0 0.31 0 0 0.315 0 0 0.32 0 0 0.325 0 0 0.33 0 0 0.335 0 0 0.34 0 0 0.345 0 0 0.35 0 0 0.355 0 0 0.36 0 0 0.365 0 0 0.37 0 0 0.375 0 0 0.38 0 0 0.385 0 0 0.39 0 0 0.395 0 0 0.4 0 0 0.405 0 0 0.41 0 0 0.415 0 0 0.42 0 0 0.425 0 0 0.43 0 0 0.435 0 0 0.44 0 0 0.445 0 0 0.45 0 0 0.455 0 0 0.46 0 0 0.465 0 0 0.47 0 0 0.475 0 0 0.48 0 0 0.485 0 0 0.49 0 0 0.495 0 0 0.5 0 0 0.505 0 0 0.51 0 0 0.515 0 0 0.52 0 0 0.525 0 0 0.53 0 0 0.535 0 0 0.54 0 0 0.545 0 0 0.55 0 0 0.555 0 0 0.56 0 0 0.565 0 0 0.57 0 0 0.575 0 0 0.58 0 0 0.585 0 0 0.59 0 0 0.595 0 0 0.6 0 0 0.605 0 0 0.61 0 0 0.615 0 0 0.62 0 0 0.625 0 0 0.63 0 0 0.635 0 0 0.64 0 0 0.645 0 0 0.65 0 0 0.655 0 0 0.66 0 0 0.665 0 0 0.67 0 0 0.675 0 0 0.68 0 0 0.685 0 0 0.69 0 0 0.695 0 0 0.7 0 0 0.705 0 0 0.71 0 0 0.715 0 0 0.72 0 0 0.725 0 0 0.73 0 0 0.735 0 0 0.74 0 0 0.745 0 0 0.75 0 0 0.755 0 0 0.76 0 0 0.765 0 0 0.77 0 0 0.775 0 0 0.78 0 0 0.785 0 0 0.79 0 0 0.795 0 0 0.8 0 0 0.805 0 0 0.81 0 0 0.815 0 0 0.82 0 0 0.825 0 0 0.83 0 0 0.835 0 0 0.84 0 0 0.845 0 0 0.85 0 0 0.855 0 0 0.86 0 0 0.865 0 0 0.87 0 0 0.875 0 0 0.88 0 0 0.885 0 0 0.89 0 0 0.895 0 0 0.9 0 0 0.905 0 0 0.91 0 0 0.915 0 0 0.92 0 0 0.925 0 0 0.93 0 0 0.935 0 0 0.94 0 0 0.945 0 0 0.95 0 0 0.955 0 0 0.96 0 0 0.965 0 0 0.97 0 0 0.975 0 0 0.98 0 0 0.985 0 0 0.99 0 0 0.995 0 0 1 0 0 0 0.02 0 0.005 0.02 0 0.01 0.02 0 0.015 0.02 0 0.02 0.02 0 0.025 0.02 0 0.03 0.02 0 0.035 0.02 0 0.04 0.02 0 0.045 0.02 0 0.05 0.02 0 0.055 0.02 0 0.06 0.02 0 0.065 0.02 0 0.07 0.02 0 0.075 0.02 0 0.08 0.02 0 0.085 0.02 0 0.09 0.02 0 0.095 0.02 0 0.1 0.02 0 0.105 0.02 0 0.11 0.02 0 0.115 0.02 0 0.12 0.02 0 0.125 0.02 0 0.13 0.02 0 0.135 0.02 0 0.14 0.02 0 0.145 0.02 0 0.15 0.02 0 0.155 0.02 0 0.16 0.02 0 0.165 0.02 0 0.17 0.02 0 0.175 0.02 0 0.18 0.02 0 0.185 0.02 0 0.19 0.02 0 0.195 0.02 0 0.2 0.02 0 0.205 0.02 0 0.21 0.02 0 0.215 0.02 0 0.22 0.02 0 0.225 0.02 0 0.23 0.02 0 0.235 0.02 0 0.24 0.02 0 0.245 0.02 0 0.25 0.02 0 0.255 0.02 0 0.26 0.02 0 0.265 0.02 0 0.27 0.02 0 0.275 0.02 0 0.28 0.02 0 0.285 0.02 0 0.29 0.02 0 0.295 0.02 0 0.3 0.02 0 0.305 0.02 0 0.31 0.02 0 0.315 0.02 0 0.32 0.02 0 0.325 0.02 0 0.33 0.02 0 0.335 0.02 0 0.34 0.02 0 0.345 0.02 0 0.35 0.02 0 0.355 0.02 0 0.36 0.02 0 0.365 0.02 0 0.37 0.02 0 0.375 0.02 0 0.38 0.02 0 0.385 0.02 0 0.39 0.02 0 0.395 0.02 0 0.4 0.02 0 0.405 0.02 0 0.41 0.02 0 0.415 0.02 0 0.42 0.02 0 0.425 0.02 0 0.43 0.02 0 0.435 0.02 0 0.44 0.02 0 0.445 0.02 0 0.45 0.02 0 0.455 0.02 0 0.46 0.02 0 0.465 0.02 0 0.47 0.02 0 0.475 0.02 0 0.48 0.02 0 0.485 0.02 0 0.49 0.02 0 0.495 0.02 0 0.5 0.02 0 0.505 0.02 0 0.51 0.02 0 0.515 0.02 0 0.52 0.02 0 0.525 0.02 0 0.53 0.02 0 0.535 0.02 0 0.54 0.02 0 0.545 0.02 0 0.55 0.02 0 0.555 0.02 0 0.56 0.02 0 0.565 0.02 0 0.57 0.02 0 0.575 0.02 0 0.58 0.02 0 0.585 0.02 0 0.59 0.02 0 0.595 0.02 0 0.6 0.02 0 0.605 0.02 0 0.61 0.02 0 0.615 0.02 0 0.62 0.02 0 0.625 0.02 0 0.63 0.02 0 0.635 0.02 0 0.64 0.02 0 0.645 0.02 0 0.65 0.02 0 0.655 0.02 0 0.66 0.02 0 0.665 0.02 0 0.67 0.02 0 0.675 0.02 0 0.68 0.02 0 0.685 0.02 0 0.69 0.02 0 0.695 0.02 0 0.7 0.02 0 0.705 0.02 0 0.71 0.02 0 0.715 0.02 0 0.72 0.02 0 0.725 0.02 0 0.73 0.02 0 0.735 0.02 0 0.74 0.02 0 0.745 0.02 0 0.75 0.02 0 0.755 0.02 0 0.76 0.02 0 0.765 0.02 0 0.77 0.02 0 0.775 0.02 0 0.78 0.02 0 0.785 0.02 0 0.79 0.02 0 0.795 0.02 0 0.8 0.02 0 0.805 0.02 0 0.81 0.02 0 0.815 0.02 0 0.82 0.02 0 0.825 0.02 0 0.83 0.02 0 0.835 0.02 0 0.84 0.02 0 0.845 0.02 0 0.85 0.02 0 0.855 0.02 0 0.86 0.02 0 0.865 0.02 0 0.87 0.02 0 0.875 0.02 0 0.88 0.02 0 0.885 0.02 0 0.89 0.02 0 0.895 0.02 0 0.9 0.02 0 0.905 0.02 0 0.91 0.02 0 0.915 0.02 0 0.92 0.02 0 0.925 0.02 0 0.93 0.02 0 0.935 0.02 0 0.94 0.02 0 0.945 0.02 0 0.95 0.02 0 0.955 0.02 0 0.96 0.02 0 0.965 0.02 0 0.97 0.02 0 0.975 0.02 0 0.98 0.02 0 0.985 0.02 0 0.99 0.02 0 0.995 0.02 0 1 0.02 0 0 0.04 0 0.005 0.04 0 0.01 0.04 0 0.015 0.04 0 0.02 0.04 0 0.025 0.04 0 0.03 0.04 0 0.035 0.04 0 0.04 0.04 0 0.045 0.04 0 0.05 0.04 0 0.055 0.04 0 0.06 0.04 0 0.065 0.04 0 0.07 0.04 0 0.075 0.04 0 0.08 0.04 0 0.085 0.04 0 0.09 0.04 0 0.095 0.04 0 0.1 0.04 0 0.105 0.04 0 0.11 0.04 0 0.115 0.04 0 0.12 0.04 0 0.125 0.04 0 0.13 0.04 0 0.135 0.04 0 0.14 0.04 0 0.145 0.04 0 0.15 0.04 0 0.155 0.04 0 0.16 0.04 0 0.165 0.04 0 0.17 0.04 0 0.175 0.04 0 0.18 0.04 0 0.185 0.04 0 0.19 0.04 0 0.195 0.04 0 0.2 0.04 0 0.205 0.04 0 0.21 0.04 0 0.215 0.04 0 0.22 0.04 0 0.225 0.04 0 0.23 0.04 0 0.235 0.04 0 0.24 0.04 0 0.245 0.04 0 0.25 0.04 0 0.255 0.04 0 0.26 0.04 0 0.265 0.04 0 0.27 0.04 0 0.275 0.04 0 0.28 0.04 0 0.285 0.04 0 0.29 0.04 0 0.295 0.04 0 0.3 0.04 0 0.305 0.04 0 0.31 0.04 0 0.315 0.04 0 0.32 0.04 0 0.325 0.04 0 0.33 0.04 0 0.335 0.04 0 0.34 0.04 0 0.345 0.04 0 0.35 0.04 0 0.355 0.04 0 0.36 0.04 0 0.365 0.04 0 0.37 0.04 0 0.375 0.04 0 0.38 0.04 0 0.385 0.04 0 0.39 0.04 0 0.395 0.04 0 0.4 0.04 0 0.405 0.04 0 0.41 0.04 0 0.415 0.04 0 0.42 0.04 0 0.425 0.04 0 0.43 0.04 0 0.435 0.04 0 0.44 0.04 0 0.445 0.04 0 0.45 0.04 0 0.455 0.04 0 0.46 0.04 0 0.465 0.04 0 0.47 0.04 0 0.475 0.04 0 0.48 0.04 0 0.485 0.04 0 0.49 0.04 0 0.495 0.04 0 0.5 0.04 0 0.505 0.04 0 0.51 0.04 0 0.515 0.04 0 0.52 0.04 0 0.525 0.04 0 0.53 0.04 0 0.535 0.04 0 0.54 0.04 0 0.545 0.04 0 0.55 0.04 0 0.555 0.04 0 0.56 0.04 0 0.565 0.04 0 0.57 0.04 0 0.575 0.04 0 0.58 0.04 0 0.585 0.04 0 0.59 0.04 0 0.595 0.04 0 0.6 0.04 0 0.605 0.04 0 0.61 0.04 0 0.615 0.04 0 0.62 0.04 0 0.625 0.04 0 0.63 0.04 0 0.635 0.04 0 0.64 0.04 0 0.645 0.04 0 0.65 0.04 0 0.655 0.04 0 0.66 0.04 0 0.665 0.04 0 0.67 0.04 0 0.675 0.04 0 0.68 0.04 0 0.685 0.04 0 0.69 0.04 0 0.695 0.04 0 0.7 0.04 0 0.705 0.04 0 0.71 0.04 0 0.715 0.04 0 0.72 0.04 0 0.725 0.04 0 0.73 0.04 0 0.735 0.04 0 0.74 0.04 0 0.745 0.04 0 0.75 0.04 0 0.755 0.04 0 0.76 0.04 0 0.765 0.04 0 0.77 0.04 0 0.775 0.04 0 0.78 0.04 0 0.785 0.04 0 0.79 0.04 0 0.795 0.04 0 0.8 0.04 0 0.805 0.04 0 0.81 0.04 0 0.815 0.04 0 0.82 0.04 0 0.825 0.04 0 0.83 0.04 0 0.835 0.04 0 0.84 0.04 0 0.845 0.04 0 0.85 0.04 0 0.855 0.04 0 0.86 0.04 0 0.865 0.04 0 0.87 0.04 0 0.875 0.04 0 0.88 0.04 0 0.885 0.04 0 0.89 0.04 0 0.895 0.04 0 0.9 0.04 0 0.905 0.04 0 0.91 0.04 0 0.915 0.04 0 0.92 0.04 0 0.925 0.04 0 0.93 0.04 0 0.935 0.04 0 0.94 0.04 0 0.945 0.04 0 0.95 0.04 0 0.955 0.04 0 0.96 0.04 0 0.965 0.04 0 0.97 0.04 0 0.975 0.04 0 0.98 0.04 0 0.985 0.04 0 0.99 0.04 0 0.995 0.04 0 1 0.04 0 0 0.06 0 0.005 0.06 0 0.01 0.06 0 0.015 0.06 0 0.02 0.06 0 0.025 0.06 0 0.03 0.06 0 0.035 0.06 0 0.04 0.06 0 0.045 0.06 0 0.05 0.06 0 0.055 0.06 0 0.06 0.06 0 0.065 0.06 0 0.07 0.06 0 0.075 0.06 0 0.08 0.06 0 0.085 0.06 0 0.09 0.06 0 0.095 0.06 0 0.1 0.06 0 0.105 0.06 0 0.11 0.06 0 0.115 0.06 0 0.12 0.06 0 0.125 0.06 0 0.13 0.06 0 0.135 0.06 0 0.14 0.06 0 0.145 0.06 0 0.15 0.06 0 0.155 0.06 0 0.16 0.06 0 0.165 0.06 0 0.17 0.06 0 0.175 0.06 0 0.18 0.06 0 0.185 0.06 0 0.19 0.06 0 0.195 0.06 0 0.2 0.06 0 0.205 0.06 0 0.21 0.06 0 0.215 0.06 0 0.22 0.06 0 0.225 0.06 0 0.23 0.06 0 0.235 0.06 0 0.24 0.06 0 0.245 0.06 0 0.25 0.06 0 0.255 0.06 0 0.26 0.06 0 0.265 0.06 0 0.27 0.06 0 0.275 0.06 0 0.28 0.06 0 0.285 0.06 0 0.29 0.06 0 0.295 0.06 0 0.3 0.06 0 0.305 0.06 0 0.31 0.06 0 0.315 0.06 0 0.32 0.06 0 0.325 0.06 0 0.33 0.06 0 0.335 0.06 0 0.34 0.06 0 0.345 0.06 0 0.35 0.06 0 0.355 0.06 0 0.36 0.06 0 0.365 0.06 0 0.37 0.06 0 0.375 0.06 0 0.38 0.06 0 0.385 0.06 0 0.39 0.06 0 0.395 0.06 0 0.4 0.06 0 0.405 0.06 0 0.41 0.06 0 0.415 0.06 0 0.42 0.06 0 0.425 0.06 0 0.43 0.06 0 0.435 0.06 0 0.44 0.06 0 0.445 0.06 0 0.45 0.06 0 0.455 0.06 0 0.46 0.06 0 0.465 0.06 0 0.47 0.06 0 0.475 0.06 0 0.48 0.06 0 0.485 0.06 0 0.49 0.06 0 0.495 0.06 0 0.5 0.06 0 0.505 0.06 0 0.51 0.06 0 0.515 0.06 0 0.52 0.06 0 0.525 0.06 0 0.53 0.06 0 0.535 0.06 0 0.54 0.06 0 0.545 0.06 0 0.55 0.06 0 0.555 0.06 0 0.56 0.06 0 0.565 0.06 0 0.57 0.06 0 0.575 0.06 0 0.58 0.06 0 0.585 0.06 0 0.59 0.06 0 0.595 0.06 0 0.6 0.06 0 0.605 0.06 0 0.61 0.06 0 0.615 0.06 0 0.62 0.06 0 0.625 0.06 0 0.63 0.06 0 0.635 0.06 0 0.64 0.06 0 0.645 0.06 0 0.65 0.06 0 0.655 0.06 0 0.66 0.06 0 0.665 0.06 0 0.67 0.06 0 0.675 0.06 0 0.68 0.06 0 0.685 0.06 0 0.69 0.06 0 0.695 0.06 0 0.7 0.06 0 0.705 0.06 0 0.71 0.06 0 0.715 0.06 0 0.72 0.06 0 0.725 0.06 0 0.73 0.06 0 0.735 0.06 0 0.74 0.06 0 0.745 0.06 0 0.75 0.06 0 0.755 0.06 0 0.76 0.06 0 0.765 0.06 0 0.77 0.06 0 0.775 0.06 0 0.78 0.06 0 0.785 0.06 0 0.79 0.06 0 0.795 0.06 0 0.8 0.06 0 0.805 0.06 0 0.81 0.06 0 0.815 0.06 0 0.82 0.06 0 0.825 0.06 0 0.83 0.06 0 0.835 0.06 0 0.84 0.06 0 0.845 0.06 0 0.85 0.06 0 0.855 0.06 0 0.86 0.06 0 0.865 0.06 0 0.87 0.06 0 0.875 0.06 0 0.88 0.06 0 0.885 0.06 0 0.89 0.06 0 0.895 0.06 0 0.9 0.06 0 0.905 0.06 0 0.91 0.06 0 0.915 0.06 0 0.92 0.06 0 0.925 0.06 0 0.93 0.06 0 0.935 0.06 0 0.94 0.06 0 0.945 0.06 0 0.95 0.06 0 0.955 0.06 0 0.96 0.06 0 0.965 0.06 0 0.97 0.06 0 0.975 0.06 0 0.98 0.06 0 0.985 0.06 0 0.99 0.06 0 0.995 0.06 0 1 0.06 0 0 0.08 0 0.005 0.08 0 0.01 0.08 0 0.015 0.08 0 0.02 0.08 0 0.025 0.08 0 0.03 0.08 0 0.035 0.08 0 0.04 0.08 0 0.045 0.08 0 0.05 0.08 0 0.055 0.08 0 0.06 0.08 0 0.065 0.08 0 0.07 0.08 0 0.075 0.08 0 0.08 0.08 0 0.085 0.08 0 0.09 0.08 0 0.095 0.08 0 0.1 0.08 0 0.105 0.08 0 0.11 0.08 0 0.115 0.08 0 0.12 0.08 0 0.125 0.08 0 0.13 0.08 0 0.135 0.08 0 0.14 0.08 0 0.145 0.08 0 0.15 0.08 0 0.155 0.08 0 0.16 0.08 0 0.165 0.08 0
[...]
			<PointData Scalars="VitesseX">
				<DataArray Name="VitesseX" type="Float32" format="ascii">
 0 2.22063e-15 -1.21352e-14 -5.00432e-15 -2.28418e-14 -2.42326e-14 -2.86918e-14 3.78469e-14 -2.00926e-14 2.25988e-14 -7.88643e-15 -3.1558e-14 -2.60438e-14 -5.38355e-14 3.53626e-14 3.01146e-14 -7.00509e-14 3.20447e-14 -4.16279e-14 2.60098e-14 -1.51864e-13 4.15186e-14 5.5346e-15 -1.71673e-14 -2.28007e-13 3.16214e-14 -2.61941e-14 -2.03698e-13 -1.67148e-13 -1.09258e-13 -7.15062e-14 -2.99995e-13 -5.94439e-14 -7.6892e-14 -1.24043e-13 4.60709e-15 -5.45584e-14 1.60634e-13 4.48141e-14 -1.32135e-13 6.12197e-15 -1.54522e-13 -9.6709e-14 -7.22631e-15 -2.56015e-13 1.09966e-13 -1.86511e-14 -1.53861e-13 -1.93313e-13 -1.82797e-13 -1.90595e-13 6.41003e-14 7.11992e-14 -1.85127e-13 -5.29302e-13 1.11967e-13 -4.58499e-14 1.89313e-13 2.60942e-12 1.94869e-11 1.51331e-10 1.09168e-09 7.34733e-09 4.60248e-08 2.67182e-07 1.43108e-06 7.03603e-06 3.15623e-05 0.000128244 0.000467879 0.00151688 0.00432029 0.0106994 0.0229343 0.0426195 0.0694336 0.101271 0.135692 0.171081 0.206676 0.242187 0.27756 0.312737 0.347686 0.382378 0.41679 0.450901 0.484692 0.51814 0.551224 0.583915 0.616177 0.647962 0.679208 0.709829 0.739713 0.768712 0.796633 0.823233 0.84821 0.871207 0.891815 0.909598 0.924117 0.934981 0.942001 0.943524 0.943149 0.942224 0.940947 0.939487 0.93796 0.936459 0.935051 0.933791 0.932709 0.931816 0.931092 0.930279 0.928598 0.935402 0.956404 0.950491 0.935754 0.930279 0.928998 0.92871 0.928674 0.928646 0.928521 0.928118 0.92709 0.924776 0.919935 0.910455 0.893134 0.863429 0.815947 0.745681 0.650097 0.531707 0.400014 0.270511 0.160125 0.0816925 0.0362661 0.0145943 0.00556246 0.00206226 0.000753374 0.00027254 9.77864e-05 3.48053e-05 1.2286e-05 4.29911e-06 1.49053e-06 5.11784e-07 1.73949e-07 5.85015e-08 1.94603e-08 6.40046e-09 2.08033e-09 6.68157e-10 2.11969e-10 6.5371e-11 2.07079e-11 5.45655e-12 1.74487e-12 5.71197e-13 -6.69138e-13 1.20969e-13 -9.83756e-14 -3.2971e-13 2.74329e-13 -1.33508e-13 4.38129e-13 -8.68625e-14 -3.99797e-13 2.92555e-13 -3.13534e-13 -3.10396e-13 -3.76465e-13 1.72877e-13 3.62678e-13 -9.21104e-13 -3.98006e-13 -2.29245e-13 4.93627e-13 3.70993e-13 -4.64878e-13 -6.76522e-14 5.32245e-13 -5.62617e-13 6.96968e-13 2.55369e-13 2.39361e-13 -4.76455e-13 4.19008e-13 2.56106e-13 1.08214e-13 0 0 -1.90326e-14 -1.13766e-14 -2.7209e-14 -1.72973e-14 -9.83557e-15 3.16258e-14 -4.23418e-14 1.50271e-14 -3.00703e-14 9.00837e-15 1.57679e-14 -2.53659e-14 -3.19556e-15 -3.06422e-14 -1.9054e-14 5.49122e-14 -6.64451e-14 1.4069e-15 -7.26243e-14 5.03145e-14 -9.72444e-14 -6.5153e-14 -8.74085e-14 9.88547e-14 -1.19244e-13 -1.30811e-13 -4.76639e-14 -1.22246e-13 -1.46869e-13 -2.3746e-13 -6.76466e-14 -1.02103e-13 -1.37522e-13 -2.01176e-14 -1.78294e-13 1.16757e-13 -6.01658e-14 -7.82107e-14 2.31107e-14 -1.07106e-13 -8.12285e-14 -5.57843e-14 -8.67431e-14 -2.41213e-14 -2.01545e-13 -6.52818e-14 -1.03341e-14 1.74461e-14 -4.4869e-14 5.58767e-14 -3.56143e-13 -2.30927e-13 -1.32596e-13 2.04547e-13 -3.13433e-13 -9.60734e-14 3.34963e-13 2.21292e-12 1.99033e-11 1.51413e-10 1.09119e-09 7.34757e-09 4.60244e-08 2.67183e-07 1.43108e-06 7.03603e-06 3.15623e-05 0.000128244 0.000467879 0.00151688 0.00432029 0.0106994 0.0229343 0.0426195 0.0694336 0.101271 0.135692 0.171081 0.206676 0.242187 0.27756 0.312737 0.347686 0.382378 0.41679 0.450901 0.484692 0.51814 0.551224 0.583915 0.616177 0.647962 0.679208 0.709829 0.739713 0.768712 0.796633 0.823233 0.84821 0.871207 0.891815 0.909598 0.924117 0.934981 0.942001 0.943524 0.943149 0.942224 0.940947 0.939487 0.93796 0.936459 0.935051 0.933791 0.932709 0.931816 0.931092 0.930279 0.928598 0.935402 0.956404 0.950491 0.935754 0.930279 0.928998 0.92871 0.928674 0.928646 0.928521 0.928118 0.92709 0.924776 0.919935 0.910455 0.893134 0.863429 0.815947 0.745681 0.650097 0.531707 0.400014 0.270511 0.160125 0.0816925 0.0362661 0.0145943 0.00556246 0.00206226 0.000753374 0.00027254 9.77864e-05 3.48053e-05 1.2286e-05 4.29911e-06 1.49053e-06 5.11784e-07 1.7395e-07 5.85013e-08 1.94604e-08 6.40032e-09 2.08075e-09 6.67871e-10 2.11756e-10 6.65304e-11 1.98732e-11 5.97875e-12 1.4246e-12 -7.27329e-15 2.59134e-13 -1.37921e-13 1.18576e-14 7.36883e-14 -4.55802e-13 2.6185e-13 -5.20096e-13 2.48548e-13 -7.05642e-15 -5.09769e-13 -1.98823e-14 -1.90504e-13 -4.35947e-14 -2.23584e-13 -3.53349e-13 -2.56263e-13 -1.75022e-13 -5.27956e-15 -3.19154e-13 -1.27875e-13 2.32668e-13 2.084e-13 -2.67832e-13 7.5511e-13 -5.53116e-13 3.0549e-13 -8.06797e-14 7.45843e-13 -9.04297e-14 2.12331e-13 1.37354e-13 0 0 -8.39442e-15 -2.15927e-14 -2.12916e-14 -7.99316e-15 -1.20389e-14 -1.23981e-14 -7.08885e-16 -1.51867e-14 1.26992e-14 -2.47438e-14 -1.82376e-14 -2.37542e-14 3.83076e-14 -3.03941e-15 6.69716e-14 -2.42308e-14 -1.48636e-14 1.52835e-14 -7.00142e-14 -7.37762e-14 1.69737e-14 -5.27428e-14 -5.24302e-14 -1.52374e-13 -2.68952e-14 -6.10581e-14 -1.76634e-13 -5.86418e-14 -1.06109e-13 -1.5153e-13 -5.33416e-14 -1.04294e-13 -5.16133e-14 -1.84529e-13 9.21339e-15 5.87715e-14 -1.4167e-13 -8.13675e-14 -1.69799e-13 -1.73672e-13 5.93516e-14 -1.0372e-13 -1.17268e-13 -7.76182e-14 -1.00195e-13 8.05334e-14 -2.79551e-14 -1.11208e-13 -1.44434e-13 -4.78482e-14 1.26726e-13 -5.06731e-15 -1.71088e-13 -1.9649e-13 -4.66606e-14 -6.0645e-14 2.2861e-13 2.34187e-12 1.96727e-11 1.51515e-10 1.09127e-09 7.34736e-09 4.60244e-08 2.67182e-07 1.43108e-06 7.03603e-06 3.15623e-05 0.000128244 0.000467879 0.00151688 0.00432029 0.0106994 0.0229343 0.0426195 0.0694336 0.101271 0.135692 0.171081 0.206676 0.242187 0.27756 0.312737 0.347686 0.382378 0.41679 0.450901 0.484692 0.51814 0.551224 0.583915 0.616177 0.647962 0.679208 0.709829 0.739713 0.768712 0.796633 0.823233 0.84821 0.871207 0.891815 0.909598 0.924117 0.934981 0.942001 0.943524 0.943149 0.942224 0.940947 0.939487 0.93796 0.936459 0.935051 0.933791 0.932709 0.931816 0.931092 0.930279 0.928598 0.935402 0.956404 0.950491 0.935754 0.930279 0.928998 0.92871 0.928674 0.928646 0.928521 0.928118 0.92709 0.924776 0.919935 0.910455 0.893134 0.863429 0.815947 0.745681 0.650097 0.531707 0.400014 0.270511 0.160125 0.0816925 0.0362661 0.0145943 0.00556246 0.00206226 0.000753374 0.00027254 9.77864e-05 3.48053e-05 1.2286e-05 4.29911e-06 1.49053e-06 5.11785e-07 1.73949e-07 5.85016e-08 1.94602e-08 6.40073e-09 2.08084e-09 6.68551e-10 2.11866e-10 6.60506e-11 1.99876e-11 6.03689e-12 1.82095e-12 1.08571e-13 -2.87884e-13 -9.0858e-14 -3.19917e-14 -2.48442e-13 6.36117e-15 -2.89165e-13 9.00282e-14 -6.13059e-13 9.678e-14 -2.41777e-13 -3.19284e-13 -3.69851e-13 -3.98035e-14 -2.88154e-13 -5.32063e-13 8.50184e-14 -3.79636e-14 -4.33149e-13 1.61973e-13 -1.21729e-13 -2.33154e-13 2.58908e-13 1.78073e-15 -2.42576e-13 5.75985e-13 -8.33673e-14 9.48217e-14 2.40192e-13 2.81358e-13 4.37881e-13 -2.19903e-13 0 0 8.33049e-15 -2.71807e-15 6.435e-15 -8.17885e-15 1.80258e-14 -7.67823e-15 -1.5919e-14 -7.19897e-15 -1.67617e-14 -1.82103e-14 -6.66557e-14 8.32823e-16 -2.36966e-14 1.26344e-13 6.8031e-14 3.79036e-15 -3.60829e-14 -4.09364e-14 -3.17452e-14 -1.11925e-13 -3.36985e-14 -4.61191e-14 -9.84622e-14 -9.93583e-14 -8.44808e-14 -6.37511e-14 -8.24123e-14 -1.72961e-13 -5.1441e-14 -4.47797e-14 -8.82637e-14 -5.71244e-14 -4.57646e-14 -5.91689e-14 3.13931e-14 -1.85143e-13 9.33811e-14 1.08586e-14 -2.57798e-13 -8.47426e-14 -1.81679e-13 -1.90399e-14 -2.99434e-14 -1.41017e-13 -3.43732e-14 -6.05128e-14 -3.03106e-13 -3.00921e-14 1.25346e-13 -8.86515e-14 1.76401e-13 8.63262e-14 -1.0161e-13 -3.04548e-13 -7.82335e-14 6.7131e-14 2.72293e-13 2.51318e-12 1.94274e-11 1.51398e-10 1.09146e-09 7.34743e-09 4.60247e-08 2.67182e-07 1.43108e-06 7.03603e-06 3.15623e-05 0.000128244 0.000467879 0.00151688 0.00432029 0.0106994 0.0229343 0.0426195 0.0694336 0.101271 0.135692 0.171081 0.206676 0.242187 0.27756 0.312737 0.347686 0.382378 0.41679 0.450901 0.484692 0.51814 0.551224 0.583915 0.616177 0.647962 0.679208 0.709829 0.739713 0.768712 0.796633 0.823233 0.84821 0.871207 0.891815 0.909598 0.924117 0.934981 0.942001 0.943524 0.943149 0.942224 0.940947 0.939487 0.93796 0.936459 0.935051 0.933791 0.932709 0.931816 0.931092 0.930279 0.928598 0.935402 0.956404 0.950491 0.935754 0.930279 0.928998 0.92871 0.928674 0.928646 0.928521 0.928118 0.92709 0.924776 0.919935 0.910455 0.893134 0.863429 0.815947 0.745681 0.650097 0.531707 0.400014 0.270511 0.160125 0.0816925 0.0362661 0.0145943 0.00556246 0.00206226 0.000753374 0.00027254 9.77864e-05 3.48053e-05 1.2286e-05 4.29911e-06 1.49053e-06 5.11785e-07 1.7395e-07 5.85015e-08 1.94605e-08 6.40094e-09 2.08068e-09 6.68434e-10 2.11897e-10 6.61657e-11 2.06456e-11 5.34364e-12 2.15831e-12 1.9337e-13 -4.714e-13 -2.40082e-13 -1.21239e-13 -1.58142e-13 2.6837e-13 -2.49581e-13 2.76838e-13 -4.11927e-13 -5.23245e-13 1.04621e-13 -2.78783e-13 -4.49538e-13 -6.03209e-13 -9.20895e-16 -2.8024e-13 -3.80889e-13 5.73653e-14 -1.80906e-15 -1.54234e-13 2.82522e-13 -9.28386e-14 9.07055e-14 1.44514e-13 -7.86609e-13 1.74771e-13 1.23073e-12 7.61363e-13 -2.27139e-13 -7.25719e-14 -2.59634e-13 4.28887e-13 0 0 -1.03602e-15 1.80934e-14 4.59821e-15 -2.68407e-15 1.60866e-14 3.21099e-14 -3.6819e-14 2.52862e-14 -4.15585e-14 -1.36401e-14 -7.88147e-15 -5.44006e-15 -2.51513e-14 3.62596e-14 -1.68211e-14 8.40172e-14 -8.69424e-14 -1.10433e-14 -8.6477e-14 2.12549e-14 -1.28449e-13 -7.78413e-14 -1.28932e-13 1.38406e-13 -1.61364e-13 -1.36264e-13 2.98079e-14 -1.77914e-13 -1.21626e-13 -7.15318e-14 -4.50848e-14 -4.19449e-14 -6.49037e-14 1.32704e-13 -1.29303e-13 6.14298e-14 4.96214e-14 -5.33008e-14 -7.44113e-14 -1.22767e-13 -2.37761e-13 -1.53084e-14 -1.42697e-13 -1.23306e-13 -2.22903e-13 -2.86183e-13 -7.44014e-14 1.73492e-13 2.6449e-13 6.28576e-14 -2.71364e-13 -1.17483e-13 -3.73168e-14 1.20676e-13 -3.55295e-13 3.17518e-14 3.60997e-13 2.43148e-12 1.99975e-11 1.51417e-10 1.09126e-09 7.34775e-09 4.60247e-08 2.67183e-07 1.43108e-06 7.03603e-06 3.15623e-05 0.000128244 0.000467879 0.00151688 0.00432029 0.0106994 0.0229343 0.0426195 0.0694336 0.101271 0.135692 0.171081 0.206676 0.242187 0.27756 0.312737 0.347686 0.382378 0.41679 0.450901 0.484692 0.51814 0.551224 0.583915 0.616177 0.647962 0.679208 0.709829 0.739713 0.768712 0.796633 0.823233 0.84821 0.871207 0.891815 0.909598 0.924117 0.934981 0.942001 0.943524 0.943149 0.942224 0.940947 0.939487 0.93796 0.936459 0.935051 0.933791 0.932709 0.931816 0.931092 0.930279 0.928598 0.935402 0.956404 0.950491 0.935754 0.930279 0.928998 0.92871 0.928674 0.928646 0.928521 0.928118 0.92709 0.924776 0.919935 0.910455 0.893134 0.863429 0.815947 0.745681 0.650097 0.531707 0.400014 0.270511 0.160125 0.0816925 0.0362661 0.0145943 0.00556246 0.00206226 0.000753374 0.00027254 9.77864e-05 3.48053e-05 1.2286e-05 4.29911e-06 1.49053e-06 5.11784e-07 1.7395e-07 5.85015e-08 1.94603e-08 6.40048e-09 2.08092e-09 6.67853e-10 2.11792e-10 6.68213e-11 2.01386e-11 5.92248e-12 1.22201e-12 -1.88075e-14 2.61554e-13 -2.57913e-13 -3.63146e-14 2.51545e-13 -2.93627e-13 2.67966e-13 -4.41093e-13 3.51617e-13 -1.7367e-13 -2.99311e-13 -3.51141e-14 -2.59501e-13 -5.34079e-13 -2.00227e-13 -2.9012e-13 -1.86045e-13 9.02365e-14 1.76895e-13 -7.48216e-13 -1.66149e-13 2.31969e-13 1.9034e-13 3.99835e-13 5.95055e-13 -8.10118e-13 6.29108e-13 1.87322e-13 6.46404e-13 -7.71953e-13 -3.41513e-13 4.98619e-13 0 0 4.76404e-15 9.05553e-15 3.15693e-15 6.75596e-15 -3.25177e-14 -3.71634e-14 7.93125e-14 -1.55498e-14 5.85442e-14 -6.62503e-14 1.79794e-14 -3.53662e-14 2.62615e-14 -8.96003e-14 3.24615e-14 -6.78832e-14 3.34887e-14 4.59115e-14 -7.82336e-14 -1.33685e-13 8.04529e-14 -3.30896e-14 -8.15092e-15 -2.54937e-13 6.2551e-14 -3.17138e-14 -2.37198e-13 -4.98463e-14 -1.68108e-13 4.68499e-14 -1.85027e-13 -3.3468e-14 5.66467e-14 -6.91198e-14 5.82299e-14 3.22616e-13 -8.98951e-14 -8.98183e-14 -1.51181e-13 -2.03057e-13 1.44737e-14 -1.85117e-13 -2.93782e-13 -3.27586e-13 -6.43957e-14 -1.78362e-13 2.68307e-13 -4.3453e-14 -1.0364e-13 -9.50268e-14 1.3431e-13 1.153e-13 -1.33526e-13 -4.80929e-13 9.13883e-14 -4.57516e-14 1.54016e-13 2.70393e-12 2.01658e-11 1.51574e-10 1.09146e-09 7.34755e-09 4.60247e-08 2.67182e-07 1.43108e-06 7.03603e-06 3.15623e-05 0.000128244 0.000467879 0.00151688 0.00432029 0.0106994 0.0229343 0.0426195 0.0694336 0.101271 0.135692 0.171081 0.206676 0.242187 0.27756 0.312737 0.347686 0.382378 0.41679 0.450901 0.484692 0.51814 0.551224 0.583915 0.616177 0.647962 0.679208 0.709829 0.739713 0.768712 0.796633 0.823233 0.84821 0.871207 0.891815 0.909598 0.924117 0.934981 0.942001 0.943524 0.943149 0.942224 0.940947 0.939487 0.93796 0.936459 0.935051 0.933791 0.932709 0.931816 0.931092 0.930279 0.928598 0.935402 0.956404 0.950491 0.935754 0.930279 0.928998 0.92871 0.928674 0.928646 0.928521 0.928118 0.92709 0.924776 0.919935 0.910455 0.893134 0.863429 0.815947 0.745681 0.650097 0.531707 0.400014 0.270511 0.160125 0.0816925 0.0362661 0.0145943 0.00556246 0.00206226 0.000753374 0.00027254 9.77864e-05 3.48053e-05 1.2286e-05 4.29911e-06 1.49053e-06 5.11784e-07 1.73949e-07 5.85021e-08 1.94595e-08 6.40036e-09 2.081e-09 6.68356e-10 2.1198e-10 6.57227e-11 1.99226e-11 6.73051e-12 6.64977e-13 3.7853e-13 -2.97267e-13 1.79434e-13 -1.62248e-14 -1.54596e-13 7.46618e-14 -2.00445e-13 2.22514e-13 -2.82988e-13 5.07026e-13 2.06763e-14 -4.24999e-13 -2.89016e-13 -2.30623e-13 -3.54876e-13 -1.45101e-14 1.51146e-13 -5.81465e-14 -7.27576e-13 2.67917e-13 -5.14058e-13 -7.46906e-13 2.32632e-13 1.58211e-12 2.0534e-13 9.85393e-13 -1.7256e-12 -5.57717e-13 2.59329e-13 -2.3618e-13 5.43448e-13 -4.66835e-13 0
				</DataArray>
				<DataArray Name="VitesseY" type="Float32" format="ascii">