<?xml version="1.0"?>
<VTKFile type="PolyData">
	<PolyData>
		<Piece NumberOfPoints="1206" NumberOfPolys="1000">
			<Points>
				<DataArray type="Float32" NumberOfComponents="3" format="ascii">
 0 0 0 0.005 0 0 0.01 0 0 0.015 0 0 0.02 0 0 0.025 0 0 0.03 0 0 0.035 0 0 0.04 0 0 0.045 0 0 0.05 0 0 0.055 0 0 0.06 0 0 0.065 0 0 0.07 0 0 0.075 0 0 0.08 0 0 0.085 0 0 0.09 0 0 0.095 0 0 0.1 0 0 0.105 0 0 0.11 0 0 0.115 0 0 0.12 0 0 0.125 0 0 0.13 0 0 0.135 0 0 0.14 0 0 0.145 0 0 0.15 0 0 0.155 0 0 0.16 0 0 0.165 0 0 0.17 0 0 0.175 0 0 0.18 0 0 0.185 0 0 0.19 0 0 0.195 0 0 0.2 0 0 0.205 0 0 0.21 0 0 0.215 0 0 0.22 0 0 0.225 0 0 0.23 0 0 0.235 0 0 0.24 0 0 0.245 0 0 0.25 0 0 0.255 0 0 0.26 0 0 0.265 0 0 0.27 0 0 0.275 0 0 0.28 0 0 0.285 0 0 0.29 0 0 0.295 0 0 0.3 0 0 0.305 0 0 0.31 0 0 0.315 0 0 0.32 0 0 0.325 0 0 0.33 0 0 0.335 0 0 0.34 0 0 0.345 0 0 0.35 0 0 0.355 0 0 0.36 0 0 0.365 0 0 0.37 0 0 0.375 0 0 0.38 0 0 0.385 0 0 0.39 0 0 0.395 0 0 0.4 0 0 0.405 0 0 0.41 0 0 0.415 0 0 0.42 0 0 0.425 0 0 0.43 0 0 0.435 0 0 0.44 0 0 0.445 0 0 0.45 0 0 0.455 0 0 0.46 0 0 0.465 0 0 0.47 0 0 0.475 0 0 0.48 0 0 0.485 0 0 0.49 0 0 0.495 0 0 0.5 0 0 0.505 0 0 0.51 0 0 0.515 0 0 0.52 0 0 0.525 0 0 0.53 0 0 0.535 0 0 0.54 0 0 0.545 0 0 0.55 0 0 0.555 0 0 0.56 0 0 0.565 0 0 0.57 0 0 0.575 0 0 0.58 0 0 0.585 0 0 0.59 0 0 0.595 0 0 0.6 0 0 0.605 0 0 0.61 0 0 0.615 0 0 0.62 0 0 0.625 0 0 0.63 0 0 0.635 0 0 0.64 0 0 0.645 0 0 0.65 0 0 0.655 0 0 0.66 0 0 0.665 0 0 0.67 0 0 0.675 0 0 0.68 0 0 0.685 0 0 0.69 0 0 0.695 0 0 0.7 0 0 0.705 0 0 0.71 0 0 0.715 0 0 0.72 0 0 0.725 0 0 0.73 0 0 0.735 0 0 0.74 0 0 0.745 0 0 0.75 0 0 0.755 0 0 0.76 0 0 0.765 0 0 0.77 0 0 0.775 0 0 0.78 0 0 0.785 0 0 0.79 0 0 0.795 0 0 0.8 0 0 0.805 0 0 0.81 0 0 0.815 0 0 0.82 0 0 0.825 0 0 0.83 0 0 0.835 0 0 0.84 0 0 0.845 0 0 0.85 0 0 0.855 0 0 0.86 0 0 0.865 0 0 0.87 0 0 0.875 0 0 0.88 0 0 0.885 0 0 0.89 0 0 0.895 0 0 0.9 0 0 0.905 0 0 0.91 0 0 0.915 0 0 0.92 0 0 0.925 0 0 0.93 0 0 0.935 0 0 0.94 0 0 0.945 0 0 0.95 0 0 0.955 0 0 0.96 0 0 0.965 0 0 0.97 0 0 0.975 0 0 0.98 0 0 0.985 0 0 0.99 0 0 0.995 0 0 1 0 0 0 0.02 0 0.005 0.02 0 0.01 0.02 0 0.015 0.02 0 0.02 0.02 0 0.025 0.02 0 0.03 0.02 0 0.035 0.02 0 0.04 0.02 0 0.045 0.02 0 0.05 0.02 0 0.055 0.02 0 0.06 0.02 0 0.065 0.02 0 0.07 0.02 0 0.075 0.02 0 0.08 0.02 0 0.085 0.02 0 0.09 0.02 0 0.095 0.02 0 0.1 0.02 0 0.105 0.02 0 0.11 0.02 0 0.115 0.02 0 0.12 0.02 0 0.125 0.02 0 0.13 0.02 0 0.135 0.02 0 0.14 0.02 0 0.145 0.02 0 0.15 0.02 0 0.155 0.02 0 0.16 0.02 0 0.165 0.02 0 0.17 0.02 0 0.175 0.02 0 0.18 0.02 0 0.185 0.02 0 0.19 0.02 0 0.195 0.02 0 0.2 0.02 0 0.205 0.02 0 0.21 0.02 0 0.215 0.02 0 0.22 0.02 0 0.225 0.02 0 0.23 0.02 0 0.235 0.02 0 0.24 0.02 0 0.245 0.02 0 0.25 0.02 0 0.255 0.02 0 0.26 0.02 0 0.265 0.02 0 0.27 0.02 0 0.275 0.02 0 0.28 0.02 0 0.285 0.02 0 0.29 0.02 0 0.295 0.02 0 0.3 0.02 0 0.305 0.02 0 0.31 0.02 0 0.315 0.02 0 0.32 0.02 0 0.325 0.02 0 0.33 0.02 0 0.335 0.02 0 0.34 0.02 0 0.345 0.02 0 0.35 0.02 0 0.355 0.02 0 0.36 0.02 0 0.365 0.02 0 0.37 0.02 0 0.375 0.02 0 0.38 0.02 0 0.385 0.02 0 0.39 0.02 0 0.395 0.02 0 0.4 0.02 0 0.405 0.02 0 0.41 0.02 0 0.415 0.02 0 0.42 0.02 0 0.425 0.02 0 0.43 0.02 0 0.435 0.02 0 0.44 0.02 0 0.445 0.02 0 0.45 0.02 0 0.455 0.02 0 0.46 0.02 0 0.465 0.02 0 0.47 0.02 0 0.475 0.02 0 0.48 0.02 0 0.485 0.02 0 0.49 0.02 0 0.495 0.02 0 0.5 0.02 0 0.505 0.02 0 0.51 0.02 0 0.515 0.02 0 0.52 0.02 0 0.525 0.02 0 0.53 0.02 0 0.535 0.02 0 0.54 0.02 0 0.545 0.02 0 0.55 0.02 0 0.555 0.02 0 0.56 0.02 0 0.565 0.02 0 0.57 0.02 0 0.575 0.02 0 0.58 0.02 0 0.585 0.02 0 0.59 0.02 0 0.595 0.02 0 0.6 0.02 0 0.605 0.02 0 0.61 0.02 0 0.615 0.02 0 0.62 0.02 0 0.625 0.02 0 0.63 0.02 0 0.635 0.02 0 0.64 0.02 0 0.645 0.02 0 0.65 0.02 0 0.655 0.02 0 0.66 0.02 0 0.665 0.02 0 0.67 0.02 0 0.675 0.02 0 0.68 0.02 0 0.685 0.02 0 0.69 0.02 0 0.695 0.02 0 0.7 0.02 0 0.705 0.02 0 0.71 0.02 0 0.715 0.02 0 0.72 0.02 0 0.725 0.02 0 0.73 0.02 0 0.735 0.02 0 0.74 0.02 0 0.745 0.02 0 0.75 0.02 0 0.755 0.02 0 0.76 0.02 0 0.765 0.02 0 0.77 0.02 0 0.775 0.02 0 0.78 0.02 0 0.785 0.02 0 0.79 0.02 0 0.795 0.02 0 0.8 0.02 0 0.805 0.02 0 0.81 0.02 0 0.815 0.02 0 0.82 0.02 0 0.825 0.02 0 0.83 0.02 0 0.835 0.02 0 0.84 0.02 0 0.845 0.02 0 0.85 0.02 0 0.855 0.02 0 0.86 0.02 0 0.865 0.02 0 0.87 0.02 0 0.875 0.02 0 0.88 0.02 0 0.885 0.02 0 0.89 0.02 0 0.895 0.02 0 0.9 0.02 0 0.905 0.02 0 0.91 0.02 0 0.915 0.02 0 0.92 0.02 0 0.925 0.02 0 0.93 0.02 0 0.935 0.02 0 0.94 0.02 0 0.945 0.02 0 0.95 0.02 0 0.955 0.02 0 0.96 0.02 0 0.965 0.02 0 0.97 0.02 0 0.975 0.02 0 0.98 0.02 0 0.985 0.02 0 0.99 0.02 0 0.995 0.02 0 1 0.02 0 0 0.04 0 0.005 0.04 0 0.01 0.04 0 0.015 0.04 0 0.02 0.04 0 0.025 0.04 0 0.03 0.04 0 0.035 0.04 0 0.04 0.04 0 0.045 0.04 0 0.05 0.04 0 0.055 0.04 0 0.06 0.04 0 0.065 0.04 0 0.07 0.04 0 0.075 0.04 0 0.08 0.04 0 0.085 0.04 0 0.09 0.04 0 0.095 0.04 0 0.1 0.04 0 0.105 0.04 0 0.11 0.04 0 0.115 0.04 0 0.12 0.04 0 0.125 0.04 0 0.13 0.04 0 0.135 0.04 0 0.14 0.04 0 0.145 0.04 0 0.15 0.04 0 0.155 0.04 0 0.16 0.04 0 0.165 0.04 0 0.17 0.04 0 0.175 0.04 0 0.18 0.04 0 0.185 0.04 0 0.19 0.04 0 0.195 0.04 0 0.2 0.04 0 0.205 0.04 0 0.21 0.04 0 0.215 0.04 0 0.22 0.04 0 0.225 0.04 0 0.23 0.04 0 0.235 0.04 0 0.24 0.04 0 0.245 0.04 0 0.25 0.04 0 0.255 0.04 0 0.26 0.04 0 0.265 0.04 0 0.27 0.04 0 0.275 0.04 0 0.28 0.04 0 0.285 0.04 0 0.29 0.04 0 0.295 0.04 0 0.3 0.04 0 0.305 0.04 0 0.31 0.04 0 0.315 0.04 0 0.32 0.04 0 0.325 0.04 0 0.33 0.04 0 0.335 0.04 0 0.34 0.04 0 0.345 0.04 0 0.35 0.04 0 0.355 0.04 0 0.36 0.04 0 0.365 0.04 0 0.37 0.04 0 0.375 0.04 0 0.38 0.04 0 0.385 0.04 0 0.39 0.04 0 0.395 0.04 0 0.4 0.04 0 0.405 0.04 0 0.41 0.04 0 0.415 0.04 0 0.42 0.04 0 0.425 0.04 0 0.43 0.04 0 0.435 0.04 0 0.44 0.04 0 0.445 0.04 0 0.45 0.04 0 0.455 0.04 0 0.46 0.04 0 0.465 0.04 0 0.47 0.04 0 0.475 0.04 0 0.48 0.04 0 0.485 0.04 0 0.49 0.04 0 0.495 0.04 0 0.5 0.04 0 0.505 0.04 0 0.51 0.04 0 0.515 0.04 0 0.52 0.04 0 0.525 0.04 0 0.53 0.04 0 0.535 0.04 0 0.54 0.04 0 0.545 0.04 0 0.55 0.04 0 0.555 0.04 0 0.56 0.04 0 0.565 0.04 0 0.57 0.04 0 0.575 0.04 0 0.58 0.04 0 0.585 0.04 0 0.59 0.04 0 0.595 0.04 0 0.6 0.04 0 0.605 0.04 0 0.61 0.04 0 0.615 0.04 0 0.62 0.04 0 0.625 0.04 0 0.63 0.04 0 0.635 0.04 0 0.64 0.04 0 0.645 0.04 0 0.65 0.04 0 0.655 0.04 0 0.66 0.04 0 0.665 0.04 0 0.67 0.04 0 0.675 0.04 0 0.68 0.04 0 0.685 0.04 0 0.69 0.04 0 0.695 0.04 0 0.7 0.04 0 0.705 0.04 0 0.71 0.04 0 0.715 0.04 0 0.72 0.04 0 0.725 0.04 0 0.73 0.04 0 0.735 0.04 0 0.74 0.04 0 0.745 0.04 0 0.75 0.04 0 0.755 0.04 0 0.76 0.04 0 0.765 0.04 0 0.77 0.04 0 0.775 0.04 0 0.78 0.04 0 0.785 0.04 0 0.79 0.04 0 0.795 0.04 0 0.8 0.04 0 0.805 0.04 0 0.81 0.04 0 0.815 0.04 0 0.82 0.04 0 0.825 0.04 0 0.83 0.04 0 0.835 0.04 0 0.84 0.04 0 0.845 0.04 0 0.85 0.04 0 0.855 0.04 0 0.86 0.04 0 0.865 0.04 0 0.87 0.04 0 0.875 0.04 0 0.88 0.04 0 0.885 0.04 0 0.89 0.04 0 0.895 0.04 0 0.9 0.04 0 0.905 0.04 0 0.91 0.04 0 0.915 0.04 0 0.92 0.04 0 0.925 0.04 0 0.93 0.04 0 0.935 0.04 0 0.94 0.04 0 0.945 0.04 0 0.95 0.04 0 0.955 0.04 0 0.96 0.04 0 0.965 0.04 0 0.97 0.04 0 0.975 0.04 0 0.98 0.04 0 0.985 0.04 0 0.99 0.04 0 0.995 0.04 0 1 0.04 0 0 0.06 0 0.005 0.06 0 0.01 0.06 0 0.015 0.06 0 0.02 0.06 0 0.025 0.06 0 0.03 0.06 0 0.035 0.06 0 0.04 0.06 0 0.045 0.06 0 0.05 0.06 0 0.055 0.06 0 0.06 0.06 0 0.065 0.06 0 0.07 0.06 0 0.075 0.06 0 0.08 0.06 0 0.085 0.06 0 0.09 0.06 0 0.095 0.06 0 0.1 0.06 0 0.105 0.06 0 0.11 0.06 0 0.115 0.06 0 0.12 0.06 0 0.125 0.06 0 0.13 0.06 0 0.135 0.06 0 0.14 0.06 0 0.145 0.06 0 0.15 0.06 0 0.155 0.06 0 0.16 0.06 0 0.165 0.06 0 0.17 0.06 0 0.175 0.06 0 0.18 0.06 0 0.185 0.06 0 0.19 0.06 0 0.195 0.06 0 0.2 0.06 0 0.205 0.06 0 0.21 0.06 0 0.215 0.06 0 0.22 0.06 0 0.225 0.06 0 0.23 0.06 0 0.235 0.06 0 0.24 0.06 0 0.245 0.06 0 0.25 0.06 0 0.255 0.06 0 0.26 0.06 0 0.265 0.06 0 0.27 0.06 0 0.275 0.06 0 0.28 0.06 0 0.285 0.06 0 0.29 0.06 0 0.295 0.06 0 0.3 0.06 0 0.305 0.06 0 0.31 0.06 0 0.315 0.06 0 0.32 0.06 0 0.325 0.06 0 0.33 0.06 0 0.335 0.06 0 0.34 0.06 0 0.345 0.06 0 0.35 0.06 0 0.355 0.06 0 0.36 0.06 0 0.365 0.06 0 0.37 0.06 0 0.375 0.06 0 0.38 0.06 0 0.385 0.06 0 0.39 0.06 0 0.395 0.06 0 0.4 0.06 0 0.405 0.06 0 0.41 0.06 0 0.415 0.06 0 0.42 0.06 0 0.425 0.06 0 0.43 0.06 0 0.435 0.06 0 0.44 0.06 0 0.445 0.06 0 0.45 0.06 0 0.455 0.06 0 0.46 0.06 0 0.465 0.06 0 0.47 0.06 0 0.475 0.06 0 0.48 0.06 0 0.485 0.06 0 0.49 0.06 0 0.495 0.06 0 0.5 0.06 0 0.505 0.06 0 0.51 0.06 0 0.515 0.06 0 0.52 0.06 0 0.525 0.06 0 0.53 0.06 0 0.535 0.06 0 0.54 0.06 0 0.545 0.06 0 0.55 0.06 0 0.555 0.06 0 0.56 0.06 0 0.565 0.06 0 0.57 0.06 0 0.575 0.06 0 0.58 0.06 0 0.585 0.06 0 0.59 0.06 0 0.595 0.06 0 0.6 0.06 0 0.605 0.06 0 0.61 0.06 0 0.615 0.06 0 0.62 0.06 0 0.625 0.06 0 0.63 0.06 0 0.635 0.06 0 0.64 0.06 0 0.645 0.06 0 0.65 0.06 0 0.655 0.06 0 0.66 0.06 0 0.665 0.06 0 0.67 0.06 0 0.675 0.06 0 0.68 0.06 0 0.685 0.06 0 0.69 0.06 0 0.695 0.06 0 0.7 0.06 0 0.705 0.06 0 0.71 0.06 0 0.715 0.06 0 0.72 0.06 0 0.725 0.06 0 0.73 0.06 0 0.735 0.06 0 0.74 0.06 0 0.745 0.06 0 0.75 0.06 0 0.755 0.06 0 0.76 0.06 0 0.765 0.06 0 0.77 0.06 0 0.775 0.06 0 0.78 0.06 0 0.785 0.06 0 0.79 0.06 0 0.795 0.06 0 0.8 0.06 0 0.805 0.06 0 0.81 0.06 0 0.815 0.06 0 0.82 0.06 0 0.825 0.06 0 0.83 0.06 0 0.835 0.06 0 0.84 0.06 0 0.845 0.06 0 0.85 0.06 0 0.855 0.06 0 0.86 0.06 0 0.865 0.06 0 0.87 0.06 0 0.875 0.06 0 0.88 0.06 0 0.885 0.06 0 0.89 0.06 0 0.895 0.06 0 0.9 0.06 0 0.905 0.06 0 0.91 0.06 0 0.915 0.06 0 0.92 0.06 0 0.925 0.06 0 0.93 0.06 0 0.935 0.06 0 0.94 0.06 0 0.945 0.06 0 0.95 0.06 0 0.955 0.06 0 0.96 0.06 0 0.965 0.06 0 0.97 0.06 0 0.975 0.06 0 0.98 0.06 0 0.985 0.06 0 0.99 0.06 0 0.995 0.06 0 1 0.06 0 0 0.08 0 0.005 0.08 0 0.01 0.08 0 0.015 0.08 0 0.02 0.08 0 0.025 0.08 0 0.03 0.08 0 0.035 0.08 0 0.04 0.08 0 0.045 0.08 0 0.05 0.08 0 0.055 0.08 0 0.06 0.08 0 0.065 0.08 0 0.07 0.08 0 0.075 0.08 0 0.08 0.08 0 0.085 0.08 0 0.09 0.08 0 0.095 0.08 0 0.1 0.08 0 0.105 0.08 0 0.11 0.08 0 0.115 0.08 0 0.12 0.08 0 0.125 0.08 0 0.13 0.08 0 0.135 0.08 0 0.14 0.08 0 0.145 0.08 0 0.15 0.08 0 0.155 0.08 0 0.16 0.08 0 0.165 0.08 0
[...]
			<PointData Scalars="VitesseX">
				<DataArray Name="VitesseX" type="Float32" format="ascii">
 0 -1.00442e-14 7.33854e-14 -1.95565e-13 1.12556e-13 2.90399e-14 -7.1623e-14 -9.91584e-14 7.2699e-14 -6.02549e-14 -1.45965e-13 3.03562e-13 -5.92758e-13 5.90439e-13 -3.86929e-13 -2.90487e-14 2.97524e-13 -4.1271e-13 3.73735e-13 -3.26566e-13 1.60683e-14 1.0957e-13 2.08574e-13 1.93872e-15 -4.33969e-13 -1.96096e-13 2.7499e-13 -2.992e-13 7.25588e-14 -2.83299e-13 5.37087e-13 -4.24446e-13 4.11367e-13 5.76012e-15 -5.70178e-13 4.59151e-13 -6.14412e-13 8.56831e-13 -8.90222e-13 5.60225e-13 -4.09943e-13 3.86864e-13 3.88786e-14 -6.53313e-13 -1.19787e-13 8.72926e-13 -1.19787e-12 1.32437e-12 -7.54653e-13 1.25185e-13 2.46139e-14 -2.0677e-14 1.59909e-12 -2.4274e-12 6.54618e-13 -3.01626e-13 -1.18877e-12 1.93145e-12 -2.24882e-12 1.06177e-12 8.06213e-13 6.15385e-13 -2.85024e-14 -8.43587e-13 7.80109e-13 1.01088e-13 -1.94897e-13 -4.15823e-13 -1.86005e-12 1.1487e-12 1.05099e-12 -2.27049e-12 1.46782e-12 -8.34854e-13 2.57036e-12 -1.01207e-12 -5.69041e-13 8.70827e-13 -1.27826e-12 1.89086e-12 -2.43313e-12 4.7726e-13 1.18874e-12 -2.23753e-12 4.49664e-13 1.96786e-12 -8.72027e-13 -2.91668e-13 7.71302e-13 -1.42719e-12 3.42643e-12 8.82528e-11 5.37427e-09 2.5112e-07 8.82293e-06 0.000221834 0.00370522 0.0366181 0.185999 0.481378 0.613546 0.974125 0.962368 0.745595 0.506344 0.284551 0.116737 0.0317744 0.00623716 0.00101577 0.000147532 1.94936e-05 2.35774e-06 2.61985e-07 2.68297e-08 2.53958e-09 2.21668e-10 1.74217e-11 3.99e-12 -1.51803e-12 2.68009e-12 -1.52056e-12 -5.6711e-13 2.1956e-12 -2.57011e-12 2.38806e-12 -1.40151e-12 -7.5076e-13 2.23981e-12 -2.45195e-12 2.34872e-12 -1.20087e-12 -6.55391e-13 2.0188e-12 -2.38044e-12 2.1595e-12 -1.58566e-12 -1.06624e-12 7.0263e-13 -2.22754e-12 1.74594e-12 1.77031e-13 -2.82093e-12 3.47627e-12 1.14454e-12 -1.9383e-12 2.70824e-12 -3.57511e-12 2.80857e-12 3.03217e-13 -1.99289e-12 2.49281e-12 -3.47138e-12 3.23752e-12 -2.42671e-12 2.36991e-12 -2.1473e-12 -2.14446e-13 1.26276e-12 -5.11082e-13 1.21689e-12 -1.52481e-12 1.47765e-14 7.46398e-13 -1.19128e-12 -9.09243e-14 -7.03984e-13 3.159e-13 2.18181e-12 -2.23124e-12 2.07549e-12 5.04562e-14 -2.04421e-12 2.7215e-12 -2.55877e-12 1.82906e-12 -1.52882e-13 -1.68312e-12 2.50632e-12 -2.42562e-12 1.46278e-12 4.58478e-13 -2.09973e-12 2.74051e-12 -2.63157e-12 1.77521e-12 1.52318e-13 -2.71554e-12 1.65653e-12 -4.09774e-12 1.34372e-12 3.49327e-12 -7.40041e-12 4.91046e-12 3.91955e-13 1.11785e-12 2.00672e-12 -4.76922e-12 4.33889e-12 -1.24881e-12 0 0 -4.40158e-15 -5.45147e-14 5.61418e-14 -1.11902e-13 6.19219e-15 3.70136e-14 1.33988e-14 -1.17494e-13 -1.33543e-13 1.25374e-13 -1.37815e-13 1.81436e-13 -4.18922e-13 3.18864e-13 -1.27037e-13 -3.00218e-13 3.82215e-13 -3.53722e-13 2.48136e-13 1.02799e-13 -8.55146e-14 -1.29026e-13 6.79196e-14 1.81184e-13 -8.16362e-14 -5.6977e-13 -3.64658e-14 2.35234e-13 8.51464e-14 -2.36228e-13 3.92201e-13 -3.62186e-13 -1.29036e-13 3.9273e-13 -1.4837e-13 3.81189e-14 -7.6959e-13 7.62465e-13 -3.60099e-13 3.41405e-13 -7.46555e-14 -4.10444e-13 2.06719e-13 1.64803e-13 -5.91745e-13 5.53461e-13 -5.84323e-13 5.99445e-13 3.71504e-15 1.21639e-13 1.11533e-13 -8.49533e-13 8.66311e-13 -1.19125e-12 -5.10176e-13 7.76586e-13 -4.49527e-13 4.4129e-13 -6.71517e-13 4.78465e-13 5.80539e-13 2.157e-13 2.58444e-13 -4.81684e-13 2.5829e-14 6.80594e-14 -7.276e-13 -2.77536e-14 -4.07371e-13 -2.37034e-13 7.23349e-13 -7.21819e-13 1.28255e-12 -6.59715e-13 8.21794e-13 5.44455e-14 -6.38817e-13 6.24052e-13 -1.33327e-12 1.10575e-12 -9.46459e-13 -9.3931e-13 1.51467e-12 -1.19659e-13 -1.27828e-12 1.03642e-12 7.4257e-13 -3.76536e-13 6.98007e-13 -1.87312e-13 9.05924e-11 5.37436e-09 2.5112e-07 8.82293e-06 0.000221834 0.00370522 0.0366181 0.185999 0.481378 0.613546 0.974125 0.962368 0.745595 0.506344 0.284551 0.116737 0.0317744 0.00623716 0.00101577 0.000147532 1.94936e-05 2.35774e-06 2.61985e-07 2.68275e-08 2.53999e-09 2.23057e-10 1.87416e-11 4.54822e-13 1.82673e-12 -1.36281e-12 1.6842e-12 1.84115e-13 -1.5223e-12 1.26813e-12 -1.55581e-12 1.46455e-12 5.3082e-13 -1.79599e-12 1.40299e-12 -1.45691e-12 1.51375e-12 2.56773e-13 -1.4976e-12 1.27378e-12 -1.54565e-12 1.25495e-12 -2.64048e-13 -2.39524e-12 4.04491e-13 3.83845e-15 -9.34005e-13 2.73153e-12 -1.06607e-12 -2.52074e-13 1.62935e-12 -1.28735e-12 2.66761e-12 -1.82561e-12 -6.27225e-13 1.31915e-12 -1.17022e-12 2.39316e-12 -2.45934e-12 1.0335e-12 -1.42149e-12 1.38308e-12 3.82839e-14 -1.1583e-12 2.21408e-13 -1.16493e-13 2.14554e-12 -6.00018e-13 -2.05817e-12 -7.23716e-13 7.86834e-14 1.73907e-12 -2.81858e-13 -1.03411e-12 2.25167e-12 -1.79839e-12 -2.27573e-13 1.90388e-12 -1.58462e-12 1.8816e-12 -1.74885e-12 -4.37614e-14 1.47292e-12 -1.21091e-12 1.55394e-12 -1.55302e-12 -6.39288e-13 1.99649e-12 -1.71268e-12 2.01665e-12 -1.94277e-12 -2.93632e-13 1.28616e-12 -2.54894e-12 1.0037e-12 -2.45079e-12 3.45437e-13 3.39041e-12 -3.27014e-12 4.01239e-13 8.18921e-13 4.24415e-13 4.14194e-12 -3.67245e-12 -3.15614e-13 0 0 1.61607e-14 3.53372e-16 1.86262e-14 -2.96205e-14 -1.03819e-13 -1.02501e-13 8.25622e-14 -7.74265e-14 -1.86946e-14 -6.6215e-14 -2.70116e-14 -4.50812e-14 -1.29139e-13 -1.02543e-14 -1.44092e-13 9.02414e-15 2.01682e-13 -6.73394e-14 -8.87001e-14 5.07518e-14 -5.98886e-14 2.01408e-13 -8.49773e-14 -1.71762e-13 -5.34188e-14 -2.72049e-14 1.29632e-14 5.10743e-14 -2.76578e-13 -2.06396e-14 1.55393e-13 6.87271e-14 -1.02916e-13 -2.55091e-13 2.159e-14 8.42077e-14 4.17805e-14 -5.41747e-14 -1.84567e-13 5.73811e-14 1.00127e-13 -1.26767e-13 -3.04819e-13 1.65372e-13 1.50594e-13 2.10362e-13 -2.85314e-13 -2.16678e-13 -2.75312e-13 -1.2166e-13 4.66059e-13 2.07701e-13 -1.83282e-13 -1.41801e-12 -3.65654e-13 8.72107e-13 1.49798e-13 -3.44044e-14 -5.36651e-13 6.08624e-13 5.70361e-13 -1.27596e-13 2.95747e-13 -2.50426e-13 1.45339e-13 1.29422e-13 -7.85797e-13 -2.87174e-13 -1.02931e-13 -1.18842e-13 -8.31094e-14 -8.16875e-13 9.77155e-13 6.14149e-13 -2.10329e-13 -4.32186e-13 -3.13467e-13 7.49542e-13 -4.0271e-13 -6.81397e-13 4.49873e-13 -2.5233e-13 1.71016e-13 -1.01178e-12 1.06462e-12 6.29559e-13 -4.08446e-13 2.59297e-13 3.45384e-13 2.06515e-12 8.96225e-11 5.37271e-09 2.51121e-07 8.82293e-06 0.000221834 0.00370522 0.0366181 0.185999 0.481378 0.613546 0.974125 0.962368 0.745595 0.506344 0.284551 0.116737 0.0317744 0.00623716 0.00101577 0.000147532 1.94936e-05 2.35774e-06 2.61985e-07 2.68292e-08 2.53892e-09 2.21995e-10 1.89638e-11 1.67499e-12 5.19306e-14 3.5945e-13 -8.37594e-13 1.37192e-12 5.03504e-14 -6.12903e-13 1.37664e-14 -1.00905e-12 1.46193e-12 -1.84321e-13 -4.03924e-13 1.08808e-13 -9.87488e-13 1.44209e-12 1.88517e-14 -3.6655e-13 1.54774e-13 -1.04961e-12 7.54019e-13 -7.16204e-13 -1.26921e-12 5.64599e-13 1.23104e-13 1.4125e-13 2.8159e-13 6.39975e-13 -7.73145e-13 5.09242e-13 7.26178e-13 -4.07546e-13 7.64288e-13 -1.36227e-12 4.28948e-13 9.39618e-13 -7.46249e-13 -2.12987e-13 5.39514e-13 -1.11236e-12 1.55477e-12 3.49804e-14 4.36068e-13 -6.62477e-13 -1.91126e-12 8.32009e-13 3.7661e-13 8.37768e-14 -8.40809e-13 -9.55264e-13 5.63339e-13 1.39132e-13 2.00166e-13 5.5263e-13 3.12784e-13 9.34944e-14 -6.04083e-13 -3.78773e-13 1.34965e-12 -2.22442e-13 2.48691e-13 -1.00757e-12 -1.20172e-13 7.27912e-13 -7.4767e-14 1.06735e-13 -8.49903e-13 5.88692e-14 8.46841e-13 -1.7633e-13 -3.1053e-13 -2.02246e-12 -7.8026e-13 1.02319e-12 3.72869e-13 -1.28697e-12 -8.91245e-13 1.82663e-12 6.78616e-13 1.63965e-14 -1.82182e-13 -5.01734e-14 7.90458e-13 0 0 -7.58444e-15 5.43736e-14 -7.80679e-14 -1.27057e-14 -5.5627e-14 -4.67982e-14 2.03679e-14 -1.56577e-13 -1.02506e-13 -1.7544e-13 1.85427e-13 -2.18194e-13 1.82825e-13 -3.45714e-13 -8.80245e-14 3.26362e-13 -2.24922e-13 1.44621e-13 -1.37647e-13 8.4396e-14 -1.66431e-13 6.59432e-14 4.41845e-14 -1.70011e-13 -1.43858e-13 1.37442e-15 -9.91495e-14 1.50857e-13 -1.95072e-13 1.22328e-13 -8.99039e-14 1.66351e-13 -1.08721e-13 -3.34037e-13 3.77979e-14 -3.70525e-13 6.28108e-13 -6.58122e-13 2.79547e-13 6.62979e-14 2.83515e-13 -1.57762e-13 -2.94897e-13 -2.31088e-13 2.35485e-13 -7.94827e-13 8.03293e-13 -5.19177e-13 -3.55574e-14 -2.91192e-13 -2.76922e-13 1.21078e-12 -9.56451e-13 -8.33295e-13 -4.10742e-13 6.6767e-13 8.30611e-13 -6.83627e-13 -3.37297e-13 4.93781e-13 5.33459e-13 4.69732e-13 4.79948e-13 -3.18684e-13 -3.34053e-13 -1.22e-13 -3.27055e-13 -4.99596e-13 -9.04712e-13 8.1549e-13 -8.02285e-13 -2.01772e-13 4.28668e-13 9.18241e-13 -1.18457e-12 5.88498e-13 -9.76603e-14 3.07115e-13 4.20514e-13 -2.6461e-12 -2.67341e-13 1.55801e-12 -6.24948e-13 -2.77073e-13 1.51126e-12 -5.60427e-13 -2.02635e-14 1.07157e-12 -8.67891e-13 3.46497e-12 8.80885e-11 5.37393e-09 2.5112e-07 8.82293e-06 0.000221834 0.00370522 0.0366181 0.185999 0.481378 0.613546 0.974125 0.962368 0.745595 0.506344 0.284551 0.116737 0.0317744 0.00623716 0.00101577 0.000147532 1.94936e-05 2.35774e-06 2.61985e-07 2.68295e-08 2.53891e-09 2.21972e-10 1.86984e-11 1.83841e-12 -1.05908e-12 1.69831e-12 -1.65743e-12 1.17865e-12 3.57201e-13 -1.37616e-12 1.70003e-12 -1.81986e-12 1.12899e-12 2.54059e-13 -1.37882e-12 1.76216e-12 -1.6707e-12 1.48928e-12 3.22739e-13 -1.77507e-12 1.67655e-12 -2.10243e-12 8.29351e-13 -2.54144e-13 -1.49858e-12 1.31671e-13 4.14044e-13 -2.64879e-13 3.23685e-13 6.16491e-14 -1.36287e-12 2.47512e-12 -3.64911e-13 -4.81768e-13 -5.54272e-13 -8.27261e-13 2.35717e-12 -9.34753e-14 2.27588e-13 -1.81447e-12 2.70359e-12 -1.61489e-12 1.01029e-12 -9.87682e-13 -7.65414e-13 1.70274e-12 -1.21109e-12 6.50747e-13 -1.54803e-12 -5.69688e-13 7.38622e-13 -1.2045e-12 1.27055e-12 8.18345e-13 -5.58925e-13 8.47345e-13 -1.24995e-12 -7.57363e-13 2.43902e-12 -1.43239e-12 9.52031e-13 -1.34422e-12 -1.17602e-13 1.83863e-12 -1.02927e-12 2.41616e-13 -1.2973e-12 -5.15982e-13 2.34698e-12 -1.51229e-12 7.05187e-13 -1.06314e-12 -8.79489e-13 5.73995e-13 -2.5543e-12 -6.99647e-13 2.1746e-12 -9.92341e-13 1.95325e-13 -8.66673e-13 -2.20568e-13 2.33276e-12 5.22492e-13 -2.87488e-13 -2.39036e-12 0 0 -2.02905e-14 -2.10215e-14 2.48916e-14 -1.5665e-13 -4.01842e-14 9.00071e-15 -7.57928e-14 -1.52296e-13 -1.81851e-13 4.31683e-14 -2.22071e-13 1.83705e-13 -2.87458e-13 9.17226e-14 -1.03949e-13 6.78105e-14 3.56788e-13 -2.81361e-13 5.74489e-14 6.11222e-15 -2.38707e-13 -4.24748e-13 1.49341e-13 1.15915e-13 -1.63434e-13 -4.48213e-13 9.1103e-14 1.45751e-13 2.2419e-13 -2.17099e-13 2.24512e-13 -2.75559e-13 -1.33925e-13 2.28089e-13 -4.65012e-14 3.08357e-13 -1.90505e-13 2.82335e-13 -4.9729e-13 1.41963e-13 -1.15071e-13 -4.24715e-13 1.20069e-13 -6.36529e-14 -4.67735e-13 1.48085e-13 -2.80981e-13 1.64008e-13 1.67036e-14 3.44138e-14 1.13595e-13 -1.56089e-13 3.19002e-13 -1.12882e-12 -5.55135e-13 6.91334e-13 -2.39063e-14 3.59448e-13 -4.89988e-13 5.13471e-13 3.44026e-13 6.17461e-13 3.47878e-13 -4.58121e-13 -3.58727e-13 -4.55285e-14 -4.81105e-13 -1.85692e-13 -8.98515e-13 1.66253e-13 3.61535e-13 -2.25758e-13 1.94153e-12 -5.66302e-13 -5.93025e-14 -4.86795e-13 -9.6484e-13 1.04498e-13 -7.02391e-13 7.14993e-14 -2.92644e-12 3.78143e-13 1.66287e-12 2.62048e-13 -1.78765e-12 2.40981e-13 1.32271e-12 -4.30139e-13 1.33795e-12 4.04292e-13 8.94486e-11 5.37578e-09 2.51119e-07 8.82293e-06 0.000221834 0.00370522 0.0366181 0.185999 0.481378 0.613546 0.974125 0.962368 0.745595 0.506344 0.284551 0.116737 0.0317744 0.00623716 0.00101577 0.000147532 1.94936e-05 2.35774e-06 2.61986e-07 2.68277e-08 2.53998e-09 2.23271e-10 1.80325e-11 8.45114e-13 1.66513e-12 -1.38863e-12 1.76579e-12 -8.92785e-13 -1.0719e-12 1.82841e-12 -1.49606e-12 1.47529e-12 -3.74121e-13 -1.19689e-12 1.50746e-12 -1.3064e-12 1.52136e-12 -4.51929e-13 -9.40101e-13 1.21829e-12 -1.44982e-12 1.04723e-12 -8.8055e-13 -2.06746e-12 1.08964e-12 -1.01925e-12 -1.42772e-12 3.18933e-12 -1.6173e-12 -1.17883e-12 2.04255e-12 -1.14957e-12 3.74178e-12 -1.94855e-12 -8.12259e-13 1.77772e-12 -2.39984e-12 1.78676e-12 -2.3835e-12 1.41548e-12 -8.28203e-13 3.06148e-12 -9.98938e-13 -1.68821e-12 -1.10043e-12 6.82953e-13 3.40678e-12 -2.97263e-12 -2.51477e-12 -7.20924e-13 8.14605e-13 1.64176e-12 -3.35529e-12 2.383e-13 4.49803e-12 -1.88495e-12 -1.65583e-12 1.10473e-12 8.47496e-13 3.17105e-12 -4.02663e-12 -5.02866e-13 1.00641e-12 1.59116e-13 3.11959e-12 -3.0441e-12 -2.16422e-12 1.31152e-12 8.13893e-13 2.97232e-12 -3.82051e-12 -7.81341e-13 7.72876e-13 -8.65666e-13 6.18564e-13 -6.12349e-12 1.30275e-12 6.6738e-12 -3.50983e-12 -1.66585e-12 1.71851e-13 1.93324e-12 6.44523e-12 -5.37745e-12 -2.53705e-12 0 0 5.6683e-15 3.23313e-14 -6.46776e-14 -1.07687e-14 -1.60097e-13 -2.39055e-13 -1.53153e-13 1.61395e-13 1.07523e-14 -9.19259e-14 -2.89827e-13 -2.41994e-13 2.29438e-13 -1.70292e-13 -9.50066e-14 3.98906e-13 3.89645e-13 9.45341e-14 -6.10046e-13 -2.44593e-13 1.62698e-14 -1.11941e-13 -9.35428e-14 -5.68007e-13 -1.78814e-13 4.60947e-13 1.80163e-13 -3.05973e-13 -1.68223e-13 2.89411e-13 -2.69231e-13 3.89374e-13 7.59313e-15 -7.41567e-13 6.30474e-13 8.35529e-13 8.42347e-13 -6.42588e-13 -6.42385e-13 -8.26661e-13 -6.07445e-14 7.23292e-14 -8.46457e-13 2.16221e-13 9.51164e-13 1.75426e-15 -2.46157e-13 -1.02053e-12 -3.28347e-13 1.89228e-13 1.46941e-12 9.79825e-13 -1.97569e-12 -3.89971e-13 -3.01366e-13 -9.50401e-13 1.42106e-12 -1.11406e-12 1.02612e-12 1.10591e-12 2.16164e-13 -4.19638e-13 -1.03312e-12 9.63749e-13 2.90759e-13 8.07712e-14 -8.40317e-13 -1.75109e-12 1.76998e-12 -1.11e-14 -1.55577e-12 1.22974e-12 1.58009e-12 2.149e-12 -8.25787e-13 -3.69289e-12 -2.12832e-13 -1.43251e-12 1.50618e-12 -5.72212e-13 -2.04827e-12 2.02964e-13 -3.49194e-13 -2.56333e-13 5.5851e-14 -8.29297e-14 9.22495e-14 -9.60459e-13 2.27926e-12 1.81e-12 8.9033e-11 5.37467e-09 2.51118e-07 8.82294e-06 0.000221834 0.00370522 0.0366181 0.185999 0.481378 0.613546 0.974125 0.962368 0.745595 0.506344 0.284551 0.116737 0.0317744 0.00623716 0.00101577 0.000147532 1.94936e-05 2.35774e-06 2.61987e-07 2.68296e-08 2.53957e-09 2.22143e-10 1.65342e-11 4.44374e-12 3.80801e-13 -4.92819e-14 2.82298e-13 -2.33436e-12 2.48269e-12 7.69734e-14 -8.64966e-13 2.41581e-13 -1.89476e-12 2.56125e-12 -2.93219e-13 -6.56969e-13 1.80762e-13 -2.16717e-12 2.52603e-12 3.25615e-13 -6.92407e-13 1.04533e-13 -2.44991e-12 4.34077e-13 -3.985e-13 5.65621e-13 -1.39227e-12 -1.09306e-12 2.28963e-12 4.47682e-13 6.75558e-14 -9.4796e-13 7.55403e-13 2.71113e-12 2.57027e-12 -2.14575e-12 -3.82287e-12 -2.618e-12 1.44153e-12 1.54021e-12 -7.71671e-13 2.21454e-12 -1.19994e-12 2.24826e-12 -7.51789e-13 -1.91465e-12 -4.02675e-13 -4.36792e-12 3.68247e-12 1.21231e-13 -1.77794e-12 -4.00129e-13 -7.2454e-12 3.3682e-12 3.77966e-12 1.31294e-12 3.19424e-13 -1.94079e-12 1.49953e-12 2.12738e-12 -1.93126e-12 1.17246e-12 -1.88354e-12 -4.46026e-13 2.52387e-12 -5.46771e-13 -1.46325e-13 -2.22423e-12 1.39988e-12 2.42209e-12 -1.69694e-12 9.50528e-13 -2.60418e-12 -1.69818e-13 -1.31993e-12 -2.55601e-12 1.80443e-12 -1.42288e-12 2.25792e-12 1.64437e-12 1.62208e-12 3.9164e-13 -1.57198e-12 1.40352e-12 6.69965e-13 0
				</DataArray>
				<DataArray Name="VitesseY" type="Float32" format="ascii">