<?xml version="1.0"?>
<VTKFile type="PolyData">
	<PolyData>
		<Piece NumberOfPoints="1206" NumberOfPolys="1000">
			<Points>
				<DataArray type="Float32" NumberOfComponents="3" format="ascii">
 0 0 0 0.005 0 0 0.01 0 0 0.015 0 0 0.02 0 0 0.025 0 0 0.03 0 0 0.035 0 0 0.04 0 0 0.045 0 0 0.05 0 0 0.055 0 0 0.06 0 0 0.065 0 0 0.07 0 0 0.075 0 0 0.08 0 0 0.085 0 0 0.09 0 0 0.095 0 0 0.1 0 0 0.105 0 0 0.11 0 0 0.115 0 0 0.12 0 0 0.125 0 0 0.13 0 0 0.135 0 0 0.14 0 0 0.145 0 0 0.15 0 0 0.155 0 0 0.16 0 0 0.165 0 0 0.17 0 0 0.175 0 0 0.18 0 0 0.185 0 0 0.19 0 0 0.195 0 0 0.2 0 0 0.205 0 0 0.21 0 0 0.215 0 0 0.22 0 0 0.225 0 0 0.23 0 0 0.235 0 0 0.24 0 0 0.245 0 0 0.25 0 0 0.255 0 0 0.26 0 0 0.265 0 0 0.27 0 0 0.275 0 0 0.28 0 0 0.285 0 0 0.29 0 0 0.295 0 0 0.3 0 0 0.305 0 0 0.31 0 0 0.315 0 0 0.32 0 0 0.325 0 0 0.33 0 0 0.335 0 0 0.34 0 0 0.345 0 0 0.35 0 0 0.355 0 0 0.36 0 0 0.365 0 0 0.37 0 0 0.375 0 0 0.38 0 0 0.385 0 0 0.39 0 0 0.395 0 0 0.4 0 0 0.405 0 0 0.41 0 0 0.415 0 0 0.42 0 0 0.425 0 0 0.43 0 0 0.435 0 0 0.44 0 0 0.445 0 0 0.45 0 0 0.455 0 0 0.46 0 0 0.465 0 0 0.47 0 0 0.475 0 0 0.48 0 0 0.485 0 0 0.49 0 0 0.495 0 0 0.5 0 0 0.505 0 0 0.51 0 0 0.515 0 0 0.52 0 0 0.525 0 0 0.53 0 0 0.535 0 0 0.54 0 0 0.545 0 0 0.55 0 0 0.555 0 0 0.56 0 0 0.565 0 0 0.57 0 0 0.575 0 0 0.58 0 0 0.585 0 0 0.59 0 0 0.595 0 0 0.6 0 0 0.605 0 0 0.61 0 0 0.615 0 0 0.62 0 0 0.625 0 0 0.63 0 0 0.635 0 0 0.64 0 0 0.645 0 0 0.65 0 0 0.655 0 0 0.66 0 0 0.665 0 0 0.67 0 0 0.675 0 0 0.68 0 0 0.685 0 0 0.69 0 0 0.695 0 0 0.7 0 0 0.705 0 0 0.71 0 0 0.715 0 0 0.72 0 0 0.725 0 0 0.73 0 0 0.735 0 0 0.74 0 0 0.745 0 0 0.75 0 0 0.755 0 0 0.76 0 0 0.765 0 0 0.77 0 0 0.775 0 0 0.78 0 0 0.785 0 0 0.79 0 0 0.795 0 0 0.8 0 0 0.805 0 0 0.81 0 0 0.815 0 0 0.82 0 0 0.825 0 0 0.83 0 0 0.835 0 0 0.84 0 0 0.845 0 0 0.85 0 0 0.855 0 0 0.86 0 0 0.865 0 0 0.87 0 0 0.875 0 0 0.88 0 0 0.885 0 0 0.89 0 0 0.895 0 0 0.9 0 0 0.905 0 0 0.91 0 0 0.915 0 0 0.92 0 0 0.925 0 0 0.93 0 0 0.935 0 0 0.94 0 0 0.945 0 0 0.95 0 0 0.955 0 0 0.96 0 0 0.965 0 0 0.97 0 0 0.975 0 0 0.98 0 0 0.985 0 0 0.99 0 0 0.995 0 0 1 0 0 0 0.02 0 0.005 0.02 0 0.01 0.02 0 0.015 0.02 0 0.02 0.02 0 0.025 0.02 0 0.03 0.02 0 0.035 0.02 0 0.04 0.02 0 0.045 0.02 0 0.05 0.02 0 0.055 0.02 0 0.06 0.02 0 0.065 0.02 0 0.07 0.02 0 0.075 0.02 0 0.08 0.02 0 0.085 0.02 0 0.09 0.02 0 0.095 0.02 0 0.1 0.02 0 0.105 0.02 0 0.11 0.02 0 0.115 0.02 0 0.12 0.02 0 0.125 0.02 0 0.13 0.02 0 0.135 0.02 0 0.14 0.02 0 0.145 0.02 0 0.15 0.02 0 0.155 0.02 0 0.16 0.02 0 0.165 0.02 0 0.17 0.02 0 0.175 0.02 0 0.18 0.02 0 0.185 0.02 0 0.19 0.02 0 0.195 0.02 0 0.2 0.02 0 0.205 0.02 0 0.21 0.02 0 0.215 0.02 0 0.22 0.02 0 0.225 0.02 0 0.23 0.02 0 0.235 0.02 0 0.24 0.02 0 0.245 0.02 0 0.25 0.02 0 0.255 0.02 0 0.26 0.02 0 0.265 0.02 0 0.27 0.02 0 0.275 0.02 0 0.28 0.02 0 0.285 0.02 0 0.29 0.02 0 0.295 0.02 0 0.3 0.02 0 0.305 0.02 0 0.31 0.02 0 0.315 0.02 0 0.32 0.02 0 0.325 0.02 0 0.33 0.02 0 0.335 0.02 0 0.34 0.02 0 0.345 0.02 0 0.35 0.02 0 0.355 0.02 0 0.36 0.02 0 0.365 0.02 0 0.37 0.02 0 0.375 0.02 0 0.38 0.02 0 0.385 0.02 0 0.39 0.02 0 0.395 0.02 0 0.4 0.02 0 0.405 0.02 0 0.41 0.02 0 0.415 0.02 0 0.42 0.02 0 0.425 0.02 0 0.43 0.02 0 0.435 0.02 0 0.44 0.02 0 0.445 0.02 0 0.45 0.02 0 0.455 0.02 0 0.46 0.02 0 0.465 0.02 0 0.47 0.02 0 0.475 0.02 0 0.48 0.02 0 0.485 0.02 0 0.49 0.02 0 0.495 0.02 0 0.5 0.02 0 0.505 0.02 0 0.51 0.02 0 0.515 0.02 0 0.52 0.02 0 0.525 0.02 0 0.53 0.02 0 0.535 0.02 0 0.54 0.02 0 0.545 0.02 0 0.55 0.02 0 0.555 0.02 0 0.56 0.02 0 0.565 0.02 0 0.57 0.02 0 0.575 0.02 0 0.58 0.02 0 0.585 0.02 0 0.59 0.02 0 0.595 0.02 0 0.6 0.02 0 0.605 0.02 0 0.61 0.02 0 0.615 0.02 0 0.62 0.02 0 0.625 0.02 0 0.63 0.02 0 0.635 0.02 0 0.64 0.02 0 0.645 0.02 0 0.65 0.02 0 0.655 0.02 0 0.66 0.02 0 0.665 0.02 0 0.67 0.02 0 0.675 0.02 0 0.68 0.02 0 0.685 0.02 0 0.69 0.02 0 0.695 0.02 0 0.7 0.02 0 0.705 0.02 0 0.71 0.02 0 0.715 0.02 0 0.72 0.02 0 0.725 0.02 0 0.73 0.02 0 0.735 0.02 0 0.74 0.02 0 0.745 0.02 0 0.75 0.02 0 0.755 0.02 0 0.76 0.02 0 0.765 0.02 0 0.77 0.02 0 0.775 0.02 0 0.78 0.02 0 0.785 0.02 0 0.79 0.02 0 0.795 0.02 0 0.8 0.02 0 0.805 0.02 0 0.81 0.02 0 0.815 0.02 0 0.82 0.02 0 0.825 0.02 0 0.83 0.02 0 0.835 0.02 0 0.84 0.02 0 0.845 0.02 0 0.85 0.02 0 0.855 0.02 0 0.86 0.02 0 0.865 0.02 0 0.87 0.02 0 0.875 0.02 0 0.88 0.02 0 0.885 0.02 0 0.89 0.02 0 0.895 0.02 0 0.9 0.02 0 0.905 0.02 0 0.91 0.02 0 0.915 0.02 0 0.92 0.02 0 0.925 0.02 0 0.93 0.02 0 0.935 0.02 0 0.94 0.02 0 0.945 0.02 0 0.95 0.02 0 0.955 0.02 0 0.96 0.02 0 0.965 0.02 0 0.97 0.02 0 0.975 0.02 0 0.98 0.02 0 0.985 0.02 0 0.99 0.02 0 0.995 0.02 0 1 0.02 0 0 0.04 0 0.005 0.04 0 0.01 0.04 0 0.015 0.04 0 0.02 0.04 0 0.025 0.04 0 0.03 0.04 0 0.035 0.04 0 0.04 0.04 0 0.045 0.04 0 0.05 0.04 0 0.055 0.04 0 0.06 0.04 0 0.065 0.04 0 0.07 0.04 0 0.075 0.04 0 0.08 0.04 0 0.085 0.04 0 0.09 0.04 0 0.095 0.04 0 0.1 0.04 0 0.105 0.04 0 0.11 0.04 0 0.115 0.04 0 0.12 0.04 0 0.125 0.04 0 0.13 0.04 0 0.135 0.04 0 0.14 0.04 0 0.145 0.04 0 0.15 0.04 0 0.155 0.04 0 0.16 0.04 0 0.165 0.04 0 0.17 0.04 0 0.175 0.04 0 0.18 0.04 0 0.185 0.04 0 0.19 0.04 0 0.195 0.04 0 0.2 0.04 0 0.205 0.04 0 0.21 0.04 0 0.215 0.04 0 0.22 0.04 0 0.225 0.04 0 0.23 0.04 0 0.235 0.04 0 0.24 0.04 0 0.245 0.04 0 0.25 0.04 0 0.255 0.04 0 0.26 0.04 0 0.265 0.04 0 0.27 0.04 0 0.275 0.04 0 0.28 0.04 0 0.285 0.04 0 0.29 0.04 0 0.295 0.04 0 0.3 0.04 0 0.305 0.04 0 0.31 0.04 0 0.315 0.04 0 0.32 0.04 0 0.325 0.04 0 0.33 0.04 0 0.335 0.04 0 0.34 0.04 0 0.345 0.04 0 0.35 0.04 0 0.355 0.04 0 0.36 0.04 0 0.365 0.04 0 0.37 0.04 0 0.375 0.04 0 0.38 0.04 0 0.385 0.04 0 0.39 0.04 0 0.395 0.04 0 0.4 0.04 0 0.405 0.04 0 0.41 0.04 0 0.415 0.04 0 0.42 0.04 0 0.425 0.04 0 0.43 0.04 0 0.435 0.04 0 0.44 0.04 0 0.445 0.04 0 0.45 0.04 0 0.455 0.04 0 0.46 0.04 0 0.465 0.04 0 0.47 0.04 0 0.475 0.04 0 0.48 0.04 0 0.485 0.04 0 0.49 0.04 0 0.495 0.04 0 0.5 0.04 0 0.505 0.04 0 0.51 0.04 0 0.515 0.04 0 0.52 0.04 0 0.525 0.04 0 0.53 0.04 0 0.535 0.04 0 0.54 0.04 0 0.545 0.04 0 0.55 0.04 0 0.555 0.04 0 0.56 0.04 0 0.565 0.04 0 0.57 0.04 0 0.575 0.04 0 0.58 0.04 0 0.585 0.04 0 0.59 0.04 0 0.595 0.04 0 0.6 0.04 0 0.605 0.04 0 0.61 0.04 0 0.615 0.04 0 0.62 0.04 0 0.625 0.04 0 0.63 0.04 0 0.635 0.04 0 0.64 0.04 0 0.645 0.04 0 0.65 0.04 0 0.655 0.04 0 0.66 0.04 0 0.665 0.04 0 0.67 0.04 0 0.675 0.04 0 0.68 0.04 0 0.685 0.04 0 0.69 0.04 0 0.695 0.04 0 0.7 0.04 0 0.705 0.04 0 0.71 0.04 0 0.715 0.04 0 0.72 0.04 0 0.725 0.04 0 0.73 0.04 0 0.735 0.04 0 0.74 0.04 0 0.745 0.04 0 0.75 0.04 0 0.755 0.04 0 0.76 0.04 0 0.765 0.04 0 0.77 0.04 0 0.775 0.04 0 0.78 0.04 0 0.785 0.04 0 0.79 0.04 0 0.795 0.04 0 0.8 0.04 0 0.805 0.04 0 0.81 0.04 0 0.815 0.04 0 0.82 0.04 0 0.825 0.04 0 0.83 0.04 0 0.835 0.04 0 0.84 0.04 0 0.845 0.04 0 0.85 0.04 0 0.855 0.04 0 0.86 0.04 0 0.865 0.04 0 0.87 0.04 0 0.875 0.04 0 0.88 0.04 0 0.885 0.04 0 0.89 0.04 0 0.895 0.04 0 0.9 0.04 0 0.905 0.04 0 0.91 0.04 0 0.915 0.04 0 0.92 0.04 0 0.925 0.04 0 0.93 0.04 0 0.935 0.04 0 0.94 0.04 0 0.945 0.04 0 0.95 0.04 0 0.955 0.04 0 0.96 0.04 0 0.965 0.04 0 0.97 0.04 0 0.975 0.04 0 0.98 0.04 0 0.985 0.04 0 0.99 0.04 0 0.995 0.04 0 1 0.04 0 0 0.06 0 0.005 0.06 0 0.01 0.06 0 0.015 0.06 0 0.02 0.06 0 0.025 0.06 0 0.03 0.06 0 0.035 0.06 0 0.04 0.06 0 0.045 0.06 0 0.05 0.06 0 0.055 0.06 0 0.06 0.06 0 0.065 0.06 0 0.07 0.06 0 0.075 0.06 0 0.08 0.06 0 0.085 0.06 0 0.09 0.06 0 0.095 0.06 0 0.1 0.06 0 0.105 0.06 0 0.11 0.06 0 0.115 0.06 0 0.12 0.06 0 0.125 0.06 0 0.13 0.06 0 0.135 0.06 0 0.14 0.06 0 0.145 0.06 0 0.15 0.06 0 0.155 0.06 0 0.16 0.06 0 0.165 0.06 0 0.17 0.06 0 0.175 0.06 0 0.18 0.06 0 0.185 0.06 0 0.19 0.06 0 0.195 0.06 0 0.2 0.06 0 0.205 0.06 0 0.21 0.06 0 0.215 0.06 0 0.22 0.06 0 0.225 0.06 0 0.23 0.06 0 0.235 0.06 0 0.24 0.06 0 0.245 0.06 0 0.25 0.06 0 0.255 0.06 0 0.26 0.06 0 0.265 0.06 0 0.27 0.06 0 0.275 0.06 0 0.28 0.06 0 0.285 0.06 0 0.29 0.06 0 0.295 0.06 0 0.3 0.06 0 0.305 0.06 0 0.31 0.06 0 0.315 0.06 0 0.32 0.06 0 0.325 0.06 0 0.33 0.06 0 0.335 0.06 0 0.34 0.06 0 0.345 0.06 0 0.35 0.06 0 0.355 0.06 0 0.36 0.06 0 0.365 0.06 0 0.37 0.06 0 0.375 0.06 0 0.38 0.06 0 0.385 0.06 0 0.39 0.06 0 0.395 0.06 0 0.4 0.06 0 0.405 0.06 0 0.41 0.06 0 0.415 0.06 0 0.42 0.06 0 0.425 0.06 0 0.43 0.06 0 0.435 0.06 0 0.44 0.06 0 0.445 0.06 0 0.45 0.06 0 0.455 0.06 0 0.46 0.06 0 0.465 0.06 0 0.47 0.06 0 0.475 0.06 0 0.48 0.06 0 0.485 0.06 0 0.49 0.06 0 0.495 0.06 0 0.5 0.06 0 0.505 0.06 0 0.51 0.06 0 0.515 0.06 0 0.52 0.06 0 0.525 0.06 0 0.53 0.06 0 0.535 0.06 0 0.54 0.06 0 0.545 0.06 0 0.55 0.06 0 0.555 0.06 0 0.56 0.06 0 0.565 0.06 0 0.57 0.06 0 0.575 0.06 0 0.58 0.06 0 0.585 0.06 0 0.59 0.06 0 0.595 0.06 0 0.6 0.06 0 0.605 0.06 0 0.61 0.06 0 0.615 0.06 0 0.62 0.06 0 0.625 0.06 0 0.63 0.06 0 0.635 0.06 0 0.64 0.06 0 0.645 0.06 0 0.65 0.06 0 0.655 0.06 0 0.66 0.06 0 0.665 0.06 0 0.67 0.06 0 0.675 0.06 0 0.68 0.06 0 0.685 0.06 0 0.69 0.06 0 0.695 0.06 0 0.7 0.06 0 0.705 0.06 0 0.71 0.06 0 0.715 0.06 0 0.72 0.06 0 0.725 0.06 0 0.73 0.06 0 0.735 0.06 0 0.74 0.06 0 0.745 0.06 0 0.75 0.06 0 0.755 0.06 0 0.76 0.06 0 0.765 0.06 0 0.77 0.06 0 0.775 0.06 0 0.78 0.06 0 0.785 0.06 0 0.79 0.06 0 0.795 0.06 0 0.8 0.06 0 0.805 0.06 0 0.81 0.06 0 0.815 0.06 0 0.82 0.06 0 0.825 0.06 0 0.83 0.06 0 0.835 0.06 0 0.84 0.06 0 0.845 0.06 0 0.85 0.06 0 0.855 0.06 0 0.86 0.06 0 0.865 0.06 0 0.87 0.06 0 0.875 0.06 0 0.88 0.06 0 0.885 0.06 0 0.89 0.06 0 0.895 0.06 0 0.9 0.06 0 0.905 0.06 0 0.91 0.06 0 0.915 0.06 0 0.92 0.06 0 0.925 0.06 0 0.93 0.06 0 0.935 0.06 0 0.94 0.06 0 0.945 0.06 0 0.95 0.06 0 0.955 0.06 0 0.96 0.06 0 0.965 0.06 0 0.97 0.06 0 0.975 0.06 0 0.98 0.06 0 0.985 0.06 0 0.99 0.06 0 0.995 0.06 0 1 0.06 0 0 0.08 0 0.005 0.08 0 0.01 0.08 0 0.015 0.08 0 0.02 0.08 0 0.025 0.08 0 0.03 0.08 0 0.035 0.08 0 0.04 0.08 0 0.045 0.08 0 0.05 0.08 0 0.055 0.08 0 0.06 0.08 0 0.065 0.08 0 0.07 0.08 0 0.075 0.08 0 0.08 0.08 0 0.085 0.08 0 0.09 0.08 0 0.095 0.08 0 0.1 0.08 0 0.105 0.08 0 0.11 0.08 0 0.115 0.08 0 0.12 0.08 0 0.125 0.08 0 0.13 0.08 0 0.135 0.08 0 0.14 0.08 0 0.145 0.08 0 0.15 0.08 0 0.155 0.08 0 0.16 0.08 0 0.165 0.08 0
[...]
			<PointData Scalars="VitesseX">
				<DataArray Name="VitesseX" type="Float32" format="ascii">
 0 -3.8065e-16 1.58298e-14 3.31255e-15 -6.1834e-15 -7.65378e-15 6.28595e-15 -4.51927e-14 -2.13724e-14 -1.90841e-14 -5.04682e-15 2.19296e-14 -3.718e-14 4.42361e-14 -3.15409e-14 -2.68898e-14 6.15942e-15 -4.88464e-14 3.17178e-14 -1.14223e-13 7.88712e-14 -9.51021e-14 3.1463e-14 -8.00645e-14 -6.94552e-14 -1.20321e-13 -1.81126e-13 3.71311e-14 -9.53461e-14 -6.10844e-14 -7.85382e-14 9.30625e-14 7.86702e-14 -5.94927e-14 -3.31121e-14 -2.24799e-13 3.02264e-14 -1.93597e-13 -2.16619e-13 -1.63647e-13 -1.35856e-13 -3.88869e-14 -1.81918e-13 -7.09042e-14 -6.02789e-14 -4.23922e-14 -1.07874e-13 3.80207e-14 -2.74038e-14 -7.53662e-14 3.85579e-14 9.3233e-14 8.54748e-13 8.04265e-12 5.71014e-11 3.82614e-10 2.41401e-09 1.42977e-08 7.92164e-08 4.09171e-07 1.9626e-06 8.70214e-06 3.54793e-05 0.000132169 0.000446486 0.00135573 0.00366469 0.0087428 0.0183243 0.0337496 0.0550708 0.0809406 0.109487 0.13926 0.169483 0.199811 0.2301 0.260314 0.290422 0.3204 0.350231 0.379899 0.409393 0.4387 0.467808 0.496706 0.525381 0.553816 0.581995 0.609894 0.637484 0.664728 0.691579 0.717973 0.74383 0.769049 0.793498 0.817016 0.839402 0.860414 0.879765 0.897127 0.912138 0.924427 0.933659 0.939641 0.94217 0.941878 0.941147 0.940125 0.938933 0.937657 0.936378 0.935144 0.934003 0.93299 0.932118 0.931389 0.93079 0.930303 0.92991 0.929623 0.929143 0.926975 0.939445 0.953157 0.944513 0.933277 0.929305 0.928388 0.928161 0.928109 0.928107 0.928111 0.928099 0.92803 0.927815 0.927277 0.926068 0.923529 0.918451 0.908883 0.891721 0.862618 0.81635 0.747956 0.65473 0.53872 0.408714 0.279667 0.168126 0.0873921 0.0395624 0.0162045 0.00627896 0.00236676 0.000880094 0.000324694 0.000119078 4.34305e-05 1.57509e-05 5.67822e-06 2.03392e-06 7.23565e-07 2.55539e-07 8.95546e-08 3.11319e-08 1.07303e-08 3.66612e-09 1.24138e-09 4.15997e-10 1.38078e-10 4.57112e-11 1.40424e-11 4.73225e-12 9.85223e-13 -1.17507e-13 -3.70277e-14 -2.60952e-13 -9.85884e-14 -5.28763e-13 1.27579e-13 -2.25146e-13 -1.30039e-13 1.55536e-13 -1.26164e-13 -8.38441e-14 2.68067e-13 -1.15069e-13 -6.84787e-16 4.77129e-13 -6.49309e-13 7.85462e-13 -1.6771e-13 3.76484e-13 -1.40969e-13 3.50983e-13 2.46828e-13 -2.72878e-13 5.70454e-13 0 0 1.34466e-14 5.33722e-15 1.0014e-14 7.03785e-15 -1.36433e-14 -1.03168e-14 -1.57214e-14 -1.91747e-14 -1.40352e-14 -3.02882e-15 -3.4687e-14 3.28252e-14 -4.99872e-14 -2.08657e-14 1.26586e-14 1.76857e-14 -2.22805e-14 -9.25367e-14 4.82816e-14 -1.46295e-13 7.32757e-14 -3.92757e-14 -1.24652e-13 -7.02523e-14 -2.52488e-14 -5.43656e-14 -2.3296e-13 -5.29788e-14 5.28893e-16 5.27109e-14 -5.35713e-14 -1.83626e-15 -4.45508e-14 -6.30358e-14 -7.02336e-14 -7.47001e-14 -1.18851e-13 -1.23386e-13 -1.49412e-13 -8.16113e-14 -2.74613e-13 1.26526e-13 -2.41175e-14 -9.32772e-14 -9.34398e-14 -5.46574e-14 -2.14662e-13 1.08945e-13 1.52872e-13 -9.24471e-14 1.1544e-13 1.01317e-12 8.02382e-12 5.68803e-11 3.82608e-10 2.41418e-09 1.42976e-08 7.92168e-08 4.09171e-07 1.9626e-06 8.70214e-06 3.54793e-05 0.000132169 0.000446486 0.00135573 0.00366469 0.0087428 0.0183243 0.0337496 0.0550708 0.0809406 0.109487 0.13926 0.169483 0.199811 0.2301 0.260314 0.290422 0.3204 0.350231 0.379899 0.409393 0.4387 0.467808 0.496706 0.525381 0.553816 0.581995 0.609894 0.637484 0.664728 0.691579 0.717973 0.74383 0.769049 0.793498 0.817016 0.839402 0.860414 0.879765 0.897127 0.912138 0.924427 0.933659 0.939641 0.94217 0.941878 0.941147 0.940125 0.938933 0.937657 0.936378 0.935144 0.934003 0.93299 0.932118 0.931389 0.93079 0.930303 0.92991 0.929623 0.929143 0.926975 0.939445 0.953157 0.944513 0.933277 0.929305 0.928388 0.928161 0.928109 0.928107 0.928111 0.928099 0.92803 0.927815 0.927277 0.926068 0.923529 0.918451 0.908883 0.891721 0.862618 0.81635 0.747956 0.65473 0.53872 0.408714 0.279667 0.168126 0.0873921 0.0395624 0.0162045 0.00627896 0.00236676 0.000880094 0.000324694 0.000119078 4.34305e-05 1.57509e-05 5.67822e-06 2.03392e-06 7.23565e-07 2.55539e-07 8.9555e-08 3.11314e-08 1.0731e-08 3.6663e-09 1.24092e-09 4.16344e-10 1.38016e-10 4.49939e-11 1.48513e-11 4.13341e-12 1.08918e-12 3.04837e-13 -5.09533e-13 -1.65882e-13 -4.17392e-13 2.00057e-13 -5.37261e-13 -2.38636e-13 9.68553e-14 -2.20543e-13 3.21766e-13 -5.69247e-14 -3.57519e-14 -2.14153e-14 2.75956e-13 -2.30393e-13 2.76221e-13 -2.74958e-13 8.2957e-13 -2.34684e-13 3.58229e-13 2.61512e-14 2.02926e-13 -1.89696e-13 -4.05362e-13 0 0 1.49174e-14 1.79542e-14 9.63719e-15 9.40513e-15 1.20519e-14 -7.47999e-16 -2.41519e-14 1.09091e-14 9.83787e-15 -2.38387e-14 -1.57629e-14 -1.8059e-15 -3.91561e-14 -3.99703e-14 -4.94294e-14 -4.37744e-14 2.26913e-15 2.4601e-14 -9.90152e-14 2.33769e-15 -8.41518e-14 -1.50923e-13 -3.81058e-14 1.34077e-14 -7.63779e-14 -1.30185e-13 -4.18354e-15 -1.6675e-13 -4.30749e-15 5.90703e-14 -7.05764e-14 -8.59725e-15 -5.74687e-14 -2.82612e-14 -2.71015e-13 -6.12952e-14 8.48399e-14 -8.04942e-14 -1.09374e-13 -1.06516e-13 1.65076e-15 -1.45113e-13 -9.59815e-16 -9.46241e-14 -2.36486e-14 -5.62737e-14 -1.21465e-13 -5.34242e-16 1.09707e-14 -3.85692e-14 1.35005e-13 1.20402e-12 7.88138e-12 5.71461e-11 3.82301e-10 2.41435e-09 1.42978e-08 7.92166e-08 4.09171e-07 1.9626e-06 8.70214e-06 3.54793e-05 0.000132169 0.000446486 0.00135573 0.00366469 0.0087428 0.0183243 0.0337496 0.0550708 0.0809406 0.109487 0.13926 0.169483 0.199811 0.2301 0.260314 0.290422 0.3204 0.350231 0.379899 0.409393 0.4387 0.467808 0.496706 0.525381 0.553816 0.581995 0.609894 0.637484 0.664728 0.691579 0.717973 0.74383 0.769049 0.793498 0.817016 0.839402 0.860414 0.879765 0.897127 0.912138 0.924427 0.933659 0.939641 0.94217 0.941878 0.941147 0.940125 0.938933 0.937657 0.936378 0.935144 0.934003 0.93299 0.932118 0.931389 0.93079 0.930303 0.92991 0.929623 0.929143 0.926975 0.939445 0.953157 0.944513 0.933277 0.929305 0.928388 0.928161 0.928109 0.928107 0.928111 0.928099 0.92803 0.927815 0.927277 0.926068 0.923529 0.918451 0.908883 0.891721 0.862618 0.81635 0.747956 0.65473 0.53872 0.408714 0.279667 0.168126 0.0873921 0.0395624 0.0162045 0.00627896 0.00236676 0.000880094 0.000324694 0.000119078 4.34305e-05 1.57509e-05 5.67822e-06 2.03392e-06 7.23565e-07 2.55539e-07 8.9555e-08 3.11315e-08 1.07308e-08 3.66627e-09 1.24123e-09 4.15976e-10 1.37978e-10 4.52788e-11 1.46564e-11 4.26318e-12 1.19933e-12 -3.60595e-14 -1.69663e-13 -3.71467e-13 -2.66828e-14 -3.11776e-13 3.5689e-14 -4.6489e-13 1.00275e-13 -1.51383e-13 -1.39455e-13 2.37854e-13 -2.65027e-13 -2.58875e-13 5.91204e-13 2.2957e-14 1.66767e-13 5.76848e-14 -2.82422e-13 9.04932e-13 2.33896e-13 -3.47141e-14 3.73204e-14 6.68816e-13 1.30422e-13 0 0 6.36957e-15 2.34317e-14 1.83887e-14 -5.20338e-15 7.53834e-15 3.07671e-14 -1.69659e-16 -1.1635e-14 2.47043e-14 1.52653e-14 2.66744e-14 -3.66188e-15 -7.01023e-14 -9.28415e-14 -4.27403e-14 -8.72643e-14 -5.05706e-14 3.38479e-14 -1.56711e-13 4.70184e-14 -1.38068e-13 -7.39869e-14 -1.7021e-14 -8.8528e-14 -9.74351e-15 -1.12353e-13 -3.17937e-14 -3.67131e-14 2.26698e-14 -6.04161e-14 -6.03162e-14 -2.49956e-14 -1.64178e-15 1.25984e-14 -1.3712e-13 -1.80005e-13 -1.13109e-13 -1.16398e-13 7.01869e-14 -8.03603e-14 -1.37599e-13 -2.04057e-13 -3.88915e-14 -1.23443e-13 -1.01222e-13 -1.5937e-14 8.46694e-14 4.05253e-14 -9.67508e-14 1.11543e-14 -4.01978e-14 1.22277e-12 7.97324e-12 5.72383e-11 3.82565e-10 2.41403e-09 1.42978e-08 7.92166e-08 4.09171e-07 1.9626e-06 8.70214e-06 3.54793e-05 0.000132169 0.000446486 0.00135573 0.00366469 0.0087428 0.0183243 0.0337496 0.0550708 0.0809406 0.109487 0.13926 0.169483 0.199811 0.2301 0.260314 0.290422 0.3204 0.350231 0.379899 0.409393 0.4387 0.467808 0.496706 0.525381 0.553816 0.581995 0.609894 0.637484 0.664728 0.691579 0.717973 0.74383 0.769049 0.793498 0.817016 0.839402 0.860414 0.879765 0.897127 0.912138 0.924427 0.933659 0.939641 0.94217 0.941878 0.941147 0.940125 0.938933 0.937657 0.936378 0.935144 0.934003 0.93299 0.932118 0.931389 0.93079 0.930303 0.92991 0.929623 0.929143 0.926975 0.939445 0.953157 0.944513 0.933277 0.929305 0.928388 0.928161 0.928109 0.928107 0.928111 0.928099 0.92803 0.927815 0.927277 0.926068 0.923529 0.918451 0.908883 0.891721 0.862618 0.81635 0.747956 0.65473 0.53872 0.408714 0.279667 0.168126 0.0873921 0.0395624 0.0162045 0.00627896 0.00236676 0.000880094 0.000324694 0.000119078 4.34305e-05 1.57509e-05 5.67822e-06 2.03392e-06 7.23566e-07 2.55539e-07 8.95551e-08 3.11317e-08 1.07305e-08 3.66617e-09 1.24122e-09 4.16361e-10 1.38365e-10 4.53748e-11 1.42876e-11 4.48643e-12 8.27522e-13 3.43529e-13 -2.46828e-13 -5.51673e-13 2.51767e-13 -3.5938e-14 -4.24476e-13 2.56676e-13 -3.08561e-13 -2.08161e-13 -3.98519e-13 7.47372e-13 -4.01166e-13 1.09651e-14 1.87734e-13 4.84397e-13 4.32966e-14 7.2061e-13 -7.64094e-13 2.09436e-13 -3.35797e-13 1.70182e-13 5.45515e-13 2.23454e-13 2.94764e-13 0 0 8.72822e-15 9.25807e-15 3.23179e-14 1.21742e-14 1.52478e-14 7.73058e-15 1.57143e-14 -1.76772e-14 1.45225e-14 2.00853e-14 -1.04871e-14 1.56864e-14 -1.10024e-13 -6.98491e-14 -6.71705e-14 -7.84514e-15 -4.0354e-14 -9.18846e-14 -1.67342e-14 -1.50859e-13 3.38465e-14 -3.61286e-15 -1.17913e-13 -1.43505e-13 5.59136e-14 8.04017e-14 -2.49832e-13 3.78439e-14 7.81208e-14 8.51022e-15 -1.74255e-14 -2.44894e-14 4.67312e-14 -3.3734e-14 1.55361e-14 -3.48718e-13 -1.37218e-13 -1.42394e-13 -4.32147e-14 -5.32433e-14 -3.89503e-13 -2.04345e-14 -5.74137e-14 -1.31515e-13 -1.27129e-14 3.73418e-14 -5.96221e-14 6.80368e-14 -2.56419e-15 -1.27852e-13 8.46896e-14 1.18417e-12 8.16554e-12 5.7034e-11 3.82823e-10 2.41415e-09 1.42977e-08 7.92168e-08 4.09171e-07 1.9626e-06 8.70214e-06 3.54793e-05 0.000132169 0.000446486 0.00135573 0.00366469 0.0087428 0.0183243 0.0337496 0.0550708 0.0809406 0.109487 0.13926 0.169483 0.199811 0.2301 0.260314 0.290422 0.3204 0.350231 0.379899 0.409393 0.4387 0.467808 0.496706 0.525381 0.553816 0.581995 0.609894 0.637484 0.664728 0.691579 0.717973 0.74383 0.769049 0.793498 0.817016 0.839402 0.860414 0.879765 0.897127 0.912138 0.924427 0.933659 0.939641 0.94217 0.941878 0.941147 0.940125 0.938933 0.937657 0.936378 0.935144 0.934003 0.93299 0.932118 0.931389 0.93079 0.930303 0.92991 0.929623 0.929143 0.926975 0.939445 0.953157 0.944513 0.933277 0.929305 0.928388 0.928161 0.928109 0.928107 0.928111 0.928099 0.92803 0.927815 0.927277 0.926068 0.923529 0.918451 0.908883 0.891721 0.862618 0.81635 0.747956 0.65473 0.53872 0.408714 0.279667 0.168126 0.0873921 0.0395624 0.0162045 0.00627896 0.00236676 0.000880094 0.000324694 0.000119078 4.34305e-05 1.57509e-05 5.67822e-06 2.03392e-06 7.23566e-07 2.55539e-07 8.95553e-08 3.11316e-08 1.0731e-08 3.66629e-09 1.24097e-09 4.16299e-10 1.38276e-10 4.54261e-11 1.49579e-11 4.36407e-12 5.76006e-13 5.27954e-13 -2.25844e-13 -2.11676e-13 -3.68833e-13 4.0011e-13 -6.51474e-13 2.25954e-13 -1.31567e-13 -2.35238e-13 7.3667e-14 2.95265e-13 -1.3901e-13 1.67635e-13 -2.51881e-13 -4.7459e-13 9.85028e-14 5.89887e-14 2.99163e-13 -3.28142e-13 2.19461e-13 1.17042e-13 2.03936e-13 -9.76033e-14 -6.63911e-13 0 0 7.27825e-15 1.27164e-14 3.04173e-14 3.33063e-14 5.91555e-14 -2.06495e-14 -3.02859e-14 2.67109e-14 8.29843e-15 -3.70266e-14 -1.45452e-14 -6.77455e-14 -1.39456e-14 -2.37654e-14 -1.99926e-13 4.20775e-14 2.06861e-14 1.45281e-14 -1.28863e-13 -1.9617e-14 -6.61277e-14 -5.10839e-14 -1.08755e-13 -1.20884e-14 -9.1265e-14 5.27429e-14 5.86074e-14 -1.73775e-13 4.01447e-14 7.20331e-14 1.44834e-13 6.61606e-14 1.14173e-14 -5.62276e-14 -3.2105e-13 -2.80389e-13 1.65567e-13 -1.82829e-13 -3.10374e-13 -1.31432e-13 9.83225e-15 -3.5795e-13 -6.16332e-14 -7.91176e-14 2.74208e-13 -4.54925e-15 -6.41682e-14 -1.91339e-13 -1.70796e-13 -1.31699e-13 3.82137e-13 1.15924e-12 8.14237e-12 5.72242e-11 3.82516e-10 2.41458e-09 1.42978e-08 7.92164e-08 4.09171e-07 1.9626e-06 8.70214e-06 3.54793e-05 0.000132169 0.000446486 0.00135573 0.00366469 0.0087428 0.0183243 0.0337496 0.0550708 0.0809406 0.109487 0.13926 0.169483 0.199811 0.2301 0.260314 0.290422 0.3204 0.350231 0.379899 0.409393 0.4387 0.467808 0.496706 0.525381 0.553816 0.581995 0.609894 0.637484 0.664728 0.691579 0.717973 0.74383 0.769049 0.793498 0.817016 0.839402 0.860414 0.879765 0.897127 0.912138 0.924427 0.933659 0.939641 0.94217 0.941878 0.941147 0.940125 0.938933 0.937657 0.936378 0.935144 0.934003 0.93299 0.932118 0.931389 0.93079 0.930303 0.92991 0.929623 0.929143 0.926975 0.939445 0.953157 0.944513 0.933277 0.929305 0.928388 0.928161 0.928109 0.928107 0.928111 0.928099 0.92803 0.927815 0.927277 0.926068 0.923529 0.918451 0.908883 0.891721 0.862618 0.81635 0.747956 0.65473 0.53872 0.408714 0.279667 0.168126 0.0873921 0.0395624 0.0162045 0.00627896 0.00236676 0.000880094 0.000324694 0.000119078 4.34305e-05 1.57509e-05 5.67822e-06 2.03392e-06 7.23566e-07 2.5554e-07 8.9555e-08 3.11317e-08 1.07309e-08 3.6663e-09 1.24151e-09 4.15138e-10 1.37824e-10 4.63837e-11 1.49931e-11 4.74704e-12 7.02492e-13 -4.30451e-13 6.84682e-13 7.87164e-15 -5.58369e-13 -6.80332e-13 8.19483e-13 -7.39098e-13 2.30789e-13 2.39701e-13 -1.04234e-13 -3.98502e-13 3.3383e-13 -2.76649e-13 -2.49418e-13 -9.34147e-13 -7.57803e-13 1.27504e-13 -2.65181e-13 1.58056e-12 7.20879e-13 1.22973e-13 -7.67543e-13 8.02029e-13 -2.75328e-13 0
				</DataArray>
				<DataArray Name="VitesseY" type="Float32" format="ascii">