<?xml version="1.0"?>
<VTKFile type="PolyData">
	<PolyData>
		<Piece NumberOfPoints="1206" NumberOfPolys="1000">
			<Points>
				<DataArray type="Float32" NumberOfComponents="3" format="ascii">
 0 0 0 0.005 0 0 0.01 0 0 0.015 0 0 0.02 0 0 0.025 0 0 0.03 0 0 0.035 0 0 0.04 0 0 0.045 0 0 0.05 0 0 0.055 0 0 0.06 0 0 0.065 0 0 0.07 0 0 0.075 0 0 0.08 0 0 0.085 0 0 0.09 0 0 0.095 0 0 0.1 0 0 0.105 0 0 0.11 0 0 0.115 0 0 0.12 0 0 0.125 0 0 0.13 0 0 0.135 0 0 0.14 0 0 0.145 0 0 0.15 0 0 0.155 0 0 0.16 0 0 0.165 0 0 0.17 0 0 0.175 0 0 0.18 0 0 0.185 0 0 0.19 0 0 0.195 0 0 0.2 0 0 0.205 0 0 0.21 0 0 0.215 0 0 0.22 0 0 0.225 0 0 0.23 0 0 0.235 0 0 0.24 0 0 0.245 0 0 0.25 0 0 0.255 0 0 0.26 0 0 0.265 0 0 0.27 0 0 0.275 0 0 0.28 0 0 0.285 0 0 0.29 0 0 0.295 0 0 0.3 0 0 0.305 0 0 0.31 0 0 0.315 0 0 0.32 0 0 0.325 0 0 0.33 0 0 0.335 0 0 0.34 0 0 0.345 0 0 0.35 0 0 0.355 0 0 0.36 0 0 0.365 0 0 0.37 0 0 0.375 0 0 0.38 0 0 0.385 0 0 0.39 0 0 0.395 0 0 0.4 0 0 0.405 0 0 0.41 0 0 0.415 0 0 0.42 0 0 0.425 0 0 0.43 0 0 0.435 0 0 0.44 0 0 0.445 0 0 0.45 0 0 0.455 0 0 0.46 0 0 0.465 0 0 0.47 0 0 0.475 0 0 0.48 0 0 0.485 0 0 0.49 0 0 0.495 0 0 0.5 0 0 0.505 0 0 0.51 0 0 0.515 0 0 0.52 0 0 0.525 0 0 0.53 0 0 0.535 0 0 0.54 0 0 0.545 0 0 0.55 0 0 0.555 0 0 0.56 0 0 0.565 0 0 0.57 0 0 0.575 0 0 0.58 0 0 0.585 0 0 0.59 0 0 0.595 0 0 0.6 0 0 0.605 0 0 0.61 0 0 0.615 0 0 0.62 0 0 0.625 0 0 0.63 0 0 0.635 0 0 0.64 0 0 0.645 0 0 0.65 0 0 0.655 0 0 0.66 0 0 0.665 0 0 0.67 0 0 0.675 0 0 0.68 0 0 0.685 0 0 0.69 0 0 0.695 0 0 0.7 0 0 0.705 0 0 0.71 0 0 0.715 0 0 0.72 0 0 0.725 0 0 0.73 0 0 0.735 0 0 0.74 0 0 0.745 0 0 0.75 0 0 0.755 0 0 0.76 0 0 0.765 0 0 0.77 0 0 0.775 0 0 0.78 0 0 0.785 0 0 0.79 0 0 0.795 0 0 0.8 0 0 0.805 0 0 0.81 0 0 0.815 0 0 0.82 0 0 0.825 0 0 0.83 0 0 0.835 0 0 0.84 0 0 0.845 0 0 0.85 0 0 0.855 0 0 0.86 0 0 0.865 0 0 0.87 0 0 0.875 0 0 0.88 0 0 0.885 0 0 0.89 0 0 0.895 0 0 0.9 0 0 0.905 0 0 0.91 0 0 0.915 0 0 0.92 0 0 0.925 0 0 0.93 0 0 0.935 0 0 0.94 0 0 0.945 0 0 0.95 0 0 0.955 0 0 0.96 0 0 0.965 0 0 0.97 0 0 0.975 0 0 0.98 0 0 0.985 0 0 0.99 0 0 0.995 0 0 1 0 0 0 0.02 0 0.005 0.02 0 0.01 0.02 0 0.015 0.02 0 0.02 0.02 0 0.025 0.02 0 0.03 0.02 0 0.035 0.02 0 0.04 0.02 0 0.045 0.02 0 0.05 0.02 0 0.055 0.02 0 0.06 0.02 0 0.065 0.02 0 0.07 0.02 0 0.075 0.02 0 0.08 0.02 0 0.085 0.02 0 0.09 0.02 0 0.095 0.02 0 0.1 0.02 0 0.105 0.02 0 0.11 0.02 0 0.115 0.02 0 0.12 0.02 0 0.125 0.02 0 0.13 0.02 0 0.135 0.02 0 0.14 0.02 0 0.145 0.02 0 0.15 0.02 0 0.155 0.02 0 0.16 0.02 0 0.165 0.02 0 0.17 0.02 0 0.175 0.02 0 0.18 0.02 0 0.185 0.02 0 0.19 0.02 0 0.195 0.02 0 0.2 0.02 0 0.205 0.02 0 0.21 0.02 0 0.215 0.02 0 0.22 0.02 0 0.225 0.02 0 0.23 0.02 0 0.235 0.02 0 0.24 0.02 0 0.245 0.02 0 0.25 0.02 0 0.255 0.02 0 0.26 0.02 0 0.265 0.02 0 0.27 0.02 0 0.275 0.02 0 0.28 0.02 0 0.285 0.02 0 0.29 0.02 0 0.295 0.02 0 0.3 0.02 0 0.305 0.02 0 0.31 0.02 0 0.315 0.02 0 0.32 0.02 0 0.325 0.02 0 0.33 0.02 0 0.335 0.02 0 0.34 0.02 0 0.345 0.02 0 0.35 0.02 0 0.355 0.02 0 0.36 0.02 0 0.365 0.02 0 0.37 0.02 0 0.375 0.02 0 0.38 0.02 0 0.385 0.02 0 0.39 0.02 0 0.395 0.02 0 0.4 0.02 0 0.405 0.02 0 0.41 0.02 0 0.415 0.02 0 0.42 0.02 0 0.425 0.02 0 0.43 0.02 0 0.435 0.02 0 0.44 0.02 0 0.445 0.02 0 0.45 0.02 0 0.455 0.02 0 0.46 0.02 0 0.465 0.02 0 0.47 0.02 0 0.475 0.02 0 0.48 0.02 0 0.485 0.02 0 0.49 0.02 0 0.495 0.02 0 0.5 0.02 0 0.505 0.02 0 0.51 0.02 0 0.515 0.02 0 0.52 0.02 0 0.525 0.02 0 0.53 0.02 0 0.535 0.02 0 0.54 0.02 0 0.545 0.02 0 0.55 0.02 0 0.555 0.02 0 0.56 0.02 0 0.565 0.02 0 0.57 0.02 0 0.575 0.02 0 0.58 0.02 0 0.585 0.02 0 0.59 0.02 0 0.595 0.02 0 0.6 0.02 0 0.605 0.02 0 0.61 0.02 0 0.615 0.02 0 0.62 0.02 0 0.625 0.02 0 0.63 0.02 0 0.635 0.02 0 0.64 0.02 0 0.645 0.02 0 0.65 0.02 0 0.655 0.02 0 0.66 0.02 0 0.665 0.02 0 0.67 0.02 0 0.675 0.02 0 0.68 0.02 0 0.685 0.02 0 0.69 0.02 0 0.695 0.02 0 0.7 0.02 0 0.705 0.02 0 0.71 0.02 0 0.715 0.02 0 0.72 0.02 0 0.725 0.02 0 0.73 0.02 0 0.735 0.02 0 0.74 0.02 0 0.745 0.02 0 0.75 0.02 0 0.755 0.02 0 0.76 0.02 0 0.765 0.02 0 0.77 0.02 0 0.775 0.02 0 0.78 0.02 0 0.785 0.02 0 0.79 0.02 0 0.795 0.02 0 0.8 0.02 0 0.805 0.02 0 0.81 0.02 0 0.815 0.02 0 0.82 0.02 0 0.825 0.02 0 0.83 0.02 0 0.835 0.02 0 0.84 0.02 0 0.845 0.02 0 0.85 0.02 0 0.855 0.02 0 0.86 0.02 0 0.865 0.02 0 0.87 0.02 0 0.875 0.02 0 0.88 0.02 0 0.885 0.02 0 0.89 0.02 0 0.895 0.02 0 0.9 0.02 0 0.905 0.02 0 0.91 0.02 0 0.915 0.02 0 0.92 0.02 0 0.925 0.02 0 0.93 0.02 0 0.935 0.02 0 0.94 0.02 0 0.945 0.02 0 0.95 0.02 0 0.955 0.02 0 0.96 0.02 0 0.965 0.02 0 0.97 0.02 0 0.975 0.02 0 0.98 0.02 0 0.985 0.02 0 0.99 0.02 0 0.995 0.02 0 1 0.02 0 0 0.04 0 0.005 0.04 0 0.01 0.04 0 0.015 0.04 0 0.02 0.04 0 0.025 0.04 0 0.03 0.04 0 0.035 0.04 0 0.04 0.04 0 0.045 0.04 0 0.05 0.04 0 0.055 0.04 0 0.06 0.04 0 0.065 0.04 0 0.07 0.04 0 0.075 0.04 0 0.08 0.04 0 0.085 0.04 0 0.09 0.04 0 0.095 0.04 0 0.1 0.04 0 0.105 0.04 0 0.11 0.04 0 0.115 0.04 0 0.12 0.04 0 0.125 0.04 0 0.13 0.04 0 0.135 0.04 0 0.14 0.04 0 0.145 0.04 0 0.15 0.04 0 0.155 0.04 0 0.16 0.04 0 0.165 0.04 0 0.17 0.04 0 0.175 0.04 0 0.18 0.04 0 0.185 0.04 0 0.19 0.04 0 0.195 0.04 0 0.2 0.04 0 0.205 0.04 0 0.21 0.04 0 0.215 0.04 0 0.22 0.04 0 0.225 0.04 0 0.23 0.04 0 0.235 0.04 0 0.24 0.04 0 0.245 0.04 0 0.25 0.04 0 0.255 0.04 0 0.26 0.04 0 0.265 0.04 0 0.27 0.04 0 0.275 0.04 0 0.28 0.04 0 0.285 0.04 0 0.29 0.04 0 0.295 0.04 0 0.3 0.04 0 0.305 0.04 0 0.31 0.04 0 0.315 0.04 0 0.32 0.04 0 0.325 0.04 0 0.33 0.04 0 0.335 0.04 0 0.34 0.04 0 0.345 0.04 0 0.35 0.04 0 0.355 0.04 0 0.36 0.04 0 0.365 0.04 0 0.37 0.04 0 0.375 0.04 0 0.38 0.04 0 0.385 0.04 0 0.39 0.04 0 0.395 0.04 0 0.4 0.04 0 0.405 0.04 0 0.41 0.04 0 0.415 0.04 0 0.42 0.04 0 0.425 0.04 0 0.43 0.04 0 0.435 0.04 0 0.44 0.04 0 0.445 0.04 0 0.45 0.04 0 0.455 0.04 0 0.46 0.04 0 0.465 0.04 0 0.47 0.04 0 0.475 0.04 0 0.48 0.04 0 0.485 0.04 0 0.49 0.04 0 0.495 0.04 0 0.5 0.04 0 0.505 0.04 0 0.51 0.04 0 0.515 0.04 0 0.52 0.04 0 0.525 0.04 0 0.53 0.04 0 0.535 0.04 0 0.54 0.04 0 0.545 0.04 0 0.55 0.04 0 0.555 0.04 0 0.56 0.04 0 0.565 0.04 0 0.57 0.04 0 0.575 0.04 0 0.58 0.04 0 0.585 0.04 0 0.59 0.04 0 0.595 0.04 0 0.6 0.04 0 0.605 0.04 0 0.61 0.04 0 0.615 0.04 0 0.62 0.04 0 0.625 0.04 0 0.63 0.04 0 0.635 0.04 0 0.64 0.04 0 0.645 0.04 0 0.65 0.04 0 0.655 0.04 0 0.66 0.04 0 0.665 0.04 0 0.67 0.04 0 0.675 0.04 0 0.68 0.04 0 0.685 0.04 0 0.69 0.04 0 0.695 0.04 0 0.7 0.04 0 0.705 0.04 0 0.71 0.04 0 0.715 0.04 0 0.72 0.04 0 0.725 0.04 0 0.73 0.04 0 0.735 0.04 0 0.74 0.04 0 0.745 0.04 0 0.75 0.04 0 0.755 0.04 0 0.76 0.04 0 0.765 0.04 0 0.77 0.04 0 0.775 0.04 0 0.78 0.04 0 0.785 0.04 0 0.79 0.04 0 0.795 0.04 0 0.8 0.04 0 0.805 0.04 0 0.81 0.04 0 0.815 0.04 0 0.82 0.04 0 0.825 0.04 0 0.83 0.04 0 0.835 0.04 0 0.84 0.04 0 0.845 0.04 0 0.85 0.04 0 0.855 0.04 0 0.86 0.04 0 0.865 0.04 0 0.87 0.04 0 0.875 0.04 0 0.88 0.04 0 0.885 0.04 0 0.89 0.04 0 0.895 0.04 0 0.9 0.04 0 0.905 0.04 0 0.91 0.04 0 0.915 0.04 0 0.92 0.04 0 0.925 0.04 0 0.93 0.04 0 0.935 0.04 0 0.94 0.04 0 0.945 0.04 0 0.95 0.04 0 0.955 0.04 0 0.96 0.04 0 0.965 0.04 0 0.97 0.04 0 0.975 0.04 0 0.98 0.04 0 0.985 0.04 0 0.99 0.04 0 0.995 0.04 0 1 0.04 0 0 0.06 0 0.005 0.06 0 0.01 0.06 0 0.015 0.06 0 0.02 0.06 0 0.025 0.06 0 0.03 0.06 0 0.035 0.06 0 0.04 0.06 0 0.045 0.06 0 0.05 0.06 0 0.055 0.06 0 0.06 0.06 0 0.065 0.06 0 0.07 0.06 0 0.075 0.06 0 0.08 0.06 0 0.085 0.06 0 0.09 0.06 0 0.095 0.06 0 0.1 0.06 0 0.105 0.06 0 0.11 0.06 0 0.115 0.06 0 0.12 0.06 0 0.125 0.06 0 0.13 0.06 0 0.135 0.06 0 0.14 0.06 0 0.145 0.06 0 0.15 0.06 0 0.155 0.06 0 0.16 0.06 0 0.165 0.06 0 0.17 0.06 0 0.175 0.06 0 0.18 0.06 0 0.185 0.06 0 0.19 0.06 0 0.195 0.06 0 0.2 0.06 0 0.205 0.06 0 0.21 0.06 0 0.215 0.06 0 0.22 0.06 0 0.225 0.06 0 0.23 0.06 0 0.235 0.06 0 0.24 0.06 0 0.245 0.06 0 0.25 0.06 0 0.255 0.06 0 0.26 0.06 0 0.265 0.06 0 0.27 0.06 0 0.275 0.06 0 0.28 0.06 0 0.285 0.06 0 0.29 0.06 0 0.295 0.06 0 0.3 0.06 0 0.305 0.06 0 0.31 0.06 0 0.315 0.06 0 0.32 0.06 0 0.325 0.06 0 0.33 0.06 0 0.335 0.06 0 0.34 0.06 0 0.345 0.06 0 0.35 0.06 0 0.355 0.06 0 0.36 0.06 0 0.365 0.06 0 0.37 0.06 0 0.375 0.06 0 0.38 0.06 0 0.385 0.06 0 0.39 0.06 0 0.395 0.06 0 0.4 0.06 0 0.405 0.06 0 0.41 0.06 0 0.415 0.06 0 0.42 0.06 0 0.425 0.06 0 0.43 0.06 0 0.435 0.06 0 0.44 0.06 0 0.445 0.06 0 0.45 0.06 0 0.455 0.06 0 0.46 0.06 0 0.465 0.06 0 0.47 0.06 0 0.475 0.06 0 0.48 0.06 0 0.485 0.06 0 0.49 0.06 0 0.495 0.06 0 0.5 0.06 0 0.505 0.06 0 0.51 0.06 0 0.515 0.06 0 0.52 0.06 0 0.525 0.06 0 0.53 0.06 0 0.535 0.06 0 0.54 0.06 0 0.545 0.06 0 0.55 0.06 0 0.555 0.06 0 0.56 0.06 0 0.565 0.06 0 0.57 0.06 0 0.575 0.06 0 0.58 0.06 0 0.585 0.06 0 0.59 0.06 0 0.595 0.06 0 0.6 0.06 0 0.605 0.06 0 0.61 0.06 0 0.615 0.06 0 0.62 0.06 0 0.625 0.06 0 0.63 0.06 0 0.635 0.06 0 0.64 0.06 0 0.645 0.06 0 0.65 0.06 0 0.655 0.06 0 0.66 0.06 0 0.665 0.06 0 0.67 0.06 0 0.675 0.06 0 0.68 0.06 0 0.685 0.06 0 0.69 0.06 0 0.695 0.06 0 0.7 0.06 0 0.705 0.06 0 0.71 0.06 0 0.715 0.06 0 0.72 0.06 0 0.725 0.06 0 0.73 0.06 0 0.735 0.06 0 0.74 0.06 0 0.745 0.06 0 0.75 0.06 0 0.755 0.06 0 0.76 0.06 0 0.765 0.06 0 0.77 0.06 0 0.775 0.06 0 0.78 0.06 0 0.785 0.06 0 0.79 0.06 0 0.795 0.06 0 0.8 0.06 0 0.805 0.06 0 0.81 0.06 0 0.815 0.06 0 0.82 0.06 0 0.825 0.06 0 0.83 0.06 0 0.835 0.06 0 0.84 0.06 0 0.845 0.06 0 0.85 0.06 0 0.855 0.06 0 0.86 0.06 0 0.865 0.06 0 0.87 0.06 0 0.875 0.06 0 0.88 0.06 0 0.885 0.06 0 0.89 0.06 0 0.895 0.06 0 0.9 0.06 0 0.905 0.06 0 0.91 0.06 0 0.915 0.06 0 0.92 0.06 0 0.925 0.06 0 0.93 0.06 0 0.935 0.06 0 0.94 0.06 0 0.945 0.06 0 0.95 0.06 0 0.955 0.06 0 0.96 0.06 0 0.965 0.06 0 0.97 0.06 0 0.975 0.06 0 0.98 0.06 0 0.985 0.06 0 0.99 0.06 0 0.995 0.06 0 1 0.06 0 0 0.08 0 0.005 0.08 0 0.01 0.08 0 0.015 0.08 0 0.02 0.08 0 0.025 0.08 0 0.03 0.08 0 0.035 0.08 0 0.04 0.08 0 0.045 0.08 0 0.05 0.08 0 0.055 0.08 0 0.06 0.08 0 0.065 0.08 0 0.07 0.08 0 0.075 0.08 0 0.08 0.08 0 0.085 0.08 0 0.09 0.08 0 0.095 0.08 0 0.1 0.08 0 0.105 0.08 0 0.11 0.08 0 0.115 0.08 0 0.12 0.08 0 0.125 0.08 0 0.13 0.08 0 0.135 0.08 0 0.14 0.08 0 0.145 0.08 0 0.15 0.08 0 0.155 0.08 0 0.16 0.08 0 0.165 0.08 0
[...]
			<PointData Scalars="VitesseX">
				<DataArray Name="VitesseX" type="Float32" format="ascii">
 0 -3.8065e-16 1.58298e-14 3.31255e-15 -6.1834e-15 -7.65378e-15 6.28595e-15 -4.51927e-14 -2.13724e-14 -1.90841e-14 -5.04682e-15 2.19296e-14 -3.718e-14 4.42361e-14 -3.15409e-14 -2.68898e-14 6.15942e-15 -4.88464e-14 3.17178e-14 -1.14223e-13 7.88712e-14 -9.51021e-14 3.1463e-14 -8.00645e-14 -6.94552e-14 -1.20321e-13 -1.81126e-13 3.71311e-14 -9.53461e-14 -6.10844e-14 -7.85382e-14 9.30625e-14 7.86702e-14 -5.94927e-14 -3.31121e-14 -2.24799e-13 3.02264e-14 -1.93597e-13 -2.16619e-13 -1.63647e-13 -1.35856e-13 -3.88869e-14 -1.81918e-13 -7.09042e-14 -6.02789e-14 -4.23922e-14 -1.07874e-13 3.80207e-14 -2.74038e-14 -7.53662e-14 3.85579e-14 9.3233e-14 8.54748e-13 8.04265e-12 5.71014e-11 3.82615e-10 2.41401e-09 1.42977e-08 7.92164e-08 4.09171e-07 1.9626e-06 8.70214e-06 3.54793e-05 0.000132169 0.000446486 0.00135573 0.00366469 0.0087428 0.0183243 0.0337496 0.0550708 0.0809406 0.109487 0.13926 0.169483 0.199811 0.2301 0.260314 0.290422 0.3204 0.350231 0.379899 0.409393 0.4387 0.467808 0.496706 0.525381 0.553816 0.581995 0.609894 0.637484 0.664728 0.691579 0.717973 0.74383 0.769049 0.793498 0.817016 0.839402 0.860414 0.879765 0.897127 0.912138 0.924427 0.933659 0.939641 0.94217 0.941878 0.941147 0.940125 0.938933 0.937657 0.936378 0.935144 0.934003 0.93299 0.932118 0.931389 0.93079 0.930303 0.92991 0.929623 0.929143 0.926975 0.939445 0.953157 0.944513 0.933277 0.929305 0.928388 0.928161 0.928109 0.928107 0.928111 0.928099 0.92803 0.927815 0.927277 0.926068 0.923529 0.918451 0.908883 0.891721 0.862618 0.81635 0.747956 0.65473 0.53872 0.408714 0.279667 0.168126 0.0873921 0.0395624 0.0162045 0.00627896 0.00236676 0.000880094 0.000324694 0.000119078 4.34305e-05 1.57509e-05 5.67822e-06 2.03392e-06 7.23565e-07 2.55539e-07 8.9555e-08 3.11314e-08 1.07305e-08 3.66618e-09 1.24149e-09 4.1603e-10 1.3825e-10 4.52548e-11 1.40075e-11 4.57196e-12 1.39257e-12 -3.88907e-13 -1.31935e-14 -2.30597e-13 -4.61275e-13 -2.83597e-13 -2.58082e-13 -2.90191e-13 2.30144e-13 9.98175e-14 -1.14101e-13 2.60609e-13 -1.07213e-13 1.13705e-13 -1.5624e-13 3.60002e-13 -4.42993e-13 5.90152e-13 -3.39854e-13 2.21366e-13 2.38901e-13 6.06339e-13 1.04788e-13 -2.40477e-13 5.54672e-13 0 0 1.34466e-14 5.33722e-15 1.0014e-14 7.03785e-15 -1.36433e-14 -1.03168e-14 -1.57214e-14 -1.91747e-14 -1.40352e-14 -3.02882e-15 -3.4687e-14 3.28252e-14 -4.99872e-14 -2.08657e-14 1.26586e-14 1.76857e-14 -2.22805e-14 -9.25367e-14 4.82816e-14 -1.46295e-13 7.32757e-14 -3.92757e-14 -1.24652e-13 -7.02523e-14 -2.52488e-14 -5.43656e-14 -2.3296e-13 -5.29788e-14 5.28893e-16 5.27109e-14 -5.35713e-14 -1.83626e-15 -4.45508e-14 -6.30358e-14 -7.02336e-14 -7.47001e-14 -1.18851e-13 -1.23386e-13 -1.49412e-13 -8.16113e-14 -2.74613e-13 1.26526e-13 -2.41175e-14 -9.32772e-14 -9.34398e-14 -5.46574e-14 -2.14662e-13 1.08945e-13 1.52872e-13 -9.24471e-14 1.1544e-13 1.01317e-12 8.02382e-12 5.68803e-11 3.82608e-10 2.41418e-09 1.42976e-08 7.92168e-08 4.09171e-07 1.9626e-06 8.70214e-06 3.54793e-05 0.000132169 0.000446486 0.00135573 0.00366469 0.0087428 0.0183243 0.0337496 0.0550708 0.0809406 0.109487 0.13926 0.169483 0.199811 0.2301 0.260314 0.290422 0.3204 0.350231 0.379899 0.409393 0.4387 0.467808 0.496706 0.525381 0.553816 0.581995 0.609894 0.637484 0.664728 0.691579 0.717973 0.74383 0.769049 0.793498 0.817016 0.839402 0.860414 0.879765 0.897127 0.912138 0.924427 0.933659 0.939641 0.94217 0.941878 0.941147 0.940125 0.938933 0.937657 0.936378 0.935144 0.934003 0.93299 0.932118 0.931389 0.93079 0.930303 0.92991 0.929623 0.929143 0.926975 0.939445 0.953157 0.944513 0.933277 0.929305 0.928388 0.928161 0.928109 0.928107 0.928111 0.928099 0.92803 0.927815 0.927277 0.926068 0.923529 0.918451 0.908883 0.891721 0.862618 0.81635 0.747956 0.65473 0.53872 0.408714 0.279667 0.168126 0.0873921 0.0395624 0.0162045 0.00627896 0.00236676 0.000880094 0.000324694 0.000119078 4.34305e-05 1.57509e-05 5.67822e-06 2.03392e-06 7.23565e-07 2.55539e-07 8.9555e-08 3.11317e-08 1.07309e-08 3.66632e-09 1.24089e-09 4.16226e-10 1.38027e-10 4.50662e-11 1.48878e-11 4.05294e-12 8.21639e-13 2.62766e-13 -4.98158e-13 -6.60725e-14 -2.62555e-13 -1.71465e-15 -5.40944e-13 -7.76267e-14 -2.19401e-13 -1.90342e-13 3.65662e-13 9.16664e-14 -6.01507e-14 1.87102e-13 7.18443e-14 -2.32216e-13 2.74689e-13 -3.7941e-13 9.43572e-13 1.79169e-13 1.31075e-13 -3.1258e-15 4.4909e-14 -1.0698e-13 -4.28243e-13 0 0 1.49174e-14 1.79542e-14 9.63719e-15 9.40513e-15 1.20519e-14 -7.47999e-16 -2.41519e-14 1.09091e-14 9.83787e-15 -2.38387e-14 -1.57629e-14 -1.8059e-15 -3.91561e-14 -3.99703e-14 -4.94294e-14 -4.37744e-14 2.26913e-15 2.4601e-14 -9.90152e-14 2.33769e-15 -8.41518e-14 -1.50923e-13 -3.81058e-14 1.34077e-14 -7.63779e-14 -1.30185e-13 -4.18354e-15 -1.6675e-13 -4.30749e-15 5.90703e-14 -7.05764e-14 -8.59725e-15 -5.74687e-14 -2.82612e-14 -2.71015e-13 -6.12952e-14 8.48399e-14 -8.04942e-14 -1.09374e-13 -1.06516e-13 1.65076e-15 -1.45113e-13 -9.59815e-16 -9.46241e-14 -2.36486e-14 -5.62737e-14 -1.21465e-13 -5.34242e-16 1.09707e-14 -3.85692e-14 1.35005e-13 1.20402e-12 7.88138e-12 5.71461e-11 3.823e-10 2.41435e-09 1.42978e-08 7.92166e-08 4.09171e-07 1.9626e-06 8.70214e-06 3.54793e-05 0.000132169 0.000446486 0.00135573 0.00366469 0.0087428 0.0183243 0.0337496 0.0550708 0.0809406 0.109487 0.13926 0.169483 0.199811 0.2301 0.260314 0.290422 0.3204 0.350231 0.379899 0.409393 0.4387 0.467808 0.496706 0.525381 0.553816 0.581995 0.609894 0.637484 0.664728 0.691579 0.717973 0.74383 0.769049 0.793498 0.817016 0.839402 0.860414 0.879765 0.897127 0.912138 0.924427 0.933659 0.939641 0.94217 0.941878 0.941147 0.940125 0.938933 0.937657 0.936378 0.935144 0.934003 0.93299 0.932118 0.931389 0.93079 0.930303 0.92991 0.929623 0.929143 0.926975 0.939445 0.953157 0.944513 0.933277 0.929305 0.928388 0.928161 0.928109 0.928107 0.928111 0.928099 0.92803 0.927815 0.927277 0.926068 0.923529 0.918451 0.908883 0.891721 0.862618 0.81635 0.747956 0.65473 0.53872 0.408714 0.279667 0.168126 0.0873921 0.0395624 0.0162045 0.00627896 0.00236676 0.000880094 0.000324694 0.000119078 4.34305e-05 1.57509e-05 5.67822e-06 2.03392e-06 7.23565e-07 2.55539e-07 8.9555e-08 3.11315e-08 1.07308e-08 3.66637e-09 1.24113e-09 4.16217e-10 1.37983e-10 4.5332e-11 1.4458e-11 4.44944e-12 9.04296e-13 1.1419e-13 -3.61795e-13 -3.7023e-13 -8.7378e-14 -3.28622e-14 -2.61085e-13 -3.83586e-13 1.61327e-14 -1.93975e-13 6.50279e-13 -2.75257e-13 -2.46705e-13 -2.49703e-13 3.71577e-13 1.22241e-13 8.91193e-14 1.23232e-13 -1.79718e-13 7.6017e-13 1.60076e-13 3.18284e-15 1.85761e-13 6.59009e-13 1.72283e-13 0 0 6.36957e-15 2.34317e-14 1.83887e-14 -5.20338e-15 7.53834e-15 3.07671e-14 -1.69659e-16 -1.1635e-14 2.47043e-14 1.52653e-14 2.66744e-14 -3.66188e-15 -7.01023e-14 -9.28415e-14 -4.27403e-14 -8.72643e-14 -5.05706e-14 3.38479e-14 -1.56711e-13 4.70184e-14 -1.38068e-13 -7.39869e-14 -1.7021e-14 -8.8528e-14 -9.74351e-15 -1.12353e-13 -3.17937e-14 -3.67131e-14 2.26698e-14 -6.04161e-14 -6.03162e-14 -2.49956e-14 -1.64178e-15 1.25984e-14 -1.3712e-13 -1.80005e-13 -1.13109e-13 -1.16398e-13 7.01869e-14 -8.03603e-14 -1.37599e-13 -2.04057e-13 -3.88915e-14 -1.23443e-13 -1.01222e-13 -1.5937e-14 8.46694e-14 4.05253e-14 -9.67508e-14 1.11543e-14 -4.01978e-14 1.22277e-12 7.97324e-12 5.72383e-11 3.82565e-10 2.41403e-09 1.42978e-08 7.92166e-08 4.09171e-07 1.9626e-06 8.70214e-06 3.54793e-05 0.000132169 0.000446486 0.00135573 0.00366469 0.0087428 0.0183243 0.0337496 0.0550708 0.0809406 0.109487 0.13926 0.169483 0.199811 0.2301 0.260314 0.290422 0.3204 0.350231 0.379899 0.409393 0.4387 0.467808 0.496706 0.525381 0.553816 0.581995 0.609894 0.637484 0.664728 0.691579 0.717973 0.74383 0.769049 0.793498 0.817016 0.839402 0.860414 0.879765 0.897127 0.912138 0.924427 0.933659 0.939641 0.94217 0.941878 0.941147 0.940125 0.938933 0.937657 0.936378 0.935144 0.934003 0.93299 0.932118 0.931389 0.93079 0.930303 0.92991 0.929623 0.929143 0.926975 0.939445 0.953157 0.944513 0.933277 0.929305 0.928388 0.928161 0.928109 0.928107 0.928111 0.928099 0.92803 0.927815 0.927277 0.926068 0.923529 0.918451 0.908883 0.891721 0.862618 0.81635 0.747956 0.65473 0.53872 0.408714 0.279667 0.168126 0.0873921 0.0395624 0.0162045 0.00627896 0.00236676 0.000880094 0.000324694 0.000119078 4.34305e-05 1.57509e-05 5.67822e-06 2.03392e-06 7.23565e-07 2.55539e-07 8.95549e-08 3.11316e-08 1.07308e-08 3.66624e-09 1.24148e-09 4.16208e-10 1.38248e-10 4.5122e-11 1.42903e-11 4.70248e-12 1.63477e-12 -1.13374e-13 -2.10034e-13 -4.27175e-13 -3.63859e-13 -2.24844e-13 -2.0317e-13 2.49122e-13 -3.2621e-13 5.92927e-14 1.75847e-13 4.92578e-14 -2.88243e-13 -1.86023e-13 2.39234e-13 3.0446e-13 2.03237e-13 6.79735e-13 -7.40155e-13 -2.48433e-13 -2.61774e-13 5.94675e-13 5.94706e-13 1.26703e-13 3.63192e-13 0 0 8.72822e-15 9.25807e-15 3.23179e-14 1.21742e-14 1.52478e-14 7.73058e-15 1.57143e-14 -1.76772e-14 1.45225e-14 2.00853e-14 -1.04871e-14 1.56864e-14 -1.10024e-13 -6.98491e-14 -6.71705e-14 -7.84514e-15 -4.0354e-14 -9.18846e-14 -1.67342e-14 -1.50859e-13 3.38465e-14 -3.61286e-15 -1.17913e-13 -1.43505e-13 5.59136e-14 8.04017e-14 -2.49832e-13 3.78439e-14 7.81208e-14 8.51022e-15 -1.74255e-14 -2.44894e-14 4.67312e-14 -3.3734e-14 1.55361e-14 -3.48718e-13 -1.37218e-13 -1.42394e-13 -4.32147e-14 -5.32433e-14 -3.89503e-13 -2.04345e-14 -5.74137e-14 -1.31515e-13 -1.27129e-14 3.73418e-14 -5.96221e-14 6.80368e-14 -2.56419e-15 -1.27852e-13 8.46896e-14 1.18417e-12 8.16554e-12 5.7034e-11 3.82823e-10 2.41415e-09 1.42977e-08 7.92168e-08 4.09171e-07 1.9626e-06 8.70214e-06 3.54793e-05 0.000132169 0.000446486 0.00135573 0.00366469 0.0087428 0.0183243 0.0337496 0.0550708 0.0809406 0.109487 0.13926 0.169483 0.199811 0.2301 0.260314 0.290422 0.3204 0.350231 0.379899 0.409393 0.4387 0.467808 0.496706 0.525381 0.553816 0.581995 0.609894 0.637484 0.664728 0.691579 0.717973 0.74383 0.769049 0.793498 0.817016 0.839402 0.860414 0.879765 0.897127 0.912138 0.924427 0.933659 0.939641 0.94217 0.941878 0.941147 0.940125 0.938933 0.937657 0.936378 0.935144 0.934003 0.93299 0.932118 0.931389 0.93079 0.930303 0.92991 0.929623 0.929143 0.926975 0.939445 0.953157 0.944513 0.933277 0.929305 0.928388 0.928161 0.928109 0.928107 0.928111 0.928099 0.92803 0.927815 0.927277 0.926068 0.923529 0.918451 0.908883 0.891721 0.862618 0.81635 0.747956 0.65473 0.53872 0.408714 0.279667 0.168126 0.0873921 0.0395624 0.0162045 0.00627896 0.00236676 0.000880094 0.000324694 0.000119078 4.34305e-05 1.57509e-05 5.67822e-06 2.03392e-06 7.23565e-07 2.55539e-07 8.95549e-08 3.11317e-08 1.07311e-08 3.66625e-09 1.24123e-09 4.16316e-10 1.38154e-10 4.5154e-11 1.48642e-11 4.42194e-12 1.2228e-12 2.30571e-13 -2.3913e-13 1.0271e-13 -1.79316e-13 -5.34334e-14 -4.00119e-13 8.25687e-14 -2.90059e-13 -2.2081e-13 -1.53271e-13 1.20559e-13 -3.6717e-13 1.88921e-13 -2.68184e-13 -2.98267e-13 2.27994e-13 1.96924e-14 5.44008e-13 -3.41025e-13 -4.24909e-14 2.96318e-13 2.42654e-13 -1.73834e-13 -6.53702e-13 0 0 7.27825e-15 1.27164e-14 3.04173e-14 3.33063e-14 5.91555e-14 -2.06495e-14 -3.02859e-14 2.67109e-14 8.29843e-15 -3.70266e-14 -1.45452e-14 -6.77455e-14 -1.39456e-14 -2.37654e-14 -1.99926e-13 4.20775e-14 2.06861e-14 1.45281e-14 -1.28863e-13 -1.9617e-14 -6.61277e-14 -5.10839e-14 -1.08755e-13 -1.20884e-14 -9.1265e-14 5.27429e-14 5.86074e-14 -1.73775e-13 4.01447e-14 7.20331e-14 1.44834e-13 6.61606e-14 1.14173e-14 -5.62276e-14 -3.2105e-13 -2.80389e-13 1.65567e-13 -1.82829e-13 -3.10374e-13 -1.31432e-13 9.83225e-15 -3.5795e-13 -6.16332e-14 -7.91176e-14 2.74208e-13 -4.54925e-15 -6.41682e-14 -1.91339e-13 -1.70796e-13 -1.31699e-13 3.82137e-13 1.15924e-12 8.14237e-12 5.72243e-11 3.82515e-10 2.41459e-09 1.42978e-08 7.92164e-08 4.09171e-07 1.9626e-06 8.70214e-06 3.54793e-05 0.000132169 0.000446486 0.00135573 0.00366469 0.0087428 0.0183243 0.0337496 0.0550708 0.0809406 0.109487 0.13926 0.169483 0.199811 0.2301 0.260314 0.290422 0.3204 0.350231 0.379899 0.409393 0.4387 0.467808 0.496706 0.525381 0.553816 0.581995 0.609894 0.637484 0.664728 0.691579 0.717973 0.74383 0.769049 0.793498 0.817016 0.839402 0.860414 0.879765 0.897127 0.912138 0.924427 0.933659 0.939641 0.94217 0.941878 0.941147 0.940125 0.938933 0.937657 0.936378 0.935144 0.934003 0.93299 0.932118 0.931389 0.93079 0.930303 0.92991 0.929623 0.929143 0.926975 0.939445 0.953157 0.944513 0.933277 0.929305 0.928388 0.928161 0.928109 0.928107 0.928111 0.928099 0.92803 0.927815 0.927277 0.926068 0.923529 0.918451 0.908883 0.891721 0.862618 0.81635 0.747956 0.65473 0.53872 0.408714 0.279667 0.168126 0.0873921 0.0395624 0.0162045 0.00627896 0.00236676 0.000880094 0.000324694 0.000119078 4.34305e-05 1.57509e-05 5.67822e-06 2.03392e-06 7.23566e-07 2.55539e-07 8.95549e-08 3.11314e-08 1.07309e-08 3.6663e-09 1.24148e-09 4.16228e-10 1.37974e-10 4.58504e-11 1.42957e-11 4.80385e-12 7.33945e-13 1.82825e-15 2.0134e-13 2.20859e-13 2.58166e-13 -3.07045e-15 -9.22611e-14 -1.23522e-12 7.73515e-13 -4.67654e-13 -2.03104e-13 -3.30637e-13 -6.38175e-13 -1.00168e-14 -5.71612e-13 -1.36538e-13 -7.6462e-13 2.7535e-13 -1.81088e-14 1.19818e-12 7.3547e-13 2.2243e-14 -3.17612e-13 6.90426e-13 -2.78063e-13 0
				</DataArray>
				<DataArray Name="VitesseY" type="Float32" format="ascii">