<?xml version="1.0"?>
<VTKFile type="PolyData">
	<PolyData>
		<Piece NumberOfPoints="1206" NumberOfPolys="1000">
			<Points>
				<DataArray type="Float32" NumberOfComponents="3" format="ascii">
 0 0 0 0.005 0 0 0.01 0 0 0.015 0 0 0.02 0 0 0.025 0 0 0.03 0 0 0.035 0 0 0.04 0 0 0.045 0 0 0.05 0 0 0.055 0 0 0.06 0 0 0.065 0 0 0.07 0 0 0.075 0 0 0.08 0 0 0.085 0 0 0.09 0 0 0.095 0 0 0.1 0 0 0.105 0 0 0.11 0 0 0.115 0 0 0.12 0 0 0.125 0 0 0.13 0 0 0.135 0 0 0.14 0 0 0.145 0 0 0.15 0 0 0.155 0 0 0.16 0 0 0.165 0 0 0.17 0 0 0.175 0 0 0.18 0 0 0.185 0 0 0.19 0 0 0.195 0 0 0.2 0 0 0.205 0 0 0.21 0 0 0.215 0 0 0.22 0 0 0.225 0 0 0.23 0 0 0.235 0 0 0.24 0 0 0.245 0 0 0.25 0 0 0.255 0 0 0.26 0 0 0.265 0 0 0.27 0 0 0.275 0 0 0.28 0 0 0.285 0 0 0.29 0 0 0.295 0 0 0.3 0 0 0.305 0 0 0.31 0 0 0.315 0 0 0.32 0 0 0.325 0 0 0.33 0 0 0.335 0 0 0.34 0 0 0.345 0 0 0.35 0 0 0.355 0 0 0.36 0 0 0.365 0 0 0.37 0 0 0.375 0 0 0.38 0 0 0.385 0 0 0.39 0 0 0.395 0 0 0.4 0 0 0.405 0 0 0.41 0 0 0.415 0 0 0.42 0 0 0.425 0 0 0.43 0 0 0.435 0 0 0.44 0 0 0.445 0 0 0.45 0 0 0.455 0 0 0.46 0 0 0.465 0 0 0.47 0 0 0.475 0 0 0.48 0 0 0.485 0 0 0.49 0 0 0.495 0 0 0.5 0 0 0.505 0 0 0.51 0 0 0.515 0 0 0.52 0 0 0.525 0 0 0.53 0 0 0.535 0 0 0.54 0 0 0.545 0 0 0.55 0 0 0.555 0 0 0.56 0 0 0.565 0 0 0.57 0 0 0.575 0 0 0.58 0 0 0.585 0 0 0.59 0 0 0.595 0 0 0.6 0 0 0.605 0 0 0.61 0 0 0.615 0 0 0.62 0 0 0.625 0 0 0.63 0 0 0.635 0 0 0.64 0 0 0.645 0 0 0.65 0 0 0.655 0 0 0.66 0 0 0.665 0 0 0.67 0 0 0.675 0 0 0.68 0 0 0.685 0 0 0.69 0 0 0.695 0 0 0.7 0 0 0.705 0 0 0.71 0 0 0.715 0 0 0.72 0 0 0.725 0 0 0.73 0 0 0.735 0 0 0.74 0 0 0.745 0 0 0.75 0 0 0.755 0 0 0.76 0 0 0.765 0 0 0.77 0 0 0.775 0 0 0.78 0 0 0.785 0 0 0.79 0 0 0.795 0 0 0.8 0 0 0.805 0 0 0.81 0 0 0.815 0 0 0.82 0 0 0.825 0 0 0.83 0 0 0.835 0 0 0.84 0 0 0.845 0 0 0.85 0 0 0.855 0 0 0.86 0 0 0.865 0 0 0.87 0 0 0.875 0 0 0.88 0 0 0.885 0 0 0.89 0 0 0.895 0 0 0.9 0 0 0.905 0 0 0.91 0 0 0.915 0 0 0.92 0 0 0.925 0 0 0.93 0 0 0.935 0 0 0.94 0 0 0.945 0 0 0.95 0 0 0.955 0 0 0.96 0 0 0.965 0 0 0.97 0 0 0.975 0 0 0.98 0 0 0.985 0 0 0.99 0 0 0.995 0 0 1 0 0 0 0.02 0 0.005 0.02 0 0.01 0.02 0 0.015 0.02 0 0.02 0.02 0 0.025 0.02 0 0.03 0.02 0 0.035 0.02 0 0.04 0.02 0 0.045 0.02 0 0.05 0.02 0 0.055 0.02 0 0.06 0.02 0 0.065 0.02 0 0.07 0.02 0 0.075 0.02 0 0.08 0.02 0 0.085 0.02 0 0.09 0.02 0 0.095 0.02 0 0.1 0.02 0 0.105 0.02 0 0.11 0.02 0 0.115 0.02 0 0.12 0.02 0 0.125 0.02 0 0.13 0.02 0 0.135 0.02 0 0.14 0.02 0 0.145 0.02 0 0.15 0.02 0 0.155 0.02 0 0.16 0.02 0 0.165 0.02 0 0.17 0.02 0 0.175 0.02 0 0.18 0.02 0 0.185 0.02 0 0.19 0.02 0 0.195 0.02 0 0.2 0.02 0 0.205 0.02 0 0.21 0.02 0 0.215 0.02 0 0.22 0.02 0 0.225 0.02 0 0.23 0.02 0 0.235 0.02 0 0.24 0.02 0 0.245 0.02 0 0.25 0.02 0 0.255 0.02 0 0.26 0.02 0 0.265 0.02 0 0.27 0.02 0 0.275 0.02 0 0.28 0.02 0 0.285 0.02 0 0.29 0.02 0 0.295 0.02 0 0.3 0.02 0 0.305 0.02 0 0.31 0.02 0 0.315 0.02 0 0.32 0.02 0 0.325 0.02 0 0.33 0.02 0 0.335 0.02 0 0.34 0.02 0 0.345 0.02 0 0.35 0.02 0 0.355 0.02 0 0.36 0.02 0 0.365 0.02 0 0.37 0.02 0 0.375 0.02 0 0.38 0.02 0 0.385 0.02 0 0.39 0.02 0 0.395 0.02 0 0.4 0.02 0 0.405 0.02 0 0.41 0.02 0 0.415 0.02 0 0.42 0.02 0 0.425 0.02 0 0.43 0.02 0 0.435 0.02 0 0.44 0.02 0 0.445 0.02 0 0.45 0.02 0 0.455 0.02 0 0.46 0.02 0 0.465 0.02 0 0.47 0.02 0 0.475 0.02 0 0.48 0.02 0 0.485 0.02 0 0.49 0.02 0 0.495 0.02 0 0.5 0.02 0 0.505 0.02 0 0.51 0.02 0 0.515 0.02 0 0.52 0.02 0 0.525 0.02 0 0.53 0.02 0 0.535 0.02 0 0.54 0.02 0 0.545 0.02 0 0.55 0.02 0 0.555 0.02 0 0.56 0.02 0 0.565 0.02 0 0.57 0.02 0 0.575 0.02 0 0.58 0.02 0 0.585 0.02 0 0.59 0.02 0 0.595 0.02 0 0.6 0.02 0 0.605 0.02 0 0.61 0.02 0 0.615 0.02 0 0.62 0.02 0 0.625 0.02 0 0.63 0.02 0 0.635 0.02 0 0.64 0.02 0 0.645 0.02 0 0.65 0.02 0 0.655 0.02 0 0.66 0.02 0 0.665 0.02 0 0.67 0.02 0 0.675 0.02 0 0.68 0.02 0 0.685 0.02 0 0.69 0.02 0 0.695 0.02 0 0.7 0.02 0 0.705 0.02 0 0.71 0.02 0 0.715 0.02 0 0.72 0.02 0 0.725 0.02 0 0.73 0.02 0 0.735 0.02 0 0.74 0.02 0 0.745 0.02 0 0.75 0.02 0 0.755 0.02 0 0.76 0.02 0 0.765 0.02 0 0.77 0.02 0 0.775 0.02 0 0.78 0.02 0 0.785 0.02 0 0.79 0.02 0 0.795 0.02 0 0.8 0.02 0 0.805 0.02 0 0.81 0.02 0 0.815 0.02 0 0.82 0.02 0 0.825 0.02 0 0.83 0.02 0 0.835 0.02 0 0.84 0.02 0 0.845 0.02 0 0.85 0.02 0 0.855 0.02 0 0.86 0.02 0 0.865 0.02 0 0.87 0.02 0 0.875 0.02 0 0.88 0.02 0 0.885 0.02 0 0.89 0.02 0 0.895 0.02 0 0.9 0.02 0 0.905 0.02 0 0.91 0.02 0 0.915 0.02 0 0.92 0.02 0 0.925 0.02 0 0.93 0.02 0 0.935 0.02 0 0.94 0.02 0 0.945 0.02 0 0.95 0.02 0 0.955 0.02 0 0.96 0.02 0 0.965 0.02 0 0.97 0.02 0 0.975 0.02 0 0.98 0.02 0 0.985 0.02 0 0.99 0.02 0 0.995 0.02 0 1 0.02 0 0 0.04 0 0.005 0.04 0 0.01 0.04 0 0.015 0.04 0 0.02 0.04 0 0.025 0.04 0 0.03 0.04 0 0.035 0.04 0 0.04 0.04 0 0.045 0.04 0 0.05 0.04 0 0.055 0.04 0 0.06 0.04 0 0.065 0.04 0 0.07 0.04 0 0.075 0.04 0 0.08 0.04 0 0.085 0.04 0 0.09 0.04 0 0.095 0.04 0 0.1 0.04 0 0.105 0.04 0 0.11 0.04 0 0.115 0.04 0 0.12 0.04 0 0.125 0.04 0 0.13 0.04 0 0.135 0.04 0 0.14 0.04 0 0.145 0.04 0 0.15 0.04 0 0.155 0.04 0 0.16 0.04 0 0.165 0.04 0 0.17 0.04 0 0.175 0.04 0 0.18 0.04 0 0.185 0.04 0 0.19 0.04 0 0.195 0.04 0 0.2 0.04 0 0.205 0.04 0 0.21 0.04 0 0.215 0.04 0 0.22 0.04 0 0.225 0.04 0 0.23 0.04 0 0.235 0.04 0 0.24 0.04 0 0.245 0.04 0 0.25 0.04 0 0.255 0.04 0 0.26 0.04 0 0.265 0.04 0 0.27 0.04 0 0.275 0.04 0 0.28 0.04 0 0.285 0.04 0 0.29 0.04 0 0.295 0.04 0 0.3 0.04 0 0.305 0.04 0 0.31 0.04 0 0.315 0.04 0 0.32 0.04 0 0.325 0.04 0 0.33 0.04 0 0.335 0.04 0 0.34 0.04 0 0.345 0.04 0 0.35 0.04 0 0.355 0.04 0 0.36 0.04 0 0.365 0.04 0 0.37 0.04 0 0.375 0.04 0 0.38 0.04 0 0.385 0.04 0 0.39 0.04 0 0.395 0.04 0 0.4 0.04 0 0.405 0.04 0 0.41 0.04 0 0.415 0.04 0 0.42 0.04 0 0.425 0.04 0 0.43 0.04 0 0.435 0.04 0 0.44 0.04 0 0.445 0.04 0 0.45 0.04 0 0.455 0.04 0 0.46 0.04 0 0.465 0.04 0 0.47 0.04 0 0.475 0.04 0 0.48 0.04 0 0.485 0.04 0 0.49 0.04 0 0.495 0.04 0 0.5 0.04 0 0.505 0.04 0 0.51 0.04 0 0.515 0.04 0 0.52 0.04 0 0.525 0.04 0 0.53 0.04 0 0.535 0.04 0 0.54 0.04 0 0.545 0.04 0 0.55 0.04 0 0.555 0.04 0 0.56 0.04 0 0.565 0.04 0 0.57 0.04 0 0.575 0.04 0 0.58 0.04 0 0.585 0.04 0 0.59 0.04 0 0.595 0.04 0 0.6 0.04 0 0.605 0.04 0 0.61 0.04 0 0.615 0.04 0 0.62 0.04 0 0.625 0.04 0 0.63 0.04 0 0.635 0.04 0 0.64 0.04 0 0.645 0.04 0 0.65 0.04 0 0.655 0.04 0 0.66 0.04 0 0.665 0.04 0 0.67 0.04 0 0.675 0.04 0 0.68 0.04 0 0.685 0.04 0 0.69 0.04 0 0.695 0.04 0 0.7 0.04 0 0.705 0.04 0 0.71 0.04 0 0.715 0.04 0 0.72 0.04 0 0.725 0.04 0 0.73 0.04 0 0.735 0.04 0 0.74 0.04 0 0.745 0.04 0 0.75 0.04 0 0.755 0.04 0 0.76 0.04 0 0.765 0.04 0 0.77 0.04 0 0.775 0.04 0 0.78 0.04 0 0.785 0.04 0 0.79 0.04 0 0.795 0.04 0 0.8 0.04 0 0.805 0.04 0 0.81 0.04 0 0.815 0.04 0 0.82 0.04 0 0.825 0.04 0 0.83 0.04 0 0.835 0.04 0 0.84 0.04 0 0.845 0.04 0 0.85 0.04 0 0.855 0.04 0 0.86 0.04 0 0.865 0.04 0 0.87 0.04 0 0.875 0.04 0 0.88 0.04 0 0.885 0.04 0 0.89 0.04 0 0.895 0.04 0 0.9 0.04 0 0.905 0.04 0 0.91 0.04 0 0.915 0.04 0 0.92 0.04 0 0.925 0.04 0 0.93 0.04 0 0.935 0.04 0 0.94 0.04 0 0.945 0.04 0 0.95 0.04 0 0.955 0.04 0 0.96 0.04 0 0.965 0.04 0 0.97 0.04 0 0.975 0.04 0 0.98 0.04 0 0.985 0.04 0 0.99 0.04 0 0.995 0.04 0 1 0.04 0 0 0.06 0 0.005 0.06 0 0.01 0.06 0 0.015 0.06 0 0.02 0.06 0 0.025 0.06 0 0.03 0.06 0 0.035 0.06 0 0.04 0.06 0 0.045 0.06 0 0.05 0.06 0 0.055 0.06 0 0.06 0.06 0 0.065 0.06 0 0.07 0.06 0 0.075 0.06 0 0.08 0.06 0 0.085 0.06 0 0.09 0.06 0 0.095 0.06 0 0.1 0.06 0 0.105 0.06 0 0.11 0.06 0 0.115 0.06 0 0.12 0.06 0 0.125 0.06 0 0.13 0.06 0 0.135 0.06 0 0.14 0.06 0 0.145 0.06 0 0.15 0.06 0 0.155 0.06 0 0.16 0.06 0 0.165 0.06 0 0.17 0.06 0 0.175 0.06 0 0.18 0.06 0 0.185 0.06 0 0.19 0.06 0 0.195 0.06 0 0.2 0.06 0 0.205 0.06 0 0.21 0.06 0 0.215 0.06 0 0.22 0.06 0 0.225 0.06 0 0.23 0.06 0 0.235 0.06 0 0.24 0.06 0 0.245 0.06 0 0.25 0.06 0 0.255 0.06 0 0.26 0.06 0 0.265 0.06 0 0.27 0.06 0 0.275 0.06 0 0.28 0.06 0 0.285 0.06 0 0.29 0.06 0 0.295 0.06 0 0.3 0.06 0 0.305 0.06 0 0.31 0.06 0 0.315 0.06 0 0.32 0.06 0 0.325 0.06 0 0.33 0.06 0 0.335 0.06 0 0.34 0.06 0 0.345 0.06 0 0.35 0.06 0 0.355 0.06 0 0.36 0.06 0 0.365 0.06 0 0.37 0.06 0 0.375 0.06 0 0.38 0.06 0 0.385 0.06 0 0.39 0.06 0 0.395 0.06 0 0.4 0.06 0 0.405 0.06 0 0.41 0.06 0 0.415 0.06 0 0.42 0.06 0 0.425 0.06 0 0.43 0.06 0 0.435 0.06 0 0.44 0.06 0 0.445 0.06 0 0.45 0.06 0 0.455 0.06 0 0.46 0.06 0 0.465 0.06 0 0.47 0.06 0 0.475 0.06 0 0.48 0.06 0 0.485 0.06 0 0.49 0.06 0 0.495 0.06 0 0.5 0.06 0 0.505 0.06 0 0.51 0.06 0 0.515 0.06 0 0.52 0.06 0 0.525 0.06 0 0.53 0.06 0 0.535 0.06 0 0.54 0.06 0 0.545 0.06 0 0.55 0.06 0 0.555 0.06 0 0.56 0.06 0 0.565 0.06 0 0.57 0.06 0 0.575 0.06 0 0.58 0.06 0 0.585 0.06 0 0.59 0.06 0 0.595 0.06 0 0.6 0.06 0 0.605 0.06 0 0.61 0.06 0 0.615 0.06 0 0.62 0.06 0 0.625 0.06 0 0.63 0.06 0 0.635 0.06 0 0.64 0.06 0 0.645 0.06 0 0.65 0.06 0 0.655 0.06 0 0.66 0.06 0 0.665 0.06 0 0.67 0.06 0 0.675 0.06 0 0.68 0.06 0 0.685 0.06 0 0.69 0.06 0 0.695 0.06 0 0.7 0.06 0 0.705 0.06 0 0.71 0.06 0 0.715 0.06 0 0.72 0.06 0 0.725 0.06 0 0.73 0.06 0 0.735 0.06 0 0.74 0.06 0 0.745 0.06 0 0.75 0.06 0 0.755 0.06 0 0.76 0.06 0 0.765 0.06 0 0.77 0.06 0 0.775 0.06 0 0.78 0.06 0 0.785 0.06 0 0.79 0.06 0 0.795 0.06 0 0.8 0.06 0 0.805 0.06 0 0.81 0.06 0 0.815 0.06 0 0.82 0.06 0 0.825 0.06 0 0.83 0.06 0 0.835 0.06 0 0.84 0.06 0 0.845 0.06 0 0.85 0.06 0 0.855 0.06 0 0.86 0.06 0 0.865 0.06 0 0.87 0.06 0 0.875 0.06 0 0.88 0.06 0 0.885 0.06 0 0.89 0.06 0 0.895 0.06 0 0.9 0.06 0 0.905 0.06 0 0.91 0.06 0 0.915 0.06 0 0.92 0.06 0 0.925 0.06 0 0.93 0.06 0 0.935 0.06 0 0.94 0.06 0 0.945 0.06 0 0.95 0.06 0 0.955 0.06 0 0.96 0.06 0 0.965 0.06 0 0.97 0.06 0 0.975 0.06 0 0.98 0.06 0 0.985 0.06 0 0.99 0.06 0 0.995 0.06 0 1 0.06 0 0 0.08 0 0.005 0.08 0 0.01 0.08 0 0.015 0.08 0 0.02 0.08 0 0.025 0.08 0 0.03 0.08 0 0.035 0.08 0 0.04 0.08 0 0.045 0.08 0 0.05 0.08 0 0.055 0.08 0 0.06 0.08 0 0.065 0.08 0 0.07 0.08 0 0.075 0.08 0 0.08 0.08 0 0.085 0.08 0 0.09 0.08 0 0.095 0.08 0 0.1 0.08 0 0.105 0.08 0 0.11 0.08 0 0.115 0.08 0 0.12 0.08 0 0.125 0.08 0 0.13 0.08 0 0.135 0.08 0 0.14 0.08 0 0.145 0.08 0 0.15 0.08 0 0.155 0.08 0 0.16 0.08 0 0.165 0.08 0
[...]
			<PointData Scalars="VitesseX">
				<DataArray Name="VitesseX" type="Float32" format="ascii">
 0 -1.3919e-14 -1.23441e-14 -3.21663e-14 5.56577e-15 2.67374e-14 -1.75853e-14 -2.80832e-14 1.1741e-14 -1.76287e-14 -1.9119e-14 1.71498e-14 -3.16902e-14 -2.8771e-14 -3.12613e-14 -8.96953e-14 9.05639e-14 -1.119e-13 -5.45805e-14 2.43694e-14 -1.45747e-13 -7.08197e-14 -6.31039e-14 -3.2191e-14 -5.29025e-14 7.20219e-14 1.72442e-13 -1.95952e-13 1.89085e-13 -5.61455e-14 -4.95445e-14 1.36338e-15 -6.4205e-14 -1.07927e-13 -9.34359e-14 -1.25977e-13 -1.24547e-13 -6.03704e-14 -9.77595e-15 -1.58556e-13 -3.39854e-14 -2.03123e-13 3.46565e-15 -1.91977e-14 -1.50072e-14 2.43032e-14 3.90514e-13 2.91357e-12 2.02885e-11 1.28235e-10 7.69693e-10 4.36843e-09 2.33654e-08 1.17449e-07 5.53091e-07 2.43155e-06 9.93906e-06 3.75943e-05 0.000130852 0.000416333 0.00120163 0.00312008 0.00723371 0.0149068 0.0272855 0.0446257 0.0660781 0.0902047 0.115724 0.141853 0.168215 0.19464 0.221045 0.247409 0.273709 0.299932 0.326064 0.352096 0.378019 0.403825 0.429508 0.455059 0.480473 0.50574 0.530851 0.555798 0.580567 0.605143 0.629507 0.653637 0.677504 0.701069 0.724287 0.747098 0.769429 0.791188 0.812262 0.832509 0.851761 0.869811 0.886419 0.901308 0.914173 0.92471 0.93268 0.938016 0.940979 0.940784 0.94022 0.939384 0.938393 0.937312 0.936204 0.935115 0.934084 0.933142 0.932309 0.931591 0.930986 0.930486 0.930076 0.929742 0.929469 0.929241 0.929042 0.928899 0.928747 0.926232 0.943492 0.949578 0.940238 0.931437 0.928686 0.928063 0.927896 0.927841 0.927817 0.927807 0.927805 0.927803 0.927792 0.927751 0.927634 0.927349 0.926714 0.925381 0.922688 0.917513 0.907947 0.890999 0.862454 0.817197 0.750287 0.658873 0.544644 0.415849 0.287056 0.174536 0.0919533 0.0422058 0.0174958 0.00685212 0.00260961 0.000981021 0.0003663 0.000136155 5.04144e-05 1.85954e-05 6.831e-06 2.49835e-06 9.09392e-07 3.29319e-07 1.186e-07 4.24614e-08 1.51067e-08 5.33924e-09 1.87431e-09 6.52555e-10 2.25595e-10 7.71198e-11 2.66051e-11 8.61887e-12 2.70163e-12 7.37182e-13 2.36669e-13 4.21512e-13 -3.27613e-13 -3.18864e-13 4.18472e-13 -1.16158e-13 -3.58222e-13 3.71353e-13 -2.10438e-13 2.91292e-13 -3.75175e-13 5.73074e-13 3.1756e-13 -5.55194e-13 7.50611e-13 -6.62495e-13 0 0 -3.30856e-15 -1.60756e-14 -2.73416e-15 -1.83386e-14 -1.30613e-14 2.66271e-14 -4.14315e-15 -1.47781e-14 -1.25004e-14 -5.78982e-15 -2.36842e-14 8.11899e-15 -4.488e-14 -5.27329e-14 -4.19421e-15 -1.3485e-13 1.64953e-14 -2.96319e-14 -1.06277e-13 -3.79731e-14 -8.14521e-14 4.79523e-16 -1.10151e-13 4.87911e-14 -2.59305e-14 -6.41675e-14 1.86929e-13 -1.25992e-13 9.1526e-14 3.98183e-14 -1.24522e-13 -6.7871e-14 -4.65294e-14 -1.3459e-13 -4.33901e-14 -6.75879e-14 -7.41662e-14 -1.08267e-13 -6.90774e-14 -8.31794e-14 -4.50527e-14 -1.83764e-13 -3.98892e-14 8.38991e-14 5.14792e-15 4.45496e-13 2.94594e-12 2.01502e-11 1.2802e-10 7.69572e-10 4.36848e-09 2.33656e-08 1.17449e-07 5.53092e-07 2.43155e-06 9.93906e-06 3.75943e-05 0.000130852 0.000416333 0.00120163 0.00312008 0.00723371 0.0149068 0.0272855 0.0446257 0.0660781 0.0902047 0.115724 0.141853 0.168215 0.19464 0.221045 0.247409 0.273709 0.299932 0.326064 0.352096 0.378019 0.403825 0.429508 0.455059 0.480473 0.50574 0.530851 0.555798 0.580567 0.605143 0.629507 0.653637 0.677504 0.701069 0.724287 0.747098 0.769429 0.791188 0.812262 0.832509 0.851761 0.869811 0.886419 0.901308 0.914173 0.92471 0.93268 0.938016 0.940979 0.940784 0.94022 0.939384 0.938393 0.937312 0.936204 0.935115 0.934084 0.933142 0.932309 0.931591 0.930986 0.930486 0.930076 0.929742 0.929469 0.929241 0.929042 0.928899 0.928747 0.926232 0.943492 0.949578 0.940238 0.931437 0.928686 0.928063 0.927896 0.927841 0.927817 0.927807 0.927805 0.927803 0.927792 0.927751 0.927634 0.927349 0.926714 0.925381 0.922688 0.917513 0.907947 0.890999 0.862454 0.817197 0.750287 0.658873 0.544644 0.415849 0.287056 0.174536 0.0919533 0.0422058 0.0174958 0.00685212 0.00260961 0.000981021 0.0003663 0.000136155 5.04144e-05 1.85954e-05 6.831e-06 2.49835e-06 9.09392e-07 3.29319e-07 1.186e-07 4.24611e-08 1.51074e-08 5.3396e-09 1.87364e-09 6.53058e-10 2.2557e-10 7.72163e-11 2.58936e-11 8.80506e-12 2.81461e-12 7.5724e-13 2.65117e-13 -8.96212e-14 2.45386e-13 4.39383e-13 -5.77719e-13 -6.44389e-14 4.29788e-13 -1.08549e-13 1.68886e-13 2.36314e-13 2.82023e-13 -3.85724e-13 1.42214e-13 7.55841e-13 -6.29718e-13 2.78557e-13 0 0 5.54538e-15 5.70667e-15 -1.10755e-14 7.7667e-15 5.99781e-15 -1.10411e-15 -1.48565e-14 7.54985e-15 3.14412e-15 -3.18813e-14 -2.02045e-14 -4.65083e-14 -5.53172e-14 -6.73256e-14 -3.45069e-14 -5.27143e-14 -1.0282e-13 -4.12994e-14 -4.37012e-14 -6.32303e-14 -1.35912e-14 -3.05351e-14 -1.23742e-15 -9.2796e-14 -3.67423e-14 5.02716e-14 1.3889e-15 7.06638e-14 -8.44934e-14 -6.06806e-14 6.15993e-15 -7.80464e-14 -2.10017e-14 7.15957e-15 -1.74741e-13 9.23607e-15 -8.8291e-14 -1.03532e-13 -5.79565e-14 -1.53139e-13 -6.00011e-14 -3.10382e-14 -5.37252e-14 8.8416e-14 3.04291e-14 4.25973e-13 2.98761e-12 2.01895e-11 1.28151e-10 7.69501e-10 4.36822e-09 2.33655e-08 1.17449e-07 5.53092e-07 2.43155e-06 9.93906e-06 3.75943e-05 0.000130852 0.000416333 0.00120163 0.00312008 0.00723371 0.0149068 0.0272855 0.0446257 0.0660781 0.0902047 0.115724 0.141853 0.168215 0.19464 0.221045 0.247409 0.273709 0.299932 0.326064 0.352096 0.378019 0.403825 0.429508 0.455059 0.480473 0.50574 0.530851 0.555798 0.580567 0.605143 0.629507 0.653637 0.677504 0.701069 0.724287 0.747098 0.769429 0.791188 0.812262 0.832509 0.851761 0.869811 0.886419 0.901308 0.914173 0.92471 0.93268 0.938016 0.940979 0.940784 0.94022 0.939384 0.938393 0.937312 0.936204 0.935115 0.934084 0.933142 0.932309 0.931591 0.930986 0.930486 0.930076 0.929742 0.929469 0.929241 0.929042 0.928899 0.928747 0.926232 0.943492 0.949578 0.940238 0.931437 0.928686 0.928063 0.927896 0.927841 0.927817 0.927807 0.927805 0.927803 0.927792 0.927751 0.927634 0.927349 0.926714 0.925381 0.922688 0.917513 0.907947 0.890999 0.862454 0.817197 0.750287 0.658873 0.544644 0.415849 0.287056 0.174536 0.0919533 0.0422058 0.0174958 0.00685212 0.00260961 0.000981021 0.0003663 0.000136155 5.04144e-05 1.85954e-05 6.831e-06 2.49835e-06 9.09392e-07 3.29319e-07 1.186e-07 4.24614e-08 1.51071e-08 5.3395e-09 1.87431e-09 6.52681e-10 2.25728e-10 7.71349e-11 2.6195e-11 8.56169e-12 2.6378e-12 9.21183e-13 1.03196e-13 -5.59227e-14 4.67555e-13 2.21817e-13 -2.65282e-14 -2.01624e-13 2.0876e-13 4.23774e-13 6.99023e-13 -2.23535e-13 -1.1045e-13 2.41274e-13 -1.49163e-13 -2.56183e-13 -5.753e-14 -2.60304e-13 0 0 -2.50127e-15 -1.12362e-14 -3.9397e-15 -1.42198e-14 -4.37083e-16 5.02566e-15 -1.27099e-14 1.60719e-14 -2.17479e-14 -1.5703e-14 -7.29955e-14 -9.93891e-15 -6.05288e-14 -8.716e-14 -2.56755e-14 6.13483e-15 -1.3313e-13 -9.58479e-14 -8.00623e-14 -7.78007e-14 7.9162e-14 -3.88873e-14 2.38419e-14 -2.96062e-14 2.52937e-14 4.11655e-14 -1.90528e-13 6.0805e-14 -6.46058e-14 -1.96376e-14 8.60025e-15 -1.09631e-13 -2.86262e-14 -4.54137e-14 -1.19924e-13 -1.43539e-13 -4.89757e-14 4.02136e-14 -1.79829e-13 7.2397e-15 -1.18535e-13 5.16179e-14 -5.5423e-14 -2.45696e-14 2.85355e-13 2.60886e-13 3.05279e-12 2.0202e-11 1.28031e-10 7.69674e-10 4.36835e-09 2.33655e-08 1.17449e-07 5.53091e-07 2.43155e-06 9.93906e-06 3.75943e-05 0.000130852 0.000416333 0.00120163 0.00312008 0.00723371 0.0149068 0.0272855 0.0446257 0.0660781 0.0902047 0.115724 0.141853 0.168215 0.19464 0.221045 0.247409 0.273709 0.299932 0.326064 0.352096 0.378019 0.403825 0.429508 0.455059 0.480473 0.50574 0.530851 0.555798 0.580567 0.605143 0.629507 0.653637 0.677504 0.701069 0.724287 0.747098 0.769429 0.791188 0.812262 0.832509 0.851761 0.869811 0.886419 0.901308 0.914173 0.92471 0.93268 0.938016 0.940979 0.940784 0.94022 0.939384 0.938393 0.937312 0.936204 0.935115 0.934084 0.933142 0.932309 0.931591 0.930986 0.930486 0.930076 0.929742 0.929469 0.929241 0.929042 0.928899 0.928747 0.926232 0.943492 0.949578 0.940238 0.931437 0.928686 0.928063 0.927896 0.927841 0.927817 0.927807 0.927805 0.927803 0.927792 0.927751 0.927634 0.927349 0.926714 0.925381 0.922688 0.917513 0.907947 0.890999 0.862454 0.817197 0.750287 0.658873 0.544644 0.415849 0.287056 0.174536 0.0919533 0.0422058 0.0174958 0.00685212 0.00260961 0.000981021 0.0003663 0.000136155 5.04144e-05 1.85954e-05 6.831e-06 2.49835e-06 9.09392e-07 3.29318e-07 1.186e-07 4.24616e-08 1.51071e-08 5.33954e-09 1.87422e-09 6.52886e-10 2.25514e-10 7.71551e-11 2.66194e-11 8.62328e-12 3.00167e-12 3.49457e-13 3.10995e-13 1.80227e-13 -3.91046e-13 -2.32691e-13 5.11734e-13 1.92226e-13 -4.52482e-13 2.08915e-13 3.43388e-13 -2.23341e-13 -3.13347e-13 5.73291e-13 2.20653e-15 -1.71395e-13 2.09615e-13 -9.56233e-13 0 0 -3.71792e-15 -2.29879e-14 5.73525e-16 -3.66243e-14 -3.81575e-14 6.2909e-15 4.92253e-15 -1.20213e-14 -1.45242e-14 -6.01371e-15 -8.55306e-14 1.37491e-14 -5.11902e-14 -6.97522e-14 8.32017e-16 -8.95001e-14 -4.77203e-14 -6.6576e-14 -1.96589e-13 -4.75616e-14 1.22515e-14 6.44134e-15 -8.75059e-14 9.95112e-14 3.37541e-14 -6.89818e-14 1.92003e-14 -1.88142e-13 1.70585e-13 6.14653e-15 -1.55103e-13 -5.96722e-14 -3.36828e-14 -2.5929e-13 -7.536e-14 -7.21603e-14 3.14339e-14 -3.26825e-14 -1.12436e-13 8.04383e-15 -5.87978e-14 -5.14273e-14 4.11023e-14 -6.81901e-14 1.81165e-13 2.73142e-13 3.00472e-12 2.02229e-11 1.27956e-10 7.69735e-10 4.36856e-09 2.33655e-08 1.17449e-07 5.53091e-07 2.43155e-06 9.93906e-06 3.75943e-05 0.000130852 0.000416333 0.00120163 0.00312008 0.00723371 0.0149068 0.0272855 0.0446257 0.0660781 0.0902047 0.115724 0.141853 0.168215 0.19464 0.221045 0.247409 0.273709 0.299932 0.326064 0.352096 0.378019 0.403825 0.429508 0.455059 0.480473 0.50574 0.530851 0.555798 0.580567 0.605143 0.629507 0.653637 0.677504 0.701069 0.724287 0.747098 0.769429 0.791188 0.812262 0.832509 0.851761 0.869811 0.886419 0.901308 0.914173 0.92471 0.93268 0.938016 0.940979 0.940784 0.94022 0.939384 0.938393 0.937312 0.936204 0.935115 0.934084 0.933142 0.932309 0.931591 0.930986 0.930486 0.930076 0.929742 0.929469 0.929241 0.929042 0.928899 0.928747 0.926232 0.943492 0.949578 0.940238 0.931437 0.928686 0.928063 0.927896 0.927841 0.927817 0.927807 0.927805 0.927803 0.927792 0.927751 0.927634 0.927349 0.926714 0.925381 0.922688 0.917513 0.907947 0.890999 0.862454 0.817197 0.750287 0.658873 0.544644 0.415849 0.287056 0.174536 0.0919533 0.0422058 0.0174958 0.00685212 0.00260961 0.000981021 0.0003663 0.000136155 5.04144e-05 1.85954e-05 6.831e-06 2.49835e-06 9.09392e-07 3.29319e-07 1.186e-07 4.24611e-08 1.51074e-08 5.33969e-09 1.87384e-09 6.53233e-10 2.25649e-10 7.74471e-11 2.62624e-11 8.83757e-12 2.89525e-12 7.83963e-13 -1.64527e-13 -2.9729e-13 -2.33309e-13 -2.2594e-13 -3.14131e-13 2.48654e-13 7.3063e-14 -6.23556e-13 1.56698e-13 2.10107e-14 2.87664e-13 -2.78466e-13 2.41051e-13 7.61865e-13 -4.2537e-13 4.19754e-14 0 0 1.35562e-15 7.71714e-15 -3.98225e-14 1.29674e-14 -1.05852e-14 -7.05173e-14 -1.4245e-14 2.10469e-16 2.81079e-14 -5.19236e-14 -9.61057e-16 -9.35688e-14 -3.09682e-14 -2.56311e-14 -9.73056e-14 6.35654e-14 -1.7971e-13 -1.93719e-14 -8.35326e-14 -1.35783e-13 -6.89189e-14 -3.4476e-14 -3.70599e-14 -7.7842e-14 6.7319e-14 1.81026e-13 -1.47574e-13 8.45014e-14 6.21979e-14 -1.98974e-13 -6.46793e-14 1.53614e-14 -6.69852e-14 -2.3769e-13 -2.9955e-13 1.71858e-13 7.21993e-14 -1.46098e-13 -1.52793e-15 -1.72296e-13 -1.13545e-13 1.02826e-13 1.46181e-13 -9.32143e-14 -1.33515e-13 3.75979e-13 2.90075e-12 2.0409e-11 1.28347e-10 7.69672e-10 4.36833e-09 2.33655e-08 1.17449e-07 5.53091e-07 2.43155e-06 9.93906e-06 3.75943e-05 0.000130852 0.000416333 0.00120163 0.00312008 0.00723371 0.0149068 0.0272855 0.0446257 0.0660781 0.0902047 0.115724 0.141853 0.168215 0.19464 0.221045 0.247409 0.273709 0.299932 0.326064 0.352096 0.378019 0.403825 0.429508 0.455059 0.480473 0.50574 0.530851 0.555798 0.580567 0.605143 0.629507 0.653637 0.677504 0.701069 0.724287 0.747098 0.769429 0.791188 0.812262 0.832509 0.851761 0.869811 0.886419 0.901308 0.914173 0.92471 0.93268 0.938016 0.940979 0.940784 0.94022 0.939384 0.938393 0.937312 0.936204 0.935115 0.934084 0.933142 0.932309 0.931591 0.930986 0.930486 0.930076 0.929742 0.929469 0.929241 0.929042 0.928899 0.928747 0.926232 0.943492 0.949578 0.940238 0.931437 0.928686 0.928063 0.927896 0.927841 0.927817 0.927807 0.927805 0.927803 0.927792 0.927751 0.927634 0.927349 0.926714 0.925381 0.922688 0.917513 0.907947 0.890999 0.862454 0.817197 0.750287 0.658873 0.544644 0.415849 0.287056 0.174536 0.0919533 0.0422058 0.0174958 0.00685212 0.00260961 0.000981021 0.0003663 0.000136155 5.04144e-05 1.85954e-05 6.831e-06 2.49835e-06 9.09391e-07 3.2932e-07 1.186e-07 4.2461e-08 1.51068e-08 5.33935e-09 1.87488e-09 6.52495e-10 2.26182e-10 7.75409e-11 2.64941e-11 8.5607e-12 2.13517e-12 1.93408e-12 -1.03822e-12 -4.66125e-13 4.32198e-13 -7.40495e-13 -1.30877e-13 -2.77671e-13 2.50813e-13 -2.28944e-13 4.76457e-13 -1.39702e-13 4.19034e-14 1.23557e-13 2.12493e-13 -7.12725e-13 6.25017e-13 2.56201e-13 0
				</DataArray>
				<DataArray Name="VitesseY" type="Float32" format="ascii">