<?xml version="1.0"?>
<VTKFile type="PolyData">
	<PolyData>
		<Piece NumberOfPoints="1206" NumberOfPolys="1000">
			<Points>
				<DataArray type="Float32" NumberOfComponents="3" format="ascii">
 0 0 0 0.005 0 0 0.01 0 0 0.015 0 0 0.02 0 0 0.025 0 0 0.03 0 0 0.035 0 0 0.04 0 0 0.045 0 0 0.05 0 0 0.055 0 0 0.06 0 0 0.065 0 0 0.07 0 0 0.075 0 0 0.08 0 0 0.085 0 0 0.09 0 0 0.095 0 0 0.1 0 0 0.105 0 0 0.11 0 0 0.115 0 0 0.12 0 0 0.125 0 0 0.13 0 0 0.135 0 0 0.14 0 0 0.145 0 0 0.15 0 0 0.155 0 0 0.16 0 0 0.165 0 0 0.17 0 0 0.175 0 0 0.18 0 0 0.185 0 0 0.19 0 0 0.195 0 0 0.2 0 0 0.205 0 0 0.21 0 0 0.215 0 0 0.22 0 0 0.225 0 0 0.23 0 0 0.235 0 0 0.24 0 0 0.245 0 0 0.25 0 0 0.255 0 0 0.26 0 0 0.265 0 0 0.27 0 0 0.275 0 0 0.28 0 0 0.285 0 0 0.29 0 0 0.295 0 0 0.3 0 0 0.305 0 0 0.31 0 0 0.315 0 0 0.32 0 0 0.325 0 0 0.33 0 0 0.335 0 0 0.34 0 0 0.345 0 0 0.35 0 0 0.355 0 0 0.36 0 0 0.365 0 0 0.37 0 0 0.375 0 0 0.38 0 0 0.385 0 0 0.39 0 0 0.395 0 0 0.4 0 0 0.405 0 0 0.41 0 0 0.415 0 0 0.42 0 0 0.425 0 0 0.43 0 0 0.435 0 0 0.44 0 0 0.445 0 0 0.45 0 0 0.455 0 0 0.46 0 0 0.465 0 0 0.47 0 0 0.475 0 0 0.48 0 0 0.485 0 0 0.49 0 0 0.495 0 0 0.5 0 0 0.505 0 0 0.51 0 0 0.515 0 0 0.52 0 0 0.525 0 0 0.53 0 0 0.535 0 0 0.54 0 0 0.545 0 0 0.55 0 0 0.555 0 0 0.56 0 0 0.565 0 0 0.57 0 0 0.575 0 0 0.58 0 0 0.585 0 0 0.59 0 0 0.595 0 0 0.6 0 0 0.605 0 0 0.61 0 0 0.615 0 0 0.62 0 0 0.625 0 0 0.63 0 0 0.635 0 0 0.64 0 0 0.645 0 0 0.65 0 0 0.655 0 0 0.66 0 0 0.665 0 0 0.67 0 0 0.675 0 0 0.68 0 0 0.685 0 0 0.69 0 0 0.695 0 0 0.7 0 0 0.705 0 0 0.71 0 0 0.715 0 0 0.72 0 0 0.725 0 0 0.73 0 0 0.735 0 0 0.74 0 0 0.745 0 0 0.75 0 0 0.755 0 0 0.76 0 0 0.765 0 0 0.77 0 0 0.775 0 0 0.78 0 0 0.785 0 0 0.79 0 0 0.795 0 0 0.8 0 0 0.805 0 0 0.81 0 0 0.815 0 0 0.82 0 0 0.825 0 0 0.83 0 0 0.835 0 0 0.84 0 0 0.845 0 0 0.85 0 0 0.855 0 0 0.86 0 0 0.865 0 0 0.87 0 0 0.875 0 0 0.88 0 0 0.885 0 0 0.89 0 0 0.895 0 0 0.9 0 0 0.905 0 0 0.91 0 0 0.915 0 0 0.92 0 0 0.925 0 0 0.93 0 0 0.935 0 0 0.94 0 0 0.945 0 0 0.95 0 0 0.955 0 0 0.96 0 0 0.965 0 0 0.97 0 0 0.975 0 0 0.98 0 0 0.985 0 0 0.99 0 0 0.995 0 0 1 0 0 0 0.02 0 0.005 0.02 0 0.01 0.02 0 0.015 0.02 0 0.02 0.02 0 0.025 0.02 0 0.03 0.02 0 0.035 0.02 0 0.04 0.02 0 0.045 0.02 0 0.05 0.02 0 0.055 0.02 0 0.06 0.02 0 0.065 0.02 0 0.07 0.02 0 0.075 0.02 0 0.08 0.02 0 0.085 0.02 0 0.09 0.02 0 0.095 0.02 0 0.1 0.02 0 0.105 0.02 0 0.11 0.02 0 0.115 0.02 0 0.12 0.02 0 0.125 0.02 0 0.13 0.02 0 0.135 0.02 0 0.14 0.02 0 0.145 0.02 0 0.15 0.02 0 0.155 0.02 0 0.16 0.02 0 0.165 0.02 0 0.17 0.02 0 0.175 0.02 0 0.18 0.02 0 0.185 0.02 0 0.19 0.02 0 0.195 0.02 0 0.2 0.02 0 0.205 0.02 0 0.21 0.02 0 0.215 0.02 0 0.22 0.02 0 0.225 0.02 0 0.23 0.02 0 0.235 0.02 0 0.24 0.02 0 0.245 0.02 0 0.25 0.02 0 0.255 0.02 0 0.26 0.02 0 0.265 0.02 0 0.27 0.02 0 0.275 0.02 0 0.28 0.02 0 0.285 0.02 0 0.29 0.02 0 0.295 0.02 0 0.3 0.02 0 0.305 0.02 0 0.31 0.02 0 0.315 0.02 0 0.32 0.02 0 0.325 0.02 0 0.33 0.02 0 0.335 0.02 0 0.34 0.02 0 0.345 0.02 0 0.35 0.02 0 0.355 0.02 0 0.36 0.02 0 0.365 0.02 0 0.37 0.02 0 0.375 0.02 0 0.38 0.02 0 0.385 0.02 0 0.39 0.02 0 0.395 0.02 0 0.4 0.02 0 0.405 0.02 0 0.41 0.02 0 0.415 0.02 0 0.42 0.02 0 0.425 0.02 0 0.43 0.02 0 0.435 0.02 0 0.44 0.02 0 0.445 0.02 0 0.45 0.02 0 0.455 0.02 0 0.46 0.02 0 0.465 0.02 0 0.47 0.02 0 0.475 0.02 0 0.48 0.02 0 0.485 0.02 0 0.49 0.02 0 0.495 0.02 0 0.5 0.02 0 0.505 0.02 0 0.51 0.02 0 0.515 0.02 0 0.52 0.02 0 0.525 0.02 0 0.53 0.02 0 0.535 0.02 0 0.54 0.02 0 0.545 0.02 0 0.55 0.02 0 0.555 0.02 0 0.56 0.02 0 0.565 0.02 0 0.57 0.02 0 0.575 0.02 0 0.58 0.02 0 0.585 0.02 0 0.59 0.02 0 0.595 0.02 0 0.6 0.02 0 0.605 0.02 0 0.61 0.02 0 0.615 0.02 0 0.62 0.02 0 0.625 0.02 0 0.63 0.02 0 0.635 0.02 0 0.64 0.02 0 0.645 0.02 0 0.65 0.02 0 0.655 0.02 0 0.66 0.02 0 0.665 0.02 0 0.67 0.02 0 0.675 0.02 0 0.68 0.02 0 0.685 0.02 0 0.69 0.02 0 0.695 0.02 0 0.7 0.02 0 0.705 0.02 0 0.71 0.02 0 0.715 0.02 0 0.72 0.02 0 0.725 0.02 0 0.73 0.02 0 0.735 0.02 0 0.74 0.02 0 0.745 0.02 0 0.75 0.02 0 0.755 0.02 0 0.76 0.02 0 0.765 0.02 0 0.77 0.02 0 0.775 0.02 0 0.78 0.02 0 0.785 0.02 0 0.79 0.02 0 0.795 0.02 0 0.8 0.02 0 0.805 0.02 0 0.81 0.02 0 0.815 0.02 0 0.82 0.02 0 0.825 0.02 0 0.83 0.02 0 0.835 0.02 0 0.84 0.02 0 0.845 0.02 0 0.85 0.02 0 0.855 0.02 0 0.86 0.02 0 0.865 0.02 0 0.87 0.02 0 0.875 0.02 0 0.88 0.02 0 0.885 0.02 0 0.89 0.02 0 0.895 0.02 0 0.9 0.02 0 0.905 0.02 0 0.91 0.02 0 0.915 0.02 0 0.92 0.02 0 0.925 0.02 0 0.93 0.02 0 0.935 0.02 0 0.94 0.02 0 0.945 0.02 0 0.95 0.02 0 0.955 0.02 0 0.96 0.02 0 0.965 0.02 0 0.97 0.02 0 0.975 0.02 0 0.98 0.02 0 0.985 0.02 0 0.99 0.02 0 0.995 0.02 0 1 0.02 0 0 0.04 0 0.005 0.04 0 0.01 0.04 0 0.015 0.04 0 0.02 0.04 0 0.025 0.04 0 0.03 0.04 0 0.035 0.04 0 0.04 0.04 0 0.045 0.04 0 0.05 0.04 0 0.055 0.04 0 0.06 0.04 0 0.065 0.04 0 0.07 0.04 0 0.075 0.04 0 0.08 0.04 0 0.085 0.04 0 0.09 0.04 0 0.095 0.04 0 0.1 0.04 0 0.105 0.04 0 0.11 0.04 0 0.115 0.04 0 0.12 0.04 0 0.125 0.04 0 0.13 0.04 0 0.135 0.04 0 0.14 0.04 0 0.145 0.04 0 0.15 0.04 0 0.155 0.04 0 0.16 0.04 0 0.165 0.04 0 0.17 0.04 0 0.175 0.04 0 0.18 0.04 0 0.185 0.04 0 0.19 0.04 0 0.195 0.04 0 0.2 0.04 0 0.205 0.04 0 0.21 0.04 0 0.215 0.04 0 0.22 0.04 0 0.225 0.04 0 0.23 0.04 0 0.235 0.04 0 0.24 0.04 0 0.245 0.04 0 0.25 0.04 0 0.255 0.04 0 0.26 0.04 0 0.265 0.04 0 0.27 0.04 0 0.275 0.04 0 0.28 0.04 0 0.285 0.04 0 0.29 0.04 0 0.295 0.04 0 0.3 0.04 0 0.305 0.04 0 0.31 0.04 0 0.315 0.04 0 0.32 0.04 0 0.325 0.04 0 0.33 0.04 0 0.335 0.04 0 0.34 0.04 0 0.345 0.04 0 0.35 0.04 0 0.355 0.04 0 0.36 0.04 0 0.365 0.04 0 0.37 0.04 0 0.375 0.04 0 0.38 0.04 0 0.385 0.04 0 0.39 0.04 0 0.395 0.04 0 0.4 0.04 0 0.405 0.04 0 0.41 0.04 0 0.415 0.04 0 0.42 0.04 0 0.425 0.04 0 0.43 0.04 0 0.435 0.04 0 0.44 0.04 0 0.445 0.04 0 0.45 0.04 0 0.455 0.04 0 0.46 0.04 0 0.465 0.04 0 0.47 0.04 0 0.475 0.04 0 0.48 0.04 0 0.485 0.04 0 0.49 0.04 0 0.495 0.04 0 0.5 0.04 0 0.505 0.04 0 0.51 0.04 0 0.515 0.04 0 0.52 0.04 0 0.525 0.04 0 0.53 0.04 0 0.535 0.04 0 0.54 0.04 0 0.545 0.04 0 0.55 0.04 0 0.555 0.04 0 0.56 0.04 0 0.565 0.04 0 0.57 0.04 0 0.575 0.04 0 0.58 0.04 0 0.585 0.04 0 0.59 0.04 0 0.595 0.04 0 0.6 0.04 0 0.605 0.04 0 0.61 0.04 0 0.615 0.04 0 0.62 0.04 0 0.625 0.04 0 0.63 0.04 0 0.635 0.04 0 0.64 0.04 0 0.645 0.04 0 0.65 0.04 0 0.655 0.04 0 0.66 0.04 0 0.665 0.04 0 0.67 0.04 0 0.675 0.04 0 0.68 0.04 0 0.685 0.04 0 0.69 0.04 0 0.695 0.04 0 0.7 0.04 0 0.705 0.04 0 0.71 0.04 0 0.715 0.04 0 0.72 0.04 0 0.725 0.04 0 0.73 0.04 0 0.735 0.04 0 0.74 0.04 0 0.745 0.04 0 0.75 0.04 0 0.755 0.04 0 0.76 0.04 0 0.765 0.04 0 0.77 0.04 0 0.775 0.04 0 0.78 0.04 0 0.785 0.04 0 0.79 0.04 0 0.795 0.04 0 0.8 0.04 0 0.805 0.04 0 0.81 0.04 0 0.815 0.04 0 0.82 0.04 0 0.825 0.04 0 0.83 0.04 0 0.835 0.04 0 0.84 0.04 0 0.845 0.04 0 0.85 0.04 0 0.855 0.04 0 0.86 0.04 0 0.865 0.04 0 0.87 0.04 0 0.875 0.04 0 0.88 0.04 0 0.885 0.04 0 0.89 0.04 0 0.895 0.04 0 0.9 0.04 0 0.905 0.04 0 0.91 0.04 0 0.915 0.04 0 0.92 0.04 0 0.925 0.04 0 0.93 0.04 0 0.935 0.04 0 0.94 0.04 0 0.945 0.04 0 0.95 0.04 0 0.955 0.04 0 0.96 0.04 0 0.965 0.04 0 0.97 0.04 0 0.975 0.04 0 0.98 0.04 0 0.985 0.04 0 0.99 0.04 0 0.995 0.04 0 1 0.04 0 0 0.06 0 0.005 0.06 0 0.01 0.06 0 0.015 0.06 0 0.02 0.06 0 0.025 0.06 0 0.03 0.06 0 0.035 0.06 0 0.04 0.06 0 0.045 0.06 0 0.05 0.06 0 0.055 0.06 0 0.06 0.06 0 0.065 0.06 0 0.07 0.06 0 0.075 0.06 0 0.08 0.06 0 0.085 0.06 0 0.09 0.06 0 0.095 0.06 0 0.1 0.06 0 0.105 0.06 0 0.11 0.06 0 0.115 0.06 0 0.12 0.06 0 0.125 0.06 0 0.13 0.06 0 0.135 0.06 0 0.14 0.06 0 0.145 0.06 0 0.15 0.06 0 0.155 0.06 0 0.16 0.06 0 0.165 0.06 0 0.17 0.06 0 0.175 0.06 0 0.18 0.06 0 0.185 0.06 0 0.19 0.06 0 0.195 0.06 0 0.2 0.06 0 0.205 0.06 0 0.21 0.06 0 0.215 0.06 0 0.22 0.06 0 0.225 0.06 0 0.23 0.06 0 0.235 0.06 0 0.24 0.06 0 0.245 0.06 0 0.25 0.06 0 0.255 0.06 0 0.26 0.06 0 0.265 0.06 0 0.27 0.06 0 0.275 0.06 0 0.28 0.06 0 0.285 0.06 0 0.29 0.06 0 0.295 0.06 0 0.3 0.06 0 0.305 0.06 0 0.31 0.06 0 0.315 0.06 0 0.32 0.06 0 0.325 0.06 0 0.33 0.06 0 0.335 0.06 0 0.34 0.06 0 0.345 0.06 0 0.35 0.06 0 0.355 0.06 0 0.36 0.06 0 0.365 0.06 0 0.37 0.06 0 0.375 0.06 0 0.38 0.06 0 0.385 0.06 0 0.39 0.06 0 0.395 0.06 0 0.4 0.06 0 0.405 0.06 0 0.41 0.06 0 0.415 0.06 0 0.42 0.06 0 0.425 0.06 0 0.43 0.06 0 0.435 0.06 0 0.44 0.06 0 0.445 0.06 0 0.45 0.06 0 0.455 0.06 0 0.46 0.06 0 0.465 0.06 0 0.47 0.06 0 0.475 0.06 0 0.48 0.06 0 0.485 0.06 0 0.49 0.06 0 0.495 0.06 0 0.5 0.06 0 0.505 0.06 0 0.51 0.06 0 0.515 0.06 0 0.52 0.06 0 0.525 0.06 0 0.53 0.06 0 0.535 0.06 0 0.54 0.06 0 0.545 0.06 0 0.55 0.06 0 0.555 0.06 0 0.56 0.06 0 0.565 0.06 0 0.57 0.06 0 0.575 0.06 0 0.58 0.06 0 0.585 0.06 0 0.59 0.06 0 0.595 0.06 0 0.6 0.06 0 0.605 0.06 0 0.61 0.06 0 0.615 0.06 0 0.62 0.06 0 0.625 0.06 0 0.63 0.06 0 0.635 0.06 0 0.64 0.06 0 0.645 0.06 0 0.65 0.06 0 0.655 0.06 0 0.66 0.06 0 0.665 0.06 0 0.67 0.06 0 0.675 0.06 0 0.68 0.06 0 0.685 0.06 0 0.69 0.06 0 0.695 0.06 0 0.7 0.06 0 0.705 0.06 0 0.71 0.06 0 0.715 0.06 0 0.72 0.06 0 0.725 0.06 0 0.73 0.06 0 0.735 0.06 0 0.74 0.06 0 0.745 0.06 0 0.75 0.06 0 0.755 0.06 0 0.76 0.06 0 0.765 0.06 0 0.77 0.06 0 0.775 0.06 0 0.78 0.06 0 0.785 0.06 0 0.79 0.06 0 0.795 0.06 0 0.8 0.06 0 0.805 0.06 0 0.81 0.06 0 0.815 0.06 0 0.82 0.06 0 0.825 0.06 0 0.83 0.06 0 0.835 0.06 0 0.84 0.06 0 0.845 0.06 0 0.85 0.06 0 0.855 0.06 0 0.86 0.06 0 0.865 0.06 0 0.87 0.06 0 0.875 0.06 0 0.88 0.06 0 0.885 0.06 0 0.89 0.06 0 0.895 0.06 0 0.9 0.06 0 0.905 0.06 0 0.91 0.06 0 0.915 0.06 0 0.92 0.06 0 0.925 0.06 0 0.93 0.06 0 0.935 0.06 0 0.94 0.06 0 0.945 0.06 0 0.95 0.06 0 0.955 0.06 0 0.96 0.06 0 0.965 0.06 0 0.97 0.06 0 0.975 0.06 0 0.98 0.06 0 0.985 0.06 0 0.99 0.06 0 0.995 0.06 0 1 0.06 0 0 0.08 0 0.005 0.08 0 0.01 0.08 0 0.015 0.08 0 0.02 0.08 0 0.025 0.08 0 0.03 0.08 0 0.035 0.08 0 0.04 0.08 0 0.045 0.08 0 0.05 0.08 0 0.055 0.08 0 0.06 0.08 0 0.065 0.08 0 0.07 0.08 0 0.075 0.08 0 0.08 0.08 0 0.085 0.08 0 0.09 0.08 0 0.095 0.08 0 0.1 0.08 0 0.105 0.08 0 0.11 0.08 0 0.115 0.08 0 0.12 0.08 0 0.125 0.08 0 0.13 0.08 0 0.135 0.08 0 0.14 0.08 0 0.145 0.08 0 0.15 0.08 0 0.155 0.08 0 0.16 0.08 0 0.165 0.08 0
[...]
			<PointData Scalars="VitesseX">
				<DataArray Name="VitesseX" type="Float32" format="ascii">
 0 3.07467e-15 4.06399e-15 -2.26619e-14 9.12443e-15 -1.34887e-14 -1.92614e-14 -1.27899e-14 1.67387e-14 -2.38752e-14 -3.41682e-14 4.4606e-14 -4.02621e-14 -9.34305e-15 2.4156e-14 -8.83039e-14 3.1376e-14 -8.01107e-14 -5.57245e-15 -4.03769e-15 -9.10599e-14 -2.78601e-14 -9.06452e-14 1.77444e-14 -8.82578e-14 -1.17496e-13 -8.54191e-14 1.65949e-13 3.11255e-14 -1.05156e-13 5.62494e-14 -4.93423e-14 6.76483e-14 -1.33376e-13 9.84638e-15 -2.51629e-13 -1.85384e-13 -3.98327e-14 -1.67595e-13 -1.46118e-13 -7.85359e-14 -6.49685e-14 -8.86377e-14 -9.28049e-14 -1.17552e-13 -1.42342e-13 6.12249e-14 2.49863e-14 2.45879e-15 8.21749e-13 5.02555e-12 3.39994e-11 2.22565e-10 1.36693e-09 7.91531e-09 4.30374e-08 2.19099e-07 1.04065e-06 4.5932e-06 1.87525e-05 7.04316e-05 0.000241782 0.000752843 0.00210784 0.00526026 0.011625 0.0226911 0.0392374 0.0607742 0.0858263 0.11281 0.140652 0.168814 0.197056 0.22527 0.253428 0.281505 0.309482 0.337345 0.365081 0.39268 0.420133 0.44743 0.474562 0.50152 0.528293 0.554869 0.581231 0.607364 0.633242 0.658837 0.684112 0.709019 0.733497 0.757469 0.780839 0.803484 0.825255 0.845967 0.865399 0.883289 0.899336 0.913209 0.92457 0.933118 0.938675 0.941597 0.941338 0.940679 0.939752 0.938664 0.937489 0.936299 0.93514 0.934056 0.933078 0.932224 0.931498 0.930896 0.930402 0.930002 0.929675 0.929403 0.929213 0.928888 0.926479 0.941514 0.951476 0.942168 0.932292 0.928961 0.928201 0.928006 0.92795 0.927934 0.927935 0.927935 0.927924 0.927872 0.927714 0.927322 0.926447 0.924607 0.920906 0.913856 0.900996 0.878662 0.84205 0.785909 0.706086 0.601799 0.478061 0.346934 0.224355 0.126383 0.0615856 0.0265421 0.0105909 0.00406059 0.0015275 0.00056916 0.000210823 7.77202e-05 2.85206e-05 1.04161e-05 3.78465e-06 1.36756e-06 4.9124e-07 1.75343e-07 6.21672e-08 2.18846e-08 7.64622e-09 2.65119e-09 9.11343e-10 3.10055e-10 1.046e-10 3.50308e-11 1.10401e-11 3.68676e-12 4.95585e-13 1.18783e-13 -2.60661e-13 -6.34374e-14 2.90456e-13 -6.85959e-13 1.06535e-12 -4.93018e-13 4.82096e-14 7.62793e-14 -1.21207e-13 -2.52114e-13 2.7581e-13 6.57973e-13 -7.82956e-13 6.20824e-13 -3.66545e-14 1.54637e-13 -2.4588e-13 3.5117e-13 3.35183e-13 0 0 -9.00691e-16 -5.73253e-15 2.29298e-14 -2.69068e-14 -2.07159e-14 -7.16163e-15 1.46652e-14 -1.83446e-14 1.68251e-14 8.40892e-15 -6.51011e-14 9.32573e-15 -3.09231e-14 -6.25797e-14 6.74185e-14 -9.8986e-14 1.96989e-15 -3.07982e-14 -9.37361e-14 -1.05588e-15 -2.36444e-14 -8.62039e-14 -1.06975e-13 -3.50308e-14 -7.0801e-14 1.01397e-14 -6.23854e-14 -6.50143e-14 1.7396e-13 -3.92119e-14 2.52042e-14 -1.52011e-13 2.09094e-14 -1.52797e-13 -6.60849e-14 -7.88518e-15 -2.29227e-13 -8.86754e-14 -8.27244e-14 -1.29294e-13 -1.048e-13 4.85594e-14 -1.5435e-13 -6.14651e-14 -1.21184e-14 -1.20109e-13 -9.78262e-14 1.76553e-13 4.84802e-13 5.07318e-12 3.42767e-11 2.22495e-10 1.36702e-09 7.91477e-09 4.3038e-08 2.19099e-07 1.04065e-06 4.5932e-06 1.87525e-05 7.04316e-05 0.000241782 0.000752843 0.00210784 0.00526026 0.011625 0.0226911 0.0392374 0.0607742 0.0858263 0.11281 0.140652 0.168814 0.197056 0.22527 0.253428 0.281505 0.309482 0.337345 0.365081 0.39268 0.420133 0.44743 0.474562 0.50152 0.528293 0.554869 0.581231 0.607364 0.633242 0.658837 0.684112 0.709019 0.733497 0.757469 0.780839 0.803484 0.825255 0.845967 0.865399 0.883289 0.899336 0.913209 0.92457 0.933118 0.938675 0.941597 0.941338 0.940679 0.939752 0.938664 0.937489 0.936299 0.93514 0.934056 0.933078 0.932224 0.931498 0.930896 0.930402 0.930002 0.929675 0.929403 0.929213 0.928888 0.926479 0.941514 0.951476 0.942168 0.932292 0.928961 0.928201 0.928006 0.92795 0.927934 0.927935 0.927935 0.927924 0.927872 0.927714 0.927322 0.926447 0.924607 0.920906 0.913856 0.900996 0.878662 0.84205 0.785909 0.706086 0.601799 0.478061 0.346934 0.224355 0.126383 0.0615856 0.0265421 0.0105909 0.00406059 0.0015275 0.00056916 0.000210823 7.77202e-05 2.85206e-05 1.04161e-05 3.78465e-06 1.36756e-06 4.9124e-07 1.75343e-07 6.21667e-08 2.18845e-08 7.64684e-09 2.6504e-09 9.11258e-10 3.10613e-10 1.04903e-10 3.45534e-11 1.15093e-11 3.45845e-12 9.93764e-13 -1.51008e-13 -6.00887e-13 1.95102e-13 -1.27189e-13 2.49193e-13 -5.47621e-13 5.72855e-13 2.59048e-13 -2.9057e-13 -3.88031e-14 2.42107e-13 -2.04723e-13 1.55577e-13 6.93642e-13 -3.11231e-13 2.15511e-13 -7.13968e-14 4.78664e-13 -8.32744e-14 -7.73092e-14 0 0 -9.08425e-15 -6.46805e-16 -4.19192e-15 2.65472e-14 1.77958e-14 -4.05697e-15 -1.60307e-14 4.03858e-14 -2.63607e-15 -1.40418e-14 -2.2303e-15 -8.85142e-14 -9.95423e-15 -5.75165e-14 -9.07856e-14 4.14494e-14 -1.23598e-13 -3.89941e-14 -2.67591e-14 2.42582e-14 -1.66864e-13 -7.82129e-14 -4.32722e-14 -5.41864e-14 -2.09269e-14 -2.57377e-14 -2.72387e-14 -1.81475e-14 7.32996e-15 -6.00976e-14 6.17202e-14 2.91073e-16 -1.29055e-13 -1.77027e-13 -5.61875e-14 -5.69486e-14 3.91344e-14 -7.17258e-14 -1.45388e-13 -1.06887e-13 -4.90707e-14 -4.42697e-14 -6.11262e-14 -3.82827e-14 -8.11079e-14 -6.53046e-14 9.04001e-15 5.68836e-14 6.58743e-13 5.11374e-12 3.41857e-11 2.22161e-10 1.36704e-09 7.91495e-09 4.3038e-08 2.19099e-07 1.04065e-06 4.5932e-06 1.87525e-05 7.04316e-05 0.000241782 0.000752843 0.00210784 0.00526026 0.011625 0.0226911 0.0392374 0.0607742 0.0858263 0.11281 0.140652 0.168814 0.197056 0.22527 0.253428 0.281505 0.309482 0.337345 0.365081 0.39268 0.420133 0.44743 0.474562 0.50152 0.528293 0.554869 0.581231 0.607364 0.633242 0.658837 0.684112 0.709019 0.733497 0.757469 0.780839 0.803484 0.825255 0.845967 0.865399 0.883289 0.899336 0.913209 0.92457 0.933118 0.938675 0.941597 0.941338 0.940679 0.939752 0.938664 0.937489 0.936299 0.93514 0.934056 0.933078 0.932224 0.931498 0.930896 0.930402 0.930002 0.929675 0.929403 0.929213 0.928888 0.926479 0.941514 0.951476 0.942168 0.932292 0.928961 0.928201 0.928006 0.92795 0.927934 0.927935 0.927935 0.927924 0.927872 0.927714 0.927322 0.926447 0.924607 0.920906 0.913856 0.900996 0.878662 0.84205 0.785909 0.706086 0.601799 0.478061 0.346934 0.224355 0.126383 0.0615856 0.0265421 0.0105909 0.00406059 0.0015275 0.00056916 0.000210823 7.77202e-05 2.85206e-05 1.04161e-05 3.78465e-06 1.36756e-06 4.9124e-07 1.75343e-07 6.21669e-08 2.18846e-08 7.64638e-09 2.65084e-09 9.11232e-10 3.10677e-10 1.04819e-10 3.50592e-11 1.13319e-11 3.22751e-12 9.00364e-13 3.48487e-14 -1.9817e-13 -4.15328e-13 1.33274e-13 3.42198e-14 -6.92835e-14 3.06073e-13 -3.1873e-13 5.24563e-13 -3.14386e-13 5.49643e-14 3.19246e-13 -1.66199e-13 5.93985e-13 3.60934e-13 2.8867e-13 2.20981e-13 -2.34651e-13 2.38097e-13 1.03893e-13 0 0 -6.83512e-15 -1.37391e-14 -1.01707e-14 1.59478e-14 8.60508e-15 8.07804e-15 3.29411e-14 2.54236e-15 7.66791e-15 -2.20916e-15 -5.25811e-15 -5.59941e-14 -2.55573e-14 -6.21501e-14 -1.3014e-13 -5.86169e-14 -5.36507e-14 -1.03853e-13 -2.23275e-15 -1.10569e-13 9.22978e-15 -1.00872e-14 -2.24978e-14 -2.49272e-14 -1.48671e-13 -1.02241e-13 1.47705e-13 1.94367e-14 -6.04711e-14 -4.39856e-14 -8.43724e-15 2.31611e-14 -2.06192e-13 -8.72119e-14 3.46868e-14 -1.3034e-13 -1.50895e-13 -6.84977e-14 -9.02111e-14 2.41207e-14 -2.27848e-13 -9.77616e-14 6.28653e-14 -1.09717e-13 -1.261e-13 1.44207e-13 -9.68625e-14 6.2884e-14 8.70068e-13 4.92588e-12 3.42098e-11 2.2219e-10 1.36702e-09 7.91496e-09 4.30379e-08 2.19099e-07 1.04065e-06 4.5932e-06 1.87525e-05 7.04316e-05 0.000241782 0.000752843 0.00210784 0.00526026 0.011625 0.0226911 0.0392374 0.0607742 0.0858263 0.11281 0.140652 0.168814 0.197056 0.22527 0.253428 0.281505 0.309482 0.337345 0.365081 0.39268 0.420133 0.44743 0.474562 0.50152 0.528293 0.554869 0.581231 0.607364 0.633242 0.658837 0.684112 0.709019 0.733497 0.757469 0.780839 0.803484 0.825255 0.845967 0.865399 0.883289 0.899336 0.913209 0.92457 0.933118 0.938675 0.941597 0.941338 0.940679 0.939752 0.938664 0.937489 0.936299 0.93514 0.934056 0.933078 0.932224 0.931498 0.930896 0.930402 0.930002 0.929675 0.929403 0.929213 0.928888 0.926479 0.941514 0.951476 0.942168 0.932292 0.928961 0.928201 0.928006 0.92795 0.927934 0.927935 0.927935 0.927924 0.927872 0.927714 0.927322 0.926447 0.924607 0.920906 0.913856 0.900996 0.878662 0.84205 0.785909 0.706086 0.601799 0.478061 0.346934 0.224355 0.126383 0.0615856 0.0265421 0.0105909 0.00406059 0.0015275 0.00056916 0.000210823 7.77202e-05 2.85206e-05 1.04161e-05 3.78465e-06 1.36756e-06 4.9124e-07 1.75343e-07 6.21668e-08 2.18846e-08 7.64646e-09 2.65088e-09 9.11841e-10 3.10427e-10 1.04612e-10 3.49033e-11 1.12238e-11 3.71888e-12 1.17352e-13 1.52235e-13 7.01075e-13 -4.01995e-13 -2.93961e-13 2.39775e-13 3.30065e-13 1.02185e-13 -4.50302e-13 4.81777e-13 -2.35681e-13 -1.91179e-13 8.29483e-14 4.19499e-13 -2.23698e-13 2.73701e-13 1.23989e-13 5.1725e-13 -2.96e-13 1.40609e-14 -3.73447e-14 0 0 1.07011e-15 -4.39735e-15 1.93423e-14 -2.21337e-14 -1.9986e-14 1.86423e-14 3.60274e-14 -4.14252e-14 3.66612e-14 1.54084e-14 -9.35179e-14 1.30927e-14 -2.9132e-14 -9.55385e-14 3.76663e-15 -1.69103e-13 1.8802e-14 -4.38776e-14 -9.54893e-14 -1.09935e-13 1.52736e-14 -2.2924e-14 -9.30456e-14 -1.64895e-15 -1.26684e-13 -2.27787e-14 4.3093e-14 5.35216e-14 1.00752e-13 -2.0423e-14 -2.67808e-14 -1.33301e-13 -2.02188e-14 -9.82376e-14 -5.9518e-14 4.99747e-14 -3.85531e-13 -1.16242e-13 -1.45957e-13 -5.45526e-14 -1.50702e-13 6.06571e-14 -6.24233e-14 -6.569e-14 4.86538e-14 -2.17912e-14 -1.78083e-13 1.39936e-13 6.51877e-13 4.98673e-12 3.4325e-11 2.22374e-10 1.36712e-09 7.9148e-09 4.30379e-08 2.19099e-07 1.04065e-06 4.5932e-06 1.87525e-05 7.04316e-05 0.000241782 0.000752843 0.00210784 0.00526026 0.011625 0.0226911 0.0392374 0.0607742 0.0858263 0.11281 0.140652 0.168814 0.197056 0.22527 0.253428 0.281505 0.309482 0.337345 0.365081 0.39268 0.420133 0.44743 0.474562 0.50152 0.528293 0.554869 0.581231 0.607364 0.633242 0.658837 0.684112 0.709019 0.733497 0.757469 0.780839 0.803484 0.825255 0.845967 0.865399 0.883289 0.899336 0.913209 0.92457 0.933118 0.938675 0.941597 0.941338 0.940679 0.939752 0.938664 0.937489 0.936299 0.93514 0.934056 0.933078 0.932224 0.931498 0.930896 0.930402 0.930002 0.929675 0.929403 0.929213 0.928888 0.926479 0.941514 0.951476 0.942168 0.932292 0.928961 0.928201 0.928006 0.92795 0.927934 0.927935 0.927935 0.927924 0.927872 0.927714 0.927322 0.926447 0.924607 0.920906 0.913856 0.900996 0.878662 0.84205 0.785909 0.706086 0.601799 0.478061 0.346934 0.224355 0.126383 0.0615856 0.0265421 0.0105909 0.00406059 0.0015275 0.00056916 0.000210823 7.77202e-05 2.85206e-05 1.04161e-05 3.78465e-06 1.36756e-06 4.9124e-07 1.75343e-07 6.21665e-08 2.18847e-08 7.64702e-09 2.65046e-09 9.11498e-10 3.10756e-10 1.04887e-10 3.43918e-11 1.13941e-11 3.45712e-12 1.0476e-12 -3.14586e-15 5.44939e-14 2.43559e-13 -2.66668e-13 3.96249e-13 1.71645e-13 2.44536e-13 1.73186e-13 -6.02746e-13 -2.89502e-13 3.88332e-14 -2.99319e-13 2.17953e-13 1.87885e-13 -4.51487e-13 1.95447e-13 1.78835e-13 2.62749e-13 -2.5985e-13 -2.45602e-13 0 0 2.51802e-15 3.29189e-14 -1.78792e-14 3.98693e-14 6.35248e-15 8.07643e-15 -6.80091e-14 4.62644e-14 -4.811e-15 -4.38346e-14 -6.17186e-15 -9.77683e-14 2.54453e-14 -3.24945e-14 -1.36899e-13 9.12744e-14 -1.86341e-13 9.79869e-14 -5.65968e-14 -3.91625e-14 -3.02213e-13 -1.00337e-13 4.05527e-15 -8.00126e-14 2.62252e-14 1.75145e-15 2.70184e-14 1.93029e-13 -1.15969e-13 6.1603e-14 -1.29972e-14 5.93292e-14 -6.13591e-14 -6.06655e-14 -4.20243e-13 7.71187e-14 2.76189e-14 -2.29185e-13 -3.82937e-13 -1.91068e-13 2.00782e-13 4.25415e-14 -1.56935e-13 1.68679e-14 6.91866e-14 -1.61163e-13 7.62781e-14 -8.2775e-14 7.33249e-13 5.22837e-12 3.40477e-11 2.22266e-10 1.36717e-09 7.91533e-09 4.30377e-08 2.19099e-07 1.04065e-06 4.5932e-06 1.87525e-05 7.04316e-05 0.000241782 0.000752843 0.00210784 0.00526026 0.011625 0.0226911 0.0392374 0.0607742 0.0858263 0.11281 0.140652 0.168814 0.197056 0.22527 0.253428 0.281505 0.309482 0.337345 0.365081 0.39268 0.420133 0.44743 0.474562 0.50152 0.528293 0.554869 0.581231 0.607364 0.633242 0.658837 0.684112 0.709019 0.733497 0.757469 0.780839 0.803484 0.825255 0.845967 0.865399 0.883289 0.899336 0.913209 0.92457 0.933118 0.938675 0.941597 0.941338 0.940679 0.939752 0.938664 0.937489 0.936299 0.93514 0.934056 0.933078 0.932224 0.931498 0.930896 0.930402 0.930002 0.929675 0.929403 0.929213 0.928888 0.926479 0.941514 0.951476 0.942168 0.932292 0.928961 0.928201 0.928006 0.92795 0.927934 0.927935 0.927935 0.927924 0.927872 0.927714 0.927322 0.926447 0.924607 0.920906 0.913856 0.900996 0.878662 0.84205 0.785909 0.706086 0.601799 0.478061 0.346934 0.224355 0.126383 0.0615856 0.0265421 0.0105909 0.00406059 0.0015275 0.00056916 0.000210823 7.77202e-05 2.85206e-05 1.04161e-05 3.78465e-06 1.36756e-06 4.9124e-07 1.75343e-07 6.21671e-08 2.18851e-08 7.64643e-09 2.65123e-09 9.10607e-10 3.1084e-10 1.04981e-10 3.50192e-11 1.10259e-11 2.70139e-12 2.16927e-12 1.79733e-13 -7.48388e-13 6.81024e-15 8.65967e-13 -8.02956e-13 1.70518e-12 -7.41879e-13 1.39631e-13 -4.62503e-13 -7.80015e-13 -1.66375e-13 5.59213e-13 -3.8867e-13 -1.59103e-13 5.14778e-13 2.52579e-13 6.25637e-14 -5.55014e-13 4.46091e-13 2.81074e-13 0
				</DataArray>
				<DataArray Name="VitesseY" type="Float32" format="ascii">