<?xml version="1.0"?>
<VTKFile type="PolyData">
	<PolyData>
		<Piece NumberOfPoints="1206" NumberOfPolys="1000">
			<Points>
				<DataArray type="Float32" NumberOfComponents="3" format="ascii">
 0 0 0 0.005 0 0 0.01 0 0 0.015 0 0 0.02 0 0 0.025 0 0 0.03 0 0 0.035 0 0 0.04 0 0 0.045 0 0 0.05 0 0 0.055 0 0 0.06 0 0 0.065 0 0 0.07 0 0 0.075 0 0 0.08 0 0 0.085 0 0 0.09 0 0 0.095 0 0 0.1 0 0 0.105 0 0 0.11 0 0 0.115 0 0 0.12 0 0 0.125 0 0 0.13 0 0 0.135 0 0 0.14 0 0 0.145 0 0 0.15 0 0 0.155 0 0 0.16 0 0 0.165 0 0 0.17 0 0 0.175 0 0 0.18 0 0 0.185 0 0 0.19 0 0 0.195 0 0 0.2 0 0 0.205 0 0 0.21 0 0 0.215 0 0 0.22 0 0 0.225 0 0 0.23 0 0 0.235 0 0 0.24 0 0 0.245 0 0 0.25 0 0 0.255 0 0 0.26 0 0 0.265 0 0 0.27 0 0 0.275 0 0 0.28 0 0 0.285 0 0 0.29 0 0 0.295 0 0 0.3 0 0 0.305 0 0 0.31 0 0 0.315 0 0 0.32 0 0 0.325 0 0 0.33 0 0 0.335 0 0 0.34 0 0 0.345 0 0 0.35 0 0 0.355 0 0 0.36 0 0 0.365 0 0 0.37 0 0 0.375 0 0 0.38 0 0 0.385 0 0 0.39 0 0 0.395 0 0 0.4 0 0 0.405 0 0 0.41 0 0 0.415 0 0 0.42 0 0 0.425 0 0 0.43 0 0 0.435 0 0 0.44 0 0 0.445 0 0 0.45 0 0 0.455 0 0 0.46 0 0 0.465 0 0 0.47 0 0 0.475 0 0 0.48 0 0 0.485 0 0 0.49 0 0 0.495 0 0 0.5 0 0 0.505 0 0 0.51 0 0 0.515 0 0 0.52 0 0 0.525 0 0 0.53 0 0 0.535 0 0 0.54 0 0 0.545 0 0 0.55 0 0 0.555 0 0 0.56 0 0 0.565 0 0 0.57 0 0 0.575 0 0 0.58 0 0 0.585 0 0 0.59 0 0 0.595 0 0 0.6 0 0 0.605 0 0 0.61 0 0 0.615 0 0 0.62 0 0 0.625 0 0 0.63 0 0 0.635 0 0 0.64 0 0 0.645 0 0 0.65 0 0 0.655 0 0 0.66 0 0 0.665 0 0 0.67 0 0 0.675 0 0 0.68 0 0 0.685 0 0 0.69 0 0 0.695 0 0 0.7 0 0 0.705 0 0 0.71 0 0 0.715 0 0 0.72 0 0 0.725 0 0 0.73 0 0 0.735 0 0 0.74 0 0 0.745 0 0 0.75 0 0 0.755 0 0 0.76 0 0 0.765 0 0 0.77 0 0 0.775 0 0 0.78 0 0 0.785 0 0 0.79 0 0 0.795 0 0 0.8 0 0 0.805 0 0 0.81 0 0 0.815 0 0 0.82 0 0 0.825 0 0 0.83 0 0 0.835 0 0 0.84 0 0 0.845 0 0 0.85 0 0 0.855 0 0 0.86 0 0 0.865 0 0 0.87 0 0 0.875 0 0 0.88 0 0 0.885 0 0 0.89 0 0 0.895 0 0 0.9 0 0 0.905 0 0 0.91 0 0 0.915 0 0 0.92 0 0 0.925 0 0 0.93 0 0 0.935 0 0 0.94 0 0 0.945 0 0 0.95 0 0 0.955 0 0 0.96 0 0 0.965 0 0 0.97 0 0 0.975 0 0 0.98 0 0 0.985 0 0 0.99 0 0 0.995 0 0 1 0 0 0 0.02 0 0.005 0.02 0 0.01 0.02 0 0.015 0.02 0 0.02 0.02 0 0.025 0.02 0 0.03 0.02 0 0.035 0.02 0 0.04 0.02 0 0.045 0.02 0 0.05 0.02 0 0.055 0.02 0 0.06 0.02 0 0.065 0.02 0 0.07 0.02 0 0.075 0.02 0 0.08 0.02 0 0.085 0.02 0 0.09 0.02 0 0.095 0.02 0 0.1 0.02 0 0.105 0.02 0 0.11 0.02 0 0.115 0.02 0 0.12 0.02 0 0.125 0.02 0 0.13 0.02 0 0.135 0.02 0 0.14 0.02 0 0.145 0.02 0 0.15 0.02 0 0.155 0.02 0 0.16 0.02 0 0.165 0.02 0 0.17 0.02 0 0.175 0.02 0 0.18 0.02 0 0.185 0.02 0 0.19 0.02 0 0.195 0.02 0 0.2 0.02 0 0.205 0.02 0 0.21 0.02 0 0.215 0.02 0 0.22 0.02 0 0.225 0.02 0 0.23 0.02 0 0.235 0.02 0 0.24 0.02 0 0.245 0.02 0 0.25 0.02 0 0.255 0.02 0 0.26 0.02 0 0.265 0.02 0 0.27 0.02 0 0.275 0.02 0 0.28 0.02 0 0.285 0.02 0 0.29 0.02 0 0.295 0.02 0 0.3 0.02 0 0.305 0.02 0 0.31 0.02 0 0.315 0.02 0 0.32 0.02 0 0.325 0.02 0 0.33 0.02 0 0.335 0.02 0 0.34 0.02 0 0.345 0.02 0 0.35 0.02 0 0.355 0.02 0 0.36 0.02 0 0.365 0.02 0 0.37 0.02 0 0.375 0.02 0 0.38 0.02 0 0.385 0.02 0 0.39 0.02 0 0.395 0.02 0 0.4 0.02 0 0.405 0.02 0 0.41 0.02 0 0.415 0.02 0 0.42 0.02 0 0.425 0.02 0 0.43 0.02 0 0.435 0.02 0 0.44 0.02 0 0.445 0.02 0 0.45 0.02 0 0.455 0.02 0 0.46 0.02 0 0.465 0.02 0 0.47 0.02 0 0.475 0.02 0 0.48 0.02 0 0.485 0.02 0 0.49 0.02 0 0.495 0.02 0 0.5 0.02 0 0.505 0.02 0 0.51 0.02 0 0.515 0.02 0 0.52 0.02 0 0.525 0.02 0 0.53 0.02 0 0.535 0.02 0 0.54 0.02 0 0.545 0.02 0 0.55 0.02 0 0.555 0.02 0 0.56 0.02 0 0.565 0.02 0 0.57 0.02 0 0.575 0.02 0 0.58 0.02 0 0.585 0.02 0 0.59 0.02 0 0.595 0.02 0 0.6 0.02 0 0.605 0.02 0 0.61 0.02 0 0.615 0.02 0 0.62 0.02 0 0.625 0.02 0 0.63 0.02 0 0.635 0.02 0 0.64 0.02 0 0.645 0.02 0 0.65 0.02 0 0.655 0.02 0 0.66 0.02 0 0.665 0.02 0 0.67 0.02 0 0.675 0.02 0 0.68 0.02 0 0.685 0.02 0 0.69 0.02 0 0.695 0.02 0 0.7 0.02 0 0.705 0.02 0 0.71 0.02 0 0.715 0.02 0 0.72 0.02 0 0.725 0.02 0 0.73 0.02 0 0.735 0.02 0 0.74 0.02 0 0.745 0.02 0 0.75 0.02 0 0.755 0.02 0 0.76 0.02 0 0.765 0.02 0 0.77 0.02 0 0.775 0.02 0 0.78 0.02 0 0.785 0.02 0 0.79 0.02 0 0.795 0.02 0 0.8 0.02 0 0.805 0.02 0 0.81 0.02 0 0.815 0.02 0 0.82 0.02 0 0.825 0.02 0 0.83 0.02 0 0.835 0.02 0 0.84 0.02 0 0.845 0.02 0 0.85 0.02 0 0.855 0.02 0 0.86 0.02 0 0.865 0.02 0 0.87 0.02 0 0.875 0.02 0 0.88 0.02 0 0.885 0.02 0 0.89 0.02 0 0.895 0.02 0 0.9 0.02 0 0.905 0.02 0 0.91 0.02 0 0.915 0.02 0 0.92 0.02 0 0.925 0.02 0 0.93 0.02 0 0.935 0.02 0 0.94 0.02 0 0.945 0.02 0 0.95 0.02 0 0.955 0.02 0 0.96 0.02 0 0.965 0.02 0 0.97 0.02 0 0.975 0.02 0 0.98 0.02 0 0.985 0.02 0 0.99 0.02 0 0.995 0.02 0 1 0.02 0 0 0.04 0 0.005 0.04 0 0.01 0.04 0 0.015 0.04 0 0.02 0.04 0 0.025 0.04 0 0.03 0.04 0 0.035 0.04 0 0.04 0.04 0 0.045 0.04 0 0.05 0.04 0 0.055 0.04 0 0.06 0.04 0 0.065 0.04 0 0.07 0.04 0 0.075 0.04 0 0.08 0.04 0 0.085 0.04 0 0.09 0.04 0 0.095 0.04 0 0.1 0.04 0 0.105 0.04 0 0.11 0.04 0 0.115 0.04 0 0.12 0.04 0 0.125 0.04 0 0.13 0.04 0 0.135 0.04 0 0.14 0.04 0 0.145 0.04 0 0.15 0.04 0 0.155 0.04 0 0.16 0.04 0 0.165 0.04 0 0.17 0.04 0 0.175 0.04 0 0.18 0.04 0 0.185 0.04 0 0.19 0.04 0 0.195 0.04 0 0.2 0.04 0 0.205 0.04 0 0.21 0.04 0 0.215 0.04 0 0.22 0.04 0 0.225 0.04 0 0.23 0.04 0 0.235 0.04 0 0.24 0.04 0 0.245 0.04 0 0.25 0.04 0 0.255 0.04 0 0.26 0.04 0 0.265 0.04 0 0.27 0.04 0 0.275 0.04 0 0.28 0.04 0 0.285 0.04 0 0.29 0.04 0 0.295 0.04 0 0.3 0.04 0 0.305 0.04 0 0.31 0.04 0 0.315 0.04 0 0.32 0.04 0 0.325 0.04 0 0.33 0.04 0 0.335 0.04 0 0.34 0.04 0 0.345 0.04 0 0.35 0.04 0 0.355 0.04 0 0.36 0.04 0 0.365 0.04 0 0.37 0.04 0 0.375 0.04 0 0.38 0.04 0 0.385 0.04 0 0.39 0.04 0 0.395 0.04 0 0.4 0.04 0 0.405 0.04 0 0.41 0.04 0 0.415 0.04 0 0.42 0.04 0 0.425 0.04 0 0.43 0.04 0 0.435 0.04 0 0.44 0.04 0 0.445 0.04 0 0.45 0.04 0 0.455 0.04 0 0.46 0.04 0 0.465 0.04 0 0.47 0.04 0 0.475 0.04 0 0.48 0.04 0 0.485 0.04 0 0.49 0.04 0 0.495 0.04 0 0.5 0.04 0 0.505 0.04 0 0.51 0.04 0 0.515 0.04 0 0.52 0.04 0 0.525 0.04 0 0.53 0.04 0 0.535 0.04 0 0.54 0.04 0 0.545 0.04 0 0.55 0.04 0 0.555 0.04 0 0.56 0.04 0 0.565 0.04 0 0.57 0.04 0 0.575 0.04 0 0.58 0.04 0 0.585 0.04 0 0.59 0.04 0 0.595 0.04 0 0.6 0.04 0 0.605 0.04 0 0.61 0.04 0 0.615 0.04 0 0.62 0.04 0 0.625 0.04 0 0.63 0.04 0 0.635 0.04 0 0.64 0.04 0 0.645 0.04 0 0.65 0.04 0 0.655 0.04 0 0.66 0.04 0 0.665 0.04 0 0.67 0.04 0 0.675 0.04 0 0.68 0.04 0 0.685 0.04 0 0.69 0.04 0 0.695 0.04 0 0.7 0.04 0 0.705 0.04 0 0.71 0.04 0 0.715 0.04 0 0.72 0.04 0 0.725 0.04 0 0.73 0.04 0 0.735 0.04 0 0.74 0.04 0 0.745 0.04 0 0.75 0.04 0 0.755 0.04 0 0.76 0.04 0 0.765 0.04 0 0.77 0.04 0 0.775 0.04 0 0.78 0.04 0 0.785 0.04 0 0.79 0.04 0 0.795 0.04 0 0.8 0.04 0 0.805 0.04 0 0.81 0.04 0 0.815 0.04 0 0.82 0.04 0 0.825 0.04 0 0.83 0.04 0 0.835 0.04 0 0.84 0.04 0 0.845 0.04 0 0.85 0.04 0 0.855 0.04 0 0.86 0.04 0 0.865 0.04 0 0.87 0.04 0 0.875 0.04 0 0.88 0.04 0 0.885 0.04 0 0.89 0.04 0 0.895 0.04 0 0.9 0.04 0 0.905 0.04 0 0.91 0.04 0 0.915 0.04 0 0.92 0.04 0 0.925 0.04 0 0.93 0.04 0 0.935 0.04 0 0.94 0.04 0 0.945 0.04 0 0.95 0.04 0 0.955 0.04 0 0.96 0.04 0 0.965 0.04 0 0.97 0.04 0 0.975 0.04 0 0.98 0.04 0 0.985 0.04 0 0.99 0.04 0 0.995 0.04 0 1 0.04 0 0 0.06 0 0.005 0.06 0 0.01 0.06 0 0.015 0.06 0 0.02 0.06 0 0.025 0.06 0 0.03 0.06 0 0.035 0.06 0 0.04 0.06 0 0.045 0.06 0 0.05 0.06 0 0.055 0.06 0 0.06 0.06 0 0.065 0.06 0 0.07 0.06 0 0.075 0.06 0 0.08 0.06 0 0.085 0.06 0 0.09 0.06 0 0.095 0.06 0 0.1 0.06 0 0.105 0.06 0 0.11 0.06 0 0.115 0.06 0 0.12 0.06 0 0.125 0.06 0 0.13 0.06 0 0.135 0.06 0 0.14 0.06 0 0.145 0.06 0 0.15 0.06 0 0.155 0.06 0 0.16 0.06 0 0.165 0.06 0 0.17 0.06 0 0.175 0.06 0 0.18 0.06 0 0.185 0.06 0 0.19 0.06 0 0.195 0.06 0 0.2 0.06 0 0.205 0.06 0 0.21 0.06 0 0.215 0.06 0 0.22 0.06 0 0.225 0.06 0 0.23 0.06 0 0.235 0.06 0 0.24 0.06 0 0.245 0.06 0 0.25 0.06 0 0.255 0.06 0 0.26 0.06 0 0.265 0.06 0 0.27 0.06 0 0.275 0.06 0 0.28 0.06 0 0.285 0.06 0 0.29 0.06 0 0.295 0.06 0 0.3 0.06 0 0.305 0.06 0 0.31 0.06 0 0.315 0.06 0 0.32 0.06 0 0.325 0.06 0 0.33 0.06 0 0.335 0.06 0 0.34 0.06 0 0.345 0.06 0 0.35 0.06 0 0.355 0.06 0 0.36 0.06 0 0.365 0.06 0 0.37 0.06 0 0.375 0.06 0 0.38 0.06 0 0.385 0.06 0 0.39 0.06 0 0.395 0.06 0 0.4 0.06 0 0.405 0.06 0 0.41 0.06 0 0.415 0.06 0 0.42 0.06 0 0.425 0.06 0 0.43 0.06 0 0.435 0.06 0 0.44 0.06 0 0.445 0.06 0 0.45 0.06 0 0.455 0.06 0 0.46 0.06 0 0.465 0.06 0 0.47 0.06 0 0.475 0.06 0 0.48 0.06 0 0.485 0.06 0 0.49 0.06 0 0.495 0.06 0 0.5 0.06 0 0.505 0.06 0 0.51 0.06 0 0.515 0.06 0 0.52 0.06 0 0.525 0.06 0 0.53 0.06 0 0.535 0.06 0 0.54 0.06 0 0.545 0.06 0 0.55 0.06 0 0.555 0.06 0 0.56 0.06 0 0.565 0.06 0 0.57 0.06 0 0.575 0.06 0 0.58 0.06 0 0.585 0.06 0 0.59 0.06 0 0.595 0.06 0 0.6 0.06 0 0.605 0.06 0 0.61 0.06 0 0.615 0.06 0 0.62 0.06 0 0.625 0.06 0 0.63 0.06 0 0.635 0.06 0 0.64 0.06 0 0.645 0.06 0 0.65 0.06 0 0.655 0.06 0 0.66 0.06 0 0.665 0.06 0 0.67 0.06 0 0.675 0.06 0 0.68 0.06 0 0.685 0.06 0 0.69 0.06 0 0.695 0.06 0 0.7 0.06 0 0.705 0.06 0 0.71 0.06 0 0.715 0.06 0 0.72 0.06 0 0.725 0.06 0 0.73 0.06 0 0.735 0.06 0 0.74 0.06 0 0.745 0.06 0 0.75 0.06 0 0.755 0.06 0 0.76 0.06 0 0.765 0.06 0 0.77 0.06 0 0.775 0.06 0 0.78 0.06 0 0.785 0.06 0 0.79 0.06 0 0.795 0.06 0 0.8 0.06 0 0.805 0.06 0 0.81 0.06 0 0.815 0.06 0 0.82 0.06 0 0.825 0.06 0 0.83 0.06 0 0.835 0.06 0 0.84 0.06 0 0.845 0.06 0 0.85 0.06 0 0.855 0.06 0 0.86 0.06 0 0.865 0.06 0 0.87 0.06 0 0.875 0.06 0 0.88 0.06 0 0.885 0.06 0 0.89 0.06 0 0.895 0.06 0 0.9 0.06 0 0.905 0.06 0 0.91 0.06 0 0.915 0.06 0 0.92 0.06 0 0.925 0.06 0 0.93 0.06 0 0.935 0.06 0 0.94 0.06 0 0.945 0.06 0 0.95 0.06 0 0.955 0.06 0 0.96 0.06 0 0.965 0.06 0 0.97 0.06 0 0.975 0.06 0 0.98 0.06 0 0.985 0.06 0 0.99 0.06 0 0.995 0.06 0 1 0.06 0 0 0.08 0 0.005 0.08 0 0.01 0.08 0 0.015 0.08 0 0.02 0.08 0 0.025 0.08 0 0.03 0.08 0 0.035 0.08 0 0.04 0.08 0 0.045 0.08 0 0.05 0.08 0 0.055 0.08 0 0.06 0.08 0 0.065 0.08 0 0.07 0.08 0 0.075 0.08 0 0.08 0.08 0 0.085 0.08 0 0.09 0.08 0 0.095 0.08 0 0.1 0.08 0 0.105 0.08 0 0.11 0.08 0 0.115 0.08 0 0.12 0.08 0 0.125 0.08 0 0.13 0.08 0 0.135 0.08 0 0.14 0.08 0 0.145 0.08 0 0.15 0.08 0 0.155 0.08 0 0.16 0.08 0 0.165 0.08 0
[...]
			<PointData Scalars="VitesseX">
				<DataArray Name="VitesseX" type="Float32" format="ascii">
 0 -1.04814e-14 -1.88964e-14 -1.38473e-14 -2.62936e-14 -1.62355e-14 -4.61993e-14 -2.85794e-14 -5.36375e-14 -6.94474e-14 -4.63067e-14 -3.24057e-14 -7.32966e-14 -4.08551e-14 -3.22674e-14 -4.09249e-15 3.24446e-14 -3.44697e-14 -1.46411e-14 6.50696e-14 -7.77116e-14 5.50149e-14 -1.27109e-13 5.82341e-14 -7.75556e-14 -3.17533e-14 -1.46352e-13 -2.52852e-14 -3.03016e-14 5.85469e-14 -1.25525e-14 -4.92246e-14 5.21841e-14 -6.75298e-14 1.8898e-13 4.51588e-13 2.31677e-12 1.33627e-11 7.45848e-11 3.97935e-10 2.02607e-09 9.80224e-09 4.49945e-08 1.9549e-07 8.0185e-07 3.09596e-06 1.12144e-05 3.79624e-05 0.000119552 0.000348415 0.000934002 0.00228817 0.00509209 0.0102483 0.01862 0.03063 0.0460047 0.0639139 0.083397 0.103715 0.124436 0.145345 0.166338 0.187361 0.20838 0.229383 0.250361 0.271307 0.292214 0.313076 0.33389 0.354651 0.375357 0.396003 0.416587 0.437105 0.457554 0.477932 0.498234 0.518455 0.538593 0.558641 0.578593 0.598443 0.618181 0.637796 0.657277 0.676608 0.69577 0.714741 0.733491 0.751988 0.770189 0.788044 0.80549 0.822453 0.838839 0.854538 0.869416 0.883318 0.896063 0.907459 0.917309 0.925442 0.931742 0.936185 0.938914 0.938891 0.938626 0.938079 0.937381 0.936581 0.935728 0.934865 0.934019 0.933215 0.932474 0.931807 0.931221 0.930715 0.930285 0.929924 0.929623 0.929373 0.929165 0.928991 0.928844 0.928718 0.928609 0.928512 0.928426 0.92835 0.928264 0.928054 0.927827 0.9289 0.94592 0.944813 0.934352 0.929187 0.928052 0.927748 0.92766 0.927624 0.927602 0.927585 0.92757 0.927557 0.927546 0.927537 0.927529 0.927522 0.927513 0.927494 0.927456 0.927371 0.927191 0.926819 0.926067 0.924599 0.921803 0.916605 0.907201 0.890755 0.863231 0.819653 0.755078 0.666411 0.55479 0.42767 0.29903 0.184819 0.0992365 0.0464161 0.0195418 0.00775065 0.00298555 0.0011353 0.000429215 0.000161773 6.08447e-05 2.28419e-05 8.55899e-06 3.20058e-06 1.19417e-06 4.4446e-07 1.64978e-07 6.10572e-08 2.25241e-08 8.28e-09 3.03228e-09 1.10601e-09 4.01516e-10 1.45137e-10 5.17406e-11 1.86568e-11 6.80257e-12 2.02414e-12 1.19383e-12 2.60097e-13 0 0 -1.73026e-15 -1.32029e-14 -1.79006e-14 -2.20988e-14 -4.52481e-14 -3.97981e-14 -5.52098e-14 -4.62325e-14 -3.37035e-14 -6.44534e-14 -5.73923e-14 -1.86417e-14 -7.99682e-14 -2.21216e-14 1.40007e-14 -2.52068e-14 5.06103e-14 4.08294e-14 -3.43749e-14 2.39818e-14 -6.80332e-14 4.8137e-14 -1.35977e-13 1.20763e-14 -6.0895e-14 -6.06275e-14 -3.67069e-14 3.41913e-14 -4.67599e-14 -5.32439e-14 1.71755e-14 -1.90043e-14 6.13823e-14 4.54036e-14 4.59111e-13 2.45653e-12 1.33558e-11 7.44587e-11 3.98165e-10 2.0258e-09 9.80215e-09 4.49948e-08 1.9549e-07 8.01849e-07 3.09596e-06 1.12144e-05 3.79624e-05 0.000119552 0.000348415 0.000934002 0.00228817 0.00509209 0.0102483 0.01862 0.03063 0.0460047 0.0639139 0.083397 0.103715 0.124436 0.145345 0.166338 0.187361 0.20838 0.229383 0.250361 0.271307 0.292214 0.313076 0.33389 0.354651 0.375357 0.396003 0.416587 0.437105 0.457554 0.477932 0.498234 0.518455 0.538593 0.558641 0.578593 0.598443 0.618181 0.637796 0.657277 0.676608 0.69577 0.714741 0.733491 0.751988 0.770189 0.788044 0.80549 0.822453 0.838839 0.854538 0.869416 0.883318 0.896063 0.907459 0.917309 0.925442 0.931742 0.936185 0.938914 0.938891 0.938626 0.938079 0.937381 0.936581 0.935728 0.934865 0.934019 0.933215 0.932474 0.931807 0.931221 0.930715 0.930285 0.929924 0.929623 0.929373 0.929165 0.928991 0.928844 0.928718 0.928609 0.928512 0.928426 0.92835 0.928264 0.928054 0.927827 0.9289 0.94592 0.944813 0.934352 0.929187 0.928052 0.927748 0.92766 0.927624 0.927602 0.927585 0.92757 0.927557 0.927546 0.927537 0.927529 0.927522 0.927513 0.927494 0.927456 0.927371 0.927191 0.926819 0.926067 0.924599 0.921803 0.916605 0.907201 0.890755 0.863231 0.819653 0.755078 0.666411 0.55479 0.42767 0.29903 0.184819 0.0992365 0.0464161 0.0195418 0.00775065 0.00298555 0.0011353 0.000429215 0.000161773 6.08447e-05 2.28419e-05 8.55898e-06 3.20058e-06 1.19417e-06 4.4446e-07 1.64979e-07 6.10571e-08 2.25241e-08 8.28012e-09 3.03208e-09 1.10578e-09 4.01761e-10 1.45053e-10 5.2393e-11 1.81708e-11 6.29045e-12 2.43619e-12 6.34928e-13 -1.72535e-13 0 0 -6.8004e-15 -1.20444e-14 -3.21007e-14 -3.81682e-14 -2.74506e-14 -4.61492e-14 -3.11083e-14 -4.04994e-14 -6.50749e-14 -7.39344e-14 -3.7283e-14 -4.4971e-14 2.89934e-17 -4.73073e-14 -3.96847e-15 2.9299e-14 2.52671e-14 1.10911e-14 -3.2497e-14 -3.50854e-14 4.87499e-14 -9.76907e-14 1.13185e-14 -5.19179e-14 -3.21025e-14 -2.18859e-14 -3.87978e-14 -3.41331e-14 -5.63212e-14 -9.31407e-14 1.10346e-14 3.49204e-14 6.36627e-14 2.00993e-13 4.37307e-13 2.33609e-12 1.34052e-11 7.45112e-11 3.98041e-10 2.02593e-09 9.80209e-09 4.49947e-08 1.9549e-07 8.01849e-07 3.09596e-06 1.12144e-05 3.79624e-05 0.000119552 0.000348415 0.000934002 0.00228817 0.00509209 0.0102483 0.01862 0.03063 0.0460047 0.0639139 0.083397 0.103715 0.124436 0.145345 0.166338 0.187361 0.20838 0.229383 0.250361 0.271307 0.292214 0.313076 0.33389 0.354651 0.375357 0.396003 0.416587 0.437105 0.457554 0.477932 0.498234 0.518455 0.538593 0.558641 0.578593 0.598443 0.618181 0.637796 0.657277 0.676608 0.69577 0.714741 0.733491 0.751988 0.770189 0.788044 0.80549 0.822453 0.838839 0.854538 0.869416 0.883318 0.896063 0.907459 0.917309 0.925442 0.931742 0.936185 0.938914 0.938891 0.938626 0.938079 0.937381 0.936581 0.935728 0.934865 0.934019 0.933215 0.932474 0.931807 0.931221 0.930715 0.930285 0.929924 0.929623 0.929373 0.929165 0.928991 0.928844 0.928718 0.928609 0.928512 0.928426 0.92835 0.928264 0.928054 0.927827 0.9289 0.94592 0.944813 0.934352 0.929187 0.928052 0.927748 0.92766 0.927624 0.927602 0.927585 0.92757 0.927557 0.927546 0.927537 0.927529 0.927522 0.927513 0.927494 0.927456 0.927371 0.927191 0.926819 0.926067 0.924599 0.921803 0.916605 0.907201 0.890755 0.863231 0.819653 0.755078 0.666411 0.55479 0.42767 0.29903 0.184819 0.0992365 0.0464161 0.0195418 0.00775065 0.00298555 0.0011353 0.000429215 0.000161773 6.08447e-05 2.28419e-05 8.55898e-06 3.20058e-06 1.19417e-06 4.44461e-07 1.64978e-07 6.10573e-08 2.2524e-08 8.2802e-09 3.03222e-09 1.10587e-09 4.0146e-10 1.44802e-10 5.20609e-11 1.89726e-11 5.97752e-12 1.98818e-12 1.02788e-12 6.52308e-14 0 0 -1.86852e-14 -2.56806e-14 -2.74189e-14 -4.7424e-14 -3.7215e-14 -3.78253e-14 -3.6281e-14 -2.96489e-14 -5.1428e-14 -4.54522e-14 -7.02932e-14 -3.99317e-15 5.01509e-15 -2.44688e-16 -2.06134e-14 -3.24509e-14 -3.86262e-14 -7.08526e-14 7.88021e-14 6.79187e-15 2.73949e-14 -8.39757e-14 -1.8571e-14 -7.32789e-14 -2.37464e-14 -1.30745e-13 -4.39477e-14 -2.3599e-13 -4.16664e-14 9.2962e-14 4.2947e-14 1.35162e-13 -1.07579e-14 2.70067e-13 4.67356e-13 2.41134e-12 1.33351e-11 7.4404e-11 3.9808e-10 2.0259e-09 9.80218e-09 4.49945e-08 1.9549e-07 8.01849e-07 3.09596e-06 1.12144e-05 3.79624e-05 0.000119552 0.000348415 0.000934002 0.00228817 0.00509209 0.0102483 0.01862 0.03063 0.0460047 0.0639139 0.083397 0.103715 0.124436 0.145345 0.166338 0.187361 0.20838 0.229383 0.250361 0.271307 0.292214 0.313076 0.33389 0.354651 0.375357 0.396003 0.416587 0.437105 0.457554 0.477932 0.498234 0.518455 0.538593 0.558641 0.578593 0.598443 0.618181 0.637796 0.657277 0.676608 0.69577 0.714741 0.733491 0.751988 0.770189 0.788044 0.80549 0.822453 0.838839 0.854538 0.869416 0.883318 0.896063 0.907459 0.917309 0.925442 0.931742 0.936185 0.938914 0.938891 0.938626 0.938079 0.937381 0.936581 0.935728 0.934865 0.934019 0.933215 0.932474 0.931807 0.931221 0.930715 0.930285 0.929924 0.929623 0.929373 0.929165 0.928991 0.928844 0.928718 0.928609 0.928512 0.928426 0.92835 0.928264 0.928054 0.927827 0.9289 0.94592 0.944813 0.934352 0.929187 0.928052 0.927748 0.92766 0.927624 0.927602 0.927585 0.92757 0.927557 0.927546 0.927537 0.927529 0.927522 0.927513 0.927494 0.927456 0.927371 0.927191 0.926819 0.926067 0.924599 0.921803 0.916605 0.907201 0.890755 0.863231 0.819653 0.755078 0.666411 0.55479 0.42767 0.29903 0.184819 0.0992365 0.0464161 0.0195418 0.00775065 0.00298555 0.0011353 0.000429215 0.000161773 6.08447e-05 2.28419e-05 8.55898e-06 3.20058e-06 1.19417e-06 4.4446e-07 1.64979e-07 6.10572e-08 2.25241e-08 8.27967e-09 3.03233e-09 1.10579e-09 4.01475e-10 1.45164e-10 5.13702e-11 1.867e-11 7.14493e-12 2.01902e-12 2.04515e-13 1.20292e-12 0 0 -5.76175e-15 -1.47201e-14 -1.90066e-14 -3.79447e-14 -6.48203e-14 -1.89234e-14 -5.28361e-14 -5.93088e-14 -2.26746e-14 -3.63997e-14 -8.14476e-14 2.58765e-14 -3.43505e-14 2.99125e-14 1.80065e-14 -8.86393e-14 -4.31877e-15 1.2424e-14 -2.55706e-14 2.88739e-14 -1.00437e-13 1.98512e-14 -2.14904e-13 -1.20299e-13 -8.28874e-14 -6.53666e-14 -1.79877e-14 -5.84457e-14 -2.87399e-14 1.54336e-13 1.08346e-13 6.78263e-14 6.28412e-14 1.87277e-13 5.23793e-13 2.38597e-12 1.33241e-11 7.43505e-11 3.98176e-10 2.02581e-09 9.8022e-09 4.49946e-08 1.9549e-07 8.01849e-07 3.09596e-06 1.12144e-05 3.79624e-05 0.000119552 0.000348415 0.000934002 0.00228817 0.00509209 0.0102483 0.01862 0.03063 0.0460047 0.0639139 0.083397 0.103715 0.124436 0.145345 0.166338 0.187361 0.20838 0.229383 0.250361 0.271307 0.292214 0.313076 0.33389 0.354651 0.375357 0.396003 0.416587 0.437105 0.457554 0.477932 0.498234 0.518455 0.538593 0.558641 0.578593 0.598443 0.618181 0.637796 0.657277 0.676608 0.69577 0.714741 0.733491 0.751988 0.770189 0.788044 0.80549 0.822453 0.838839 0.854538 0.869416 0.883318 0.896063 0.907459 0.917309 0.925442 0.931742 0.936185 0.938914 0.938891 0.938626 0.938079 0.937381 0.936581 0.935728 0.934865 0.934019 0.933215 0.932474 0.931807 0.931221 0.930715 0.930285 0.929924 0.929623 0.929373 0.929165 0.928991 0.928844 0.928718 0.928609 0.928512 0.928426 0.92835 0.928264 0.928054 0.927827 0.9289 0.94592 0.944813 0.934352 0.929187 0.928052 0.927748 0.92766 0.927624 0.927602 0.927585 0.92757 0.927557 0.927546 0.927537 0.927529 0.927522 0.927513 0.927494 0.927456 0.927371 0.927191 0.926819 0.926067 0.924599 0.921803 0.916605 0.907201 0.890755 0.863231 0.819653 0.755078 0.666411 0.55479 0.42767 0.29903 0.184819 0.0992365 0.0464161 0.0195418 0.00775065 0.00298555 0.0011353 0.000429215 0.000161773 6.08447e-05 2.28419e-05 8.55898e-06 3.20058e-06 1.19417e-06 4.4446e-07 1.64979e-07 6.1057e-08 2.25243e-08 8.2798e-09 3.03221e-09 1.10598e-09 4.01438e-10 1.45338e-10 5.21652e-11 1.80819e-11 6.76804e-12 2.07346e-12 -4.11863e-13 7.35912e-13 0 0 5.22529e-15 5.34184e-15 -2.54231e-14 -3.9474e-14 -3.58509e-14 -2.10977e-14 -1.34866e-14 -1.01491e-13 -7.46835e-14 -4.71635e-14 -1.44959e-14 -6.62159e-14 4.04081e-14 -2.23243e-14 3.72089e-14 2.90795e-14 -1.65415e-14 9.24355e-14 -1.3992e-13 -1.51682e-13 3.29174e-14 -2.11111e-13 -3.98406e-14 -2.99585e-13 -9.24503e-14 6.18874e-14 2.24531e-14 1.88137e-13 6.52773e-14 3.04023e-14 6.92908e-14 2.5362e-14 8.42293e-14 3.3458e-13 5.20852e-13 2.02515e-12 1.34393e-11 7.45829e-11 3.97877e-10 2.02615e-09 9.80216e-09 4.49946e-08 1.9549e-07 8.01849e-07 3.09596e-06 1.12144e-05 3.79624e-05 0.000119552 0.000348415 0.000934002 0.00228817 0.00509209 0.0102483 0.01862 0.03063 0.0460047 0.0639139 0.083397 0.103715 0.124436 0.145345 0.166338 0.187361 0.20838 0.229383 0.250361 0.271307 0.292214 0.313076 0.33389 0.354651 0.375357 0.396003 0.416587 0.437105 0.457554 0.477932 0.498234 0.518455 0.538593 0.558641 0.578593 0.598443 0.618181 0.637796 0.657277 0.676608 0.69577 0.714741 0.733491 0.751988 0.770189 0.788044 0.80549 0.822453 0.838839 0.854538 0.869416 0.883318 0.896063 0.907459 0.917309 0.925442 0.931742 0.936185 0.938914 0.938891 0.938626 0.938079 0.937381 0.936581 0.935728 0.934865 0.934019 0.933215 0.932474 0.931807 0.931221 0.930715 0.930285 0.929924 0.929623 0.929373 0.929165 0.928991 0.928844 0.928718 0.928609 0.928512 0.928426 0.92835 0.928264 0.928054 0.927827 0.9289 0.94592 0.944813 0.934352 0.929187 0.928052 0.927748 0.92766 0.927624 0.927602 0.927585 0.92757 0.927557 0.927546 0.927537 0.927529 0.927522 0.927513 0.927494 0.927456 0.927371 0.927191 0.926819 0.926067 0.924599 0.921803 0.916605 0.907201 0.890755 0.863231 0.819653 0.755078 0.666411 0.55479 0.42767 0.29903 0.184819 0.0992365 0.0464161 0.0195418 0.00775065 0.00298555 0.0011353 0.000429215 0.000161773 6.08447e-05 2.28419e-05 8.55899e-06 3.20058e-06 1.19417e-06 4.44461e-07 1.64978e-07 6.10572e-08 2.25243e-08 8.28041e-09 3.03232e-09 1.10658e-09 4.00839e-10 1.44982e-10 5.26665e-11 1.90843e-11 5.42292e-12 1.23701e-12 7.46965e-13 -1.98383e-13 0
				</DataArray>
				<DataArray Name="VitesseY" type="Float32" format="ascii">