<?xml version="1.0"?>
<VTKFile type="PolyData">
	<PolyData>
		<Piece NumberOfPoints="1206" NumberOfPolys="1000">
			<Points>
				<DataArray type="Float32" NumberOfComponents="3" format="ascii">
 0 0 0 0.005 0 0 0.01 0 0 0.015 0 0 0.02 0 0 0.025 0 0 0.03 0 0 0.035 0 0 0.04 0 0 0.045 0 0 0.05 0 0 0.055 0 0 0.06 0 0 0.065 0 0 0.07 0 0 0.075 0 0 0.08 0 0 0.085 0 0 0.09 0 0 0.095 0 0 0.1 0 0 0.105 0 0 0.11 0 0 0.115 0 0 0.12 0 0 0.125 0 0 0.13 0 0 0.135 0 0 0.14 0 0 0.145 0 0 0.15 0 0 0.155 0 0 0.16 0 0 0.165 0 0 0.17 0 0 0.175 0 0 0.18 0 0 0.185 0 0 0.19 0 0 0.195 0 0 0.2 0 0 0.205 0 0 0.21 0 0 0.215 0 0 0.22 0 0 0.225 0 0 0.23 0 0 0.235 0 0 0.24 0 0 0.245 0 0 0.25 0 0 0.255 0 0 0.26 0 0 0.265 0 0 0.27 0 0 0.275 0 0 0.28 0 0 0.285 0 0 0.29 0 0 0.295 0 0 0.3 0 0 0.305 0 0 0.31 0 0 0.315 0 0 0.32 0 0 0.325 0 0 0.33 0 0 0.335 0 0 0.34 0 0 0.345 0 0 0.35 0 0 0.355 0 0 0.36 0 0 0.365 0 0 0.37 0 0 0.375 0 0 0.38 0 0 0.385 0 0 0.39 0 0 0.395 0 0 0.4 0 0 0.405 0 0 0.41 0 0 0.415 0 0 0.42 0 0 0.425 0 0 0.43 0 0 0.435 0 0 0.44 0 0 0.445 0 0 0.45 0 0 0.455 0 0 0.46 0 0 0.465 0 0 0.47 0 0 0.475 0 0 0.48 0 0 0.485 0 0 0.49 0 0 0.495 0 0 0.5 0 0 0.505 0 0 0.51 0 0 0.515 0 0 0.52 0 0 0.525 0 0 0.53 0 0 0.535 0 0 0.54 0 0 0.545 0 0 0.55 0 0 0.555 0 0 0.56 0 0 0.565 0 0 0.57 0 0 0.575 0 0 0.58 0 0 0.585 0 0 0.59 0 0 0.595 0 0 0.6 0 0 0.605 0 0 0.61 0 0 0.615 0 0 0.62 0 0 0.625 0 0 0.63 0 0 0.635 0 0 0.64 0 0 0.645 0 0 0.65 0 0 0.655 0 0 0.66 0 0 0.665 0 0 0.67 0 0 0.675 0 0 0.68 0 0 0.685 0 0 0.69 0 0 0.695 0 0 0.7 0 0 0.705 0 0 0.71 0 0 0.715 0 0 0.72 0 0 0.725 0 0 0.73 0 0 0.735 0 0 0.74 0 0 0.745 0 0 0.75 0 0 0.755 0 0 0.76 0 0 0.765 0 0 0.77 0 0 0.775 0 0 0.78 0 0 0.785 0 0 0.79 0 0 0.795 0 0 0.8 0 0 0.805 0 0 0.81 0 0 0.815 0 0 0.82 0 0 0.825 0 0 0.83 0 0 0.835 0 0 0.84 0 0 0.845 0 0 0.85 0 0 0.855 0 0 0.86 0 0 0.865 0 0 0.87 0 0 0.875 0 0 0.88 0 0 0.885 0 0 0.89 0 0 0.895 0 0 0.9 0 0 0.905 0 0 0.91 0 0 0.915 0 0 0.92 0 0 0.925 0 0 0.93 0 0 0.935 0 0 0.94 0 0 0.945 0 0 0.95 0 0 0.955 0 0 0.96 0 0 0.965 0 0 0.97 0 0 0.975 0 0 0.98 0 0 0.985 0 0 0.99 0 0 0.995 0 0 1 0 0 0 0.02 0 0.005 0.02 0 0.01 0.02 0 0.015 0.02 0 0.02 0.02 0 0.025 0.02 0 0.03 0.02 0 0.035 0.02 0 0.04 0.02 0 0.045 0.02 0 0.05 0.02 0 0.055 0.02 0 0.06 0.02 0 0.065 0.02 0 0.07 0.02 0 0.075 0.02 0 0.08 0.02 0 0.085 0.02 0 0.09 0.02 0 0.095 0.02 0 0.1 0.02 0 0.105 0.02 0 0.11 0.02 0 0.115 0.02 0 0.12 0.02 0 0.125 0.02 0 0.13 0.02 0 0.135 0.02 0 0.14 0.02 0 0.145 0.02 0 0.15 0.02 0 0.155 0.02 0 0.16 0.02 0 0.165 0.02 0 0.17 0.02 0 0.175 0.02 0 0.18 0.02 0 0.185 0.02 0 0.19 0.02 0 0.195 0.02 0 0.2 0.02 0 0.205 0.02 0 0.21 0.02 0 0.215 0.02 0 0.22 0.02 0 0.225 0.02 0 0.23 0.02 0 0.235 0.02 0 0.24 0.02 0 0.245 0.02 0 0.25 0.02 0 0.255 0.02 0 0.26 0.02 0 0.265 0.02 0 0.27 0.02 0 0.275 0.02 0 0.28 0.02 0 0.285 0.02 0 0.29 0.02 0 0.295 0.02 0 0.3 0.02 0 0.305 0.02 0 0.31 0.02 0 0.315 0.02 0 0.32 0.02 0 0.325 0.02 0 0.33 0.02 0 0.335 0.02 0 0.34 0.02 0 0.345 0.02 0 0.35 0.02 0 0.355 0.02 0 0.36 0.02 0 0.365 0.02 0 0.37 0.02 0 0.375 0.02 0 0.38 0.02 0 0.385 0.02 0 0.39 0.02 0 0.395 0.02 0 0.4 0.02 0 0.405 0.02 0 0.41 0.02 0 0.415 0.02 0 0.42 0.02 0 0.425 0.02 0 0.43 0.02 0 0.435 0.02 0 0.44 0.02 0 0.445 0.02 0 0.45 0.02 0 0.455 0.02 0 0.46 0.02 0 0.465 0.02 0 0.47 0.02 0 0.475 0.02 0 0.48 0.02 0 0.485 0.02 0 0.49 0.02 0 0.495 0.02 0 0.5 0.02 0 0.505 0.02 0 0.51 0.02 0 0.515 0.02 0 0.52 0.02 0 0.525 0.02 0 0.53 0.02 0 0.535 0.02 0 0.54 0.02 0 0.545 0.02 0 0.55 0.02 0 0.555 0.02 0 0.56 0.02 0 0.565 0.02 0 0.57 0.02 0 0.575 0.02 0 0.58 0.02 0 0.585 0.02 0 0.59 0.02 0 0.595 0.02 0 0.6 0.02 0 0.605 0.02 0 0.61 0.02 0 0.615 0.02 0 0.62 0.02 0 0.625 0.02 0 0.63 0.02 0 0.635 0.02 0 0.64 0.02 0 0.645 0.02 0 0.65 0.02 0 0.655 0.02 0 0.66 0.02 0 0.665 0.02 0 0.67 0.02 0 0.675 0.02 0 0.68 0.02 0 0.685 0.02 0 0.69 0.02 0 0.695 0.02 0 0.7 0.02 0 0.705 0.02 0 0.71 0.02 0 0.715 0.02 0 0.72 0.02 0 0.725 0.02 0 0.73 0.02 0 0.735 0.02 0 0.74 0.02 0 0.745 0.02 0 0.75 0.02 0 0.755 0.02 0 0.76 0.02 0 0.765 0.02 0 0.77 0.02 0 0.775 0.02 0 0.78 0.02 0 0.785 0.02 0 0.79 0.02 0 0.795 0.02 0 0.8 0.02 0 0.805 0.02 0 0.81 0.02 0 0.815 0.02 0 0.82 0.02 0 0.825 0.02 0 0.83 0.02 0 0.835 0.02 0 0.84 0.02 0 0.845 0.02 0 0.85 0.02 0 0.855 0.02 0 0.86 0.02 0 0.865 0.02 0 0.87 0.02 0 0.875 0.02 0 0.88 0.02 0 0.885 0.02 0 0.89 0.02 0 0.895 0.02 0 0.9 0.02 0 0.905 0.02 0 0.91 0.02 0 0.915 0.02 0 0.92 0.02 0 0.925 0.02 0 0.93 0.02 0 0.935 0.02 0 0.94 0.02 0 0.945 0.02 0 0.95 0.02 0 0.955 0.02 0 0.96 0.02 0 0.965 0.02 0 0.97 0.02 0 0.975 0.02 0 0.98 0.02 0 0.985 0.02 0 0.99 0.02 0 0.995 0.02 0 1 0.02 0 0 0.04 0 0.005 0.04 0 0.01 0.04 0 0.015 0.04 0 0.02 0.04 0 0.025 0.04 0 0.03 0.04 0 0.035 0.04 0 0.04 0.04 0 0.045 0.04 0 0.05 0.04 0 0.055 0.04 0 0.06 0.04 0 0.065 0.04 0 0.07 0.04 0 0.075 0.04 0 0.08 0.04 0 0.085 0.04 0 0.09 0.04 0 0.095 0.04 0 0.1 0.04 0 0.105 0.04 0 0.11 0.04 0 0.115 0.04 0 0.12 0.04 0 0.125 0.04 0 0.13 0.04 0 0.135 0.04 0 0.14 0.04 0 0.145 0.04 0 0.15 0.04 0 0.155 0.04 0 0.16 0.04 0 0.165 0.04 0 0.17 0.04 0 0.175 0.04 0 0.18 0.04 0 0.185 0.04 0 0.19 0.04 0 0.195 0.04 0 0.2 0.04 0 0.205 0.04 0 0.21 0.04 0 0.215 0.04 0 0.22 0.04 0 0.225 0.04 0 0.23 0.04 0 0.235 0.04 0 0.24 0.04 0 0.245 0.04 0 0.25 0.04 0 0.255 0.04 0 0.26 0.04 0 0.265 0.04 0 0.27 0.04 0 0.275 0.04 0 0.28 0.04 0 0.285 0.04 0 0.29 0.04 0 0.295 0.04 0 0.3 0.04 0 0.305 0.04 0 0.31 0.04 0 0.315 0.04 0 0.32 0.04 0 0.325 0.04 0 0.33 0.04 0 0.335 0.04 0 0.34 0.04 0 0.345 0.04 0 0.35 0.04 0 0.355 0.04 0 0.36 0.04 0 0.365 0.04 0 0.37 0.04 0 0.375 0.04 0 0.38 0.04 0 0.385 0.04 0 0.39 0.04 0 0.395 0.04 0 0.4 0.04 0 0.405 0.04 0 0.41 0.04 0 0.415 0.04 0 0.42 0.04 0 0.425 0.04 0 0.43 0.04 0 0.435 0.04 0 0.44 0.04 0 0.445 0.04 0 0.45 0.04 0 0.455 0.04 0 0.46 0.04 0 0.465 0.04 0 0.47 0.04 0 0.475 0.04 0 0.48 0.04 0 0.485 0.04 0 0.49 0.04 0 0.495 0.04 0 0.5 0.04 0 0.505 0.04 0 0.51 0.04 0 0.515 0.04 0 0.52 0.04 0 0.525 0.04 0 0.53 0.04 0 0.535 0.04 0 0.54 0.04 0 0.545 0.04 0 0.55 0.04 0 0.555 0.04 0 0.56 0.04 0 0.565 0.04 0 0.57 0.04 0 0.575 0.04 0 0.58 0.04 0 0.585 0.04 0 0.59 0.04 0 0.595 0.04 0 0.6 0.04 0 0.605 0.04 0 0.61 0.04 0 0.615 0.04 0 0.62 0.04 0 0.625 0.04 0 0.63 0.04 0 0.635 0.04 0 0.64 0.04 0 0.645 0.04 0 0.65 0.04 0 0.655 0.04 0 0.66 0.04 0 0.665 0.04 0 0.67 0.04 0 0.675 0.04 0 0.68 0.04 0 0.685 0.04 0 0.69 0.04 0 0.695 0.04 0 0.7 0.04 0 0.705 0.04 0 0.71 0.04 0 0.715 0.04 0 0.72 0.04 0 0.725 0.04 0 0.73 0.04 0 0.735 0.04 0 0.74 0.04 0 0.745 0.04 0 0.75 0.04 0 0.755 0.04 0 0.76 0.04 0 0.765 0.04 0 0.77 0.04 0 0.775 0.04 0 0.78 0.04 0 0.785 0.04 0 0.79 0.04 0 0.795 0.04 0 0.8 0.04 0 0.805 0.04 0 0.81 0.04 0 0.815 0.04 0 0.82 0.04 0 0.825 0.04 0 0.83 0.04 0 0.835 0.04 0 0.84 0.04 0 0.845 0.04 0 0.85 0.04 0 0.855 0.04 0 0.86 0.04 0 0.865 0.04 0 0.87 0.04 0 0.875 0.04 0 0.88 0.04 0 0.885 0.04 0 0.89 0.04 0 0.895 0.04 0 0.9 0.04 0 0.905 0.04 0 0.91 0.04 0 0.915 0.04 0 0.92 0.04 0 0.925 0.04 0 0.93 0.04 0 0.935 0.04 0 0.94 0.04 0 0.945 0.04 0 0.95 0.04 0 0.955 0.04 0 0.96 0.04 0 0.965 0.04 0 0.97 0.04 0 0.975 0.04 0 0.98 0.04 0 0.985 0.04 0 0.99 0.04 0 0.995 0.04 0 1 0.04 0 0 0.06 0 0.005 0.06 0 0.01 0.06 0 0.015 0.06 0 0.02 0.06 0 0.025 0.06 0 0.03 0.06 0 0.035 0.06 0 0.04 0.06 0 0.045 0.06 0 0.05 0.06 0 0.055 0.06 0 0.06 0.06 0 0.065 0.06 0 0.07 0.06 0 0.075 0.06 0 0.08 0.06 0 0.085 0.06 0 0.09 0.06 0 0.095 0.06 0 0.1 0.06 0 0.105 0.06 0 0.11 0.06 0 0.115 0.06 0 0.12 0.06 0 0.125 0.06 0 0.13 0.06 0 0.135 0.06 0 0.14 0.06 0 0.145 0.06 0 0.15 0.06 0 0.155 0.06 0 0.16 0.06 0 0.165 0.06 0 0.17 0.06 0 0.175 0.06 0 0.18 0.06 0 0.185 0.06 0 0.19 0.06 0 0.195 0.06 0 0.2 0.06 0 0.205 0.06 0 0.21 0.06 0 0.215 0.06 0 0.22 0.06 0 0.225 0.06 0 0.23 0.06 0 0.235 0.06 0 0.24 0.06 0 0.245 0.06 0 0.25 0.06 0 0.255 0.06 0 0.26 0.06 0 0.265 0.06 0 0.27 0.06 0 0.275 0.06 0 0.28 0.06 0 0.285 0.06 0 0.29 0.06 0 0.295 0.06 0 0.3 0.06 0 0.305 0.06 0 0.31 0.06 0 0.315 0.06 0 0.32 0.06 0 0.325 0.06 0 0.33 0.06 0 0.335 0.06 0 0.34 0.06 0 0.345 0.06 0 0.35 0.06 0 0.355 0.06 0 0.36 0.06 0 0.365 0.06 0 0.37 0.06 0 0.375 0.06 0 0.38 0.06 0 0.385 0.06 0 0.39 0.06 0 0.395 0.06 0 0.4 0.06 0 0.405 0.06 0 0.41 0.06 0 0.415 0.06 0 0.42 0.06 0 0.425 0.06 0 0.43 0.06 0 0.435 0.06 0 0.44 0.06 0 0.445 0.06 0 0.45 0.06 0 0.455 0.06 0 0.46 0.06 0 0.465 0.06 0 0.47 0.06 0 0.475 0.06 0 0.48 0.06 0 0.485 0.06 0 0.49 0.06 0 0.495 0.06 0 0.5 0.06 0 0.505 0.06 0 0.51 0.06 0 0.515 0.06 0 0.52 0.06 0 0.525 0.06 0 0.53 0.06 0 0.535 0.06 0 0.54 0.06 0 0.545 0.06 0 0.55 0.06 0 0.555 0.06 0 0.56 0.06 0 0.565 0.06 0 0.57 0.06 0 0.575 0.06 0 0.58 0.06 0 0.585 0.06 0 0.59 0.06 0 0.595 0.06 0 0.6 0.06 0 0.605 0.06 0 0.61 0.06 0 0.615 0.06 0 0.62 0.06 0 0.625 0.06 0 0.63 0.06 0 0.635 0.06 0 0.64 0.06 0 0.645 0.06 0 0.65 0.06 0 0.655 0.06 0 0.66 0.06 0 0.665 0.06 0 0.67 0.06 0 0.675 0.06 0 0.68 0.06 0 0.685 0.06 0 0.69 0.06 0 0.695 0.06 0 0.7 0.06 0 0.705 0.06 0 0.71 0.06 0 0.715 0.06 0 0.72 0.06 0 0.725 0.06 0 0.73 0.06 0 0.735 0.06 0 0.74 0.06 0 0.745 0.06 0 0.75 0.06 0 0.755 0.06 0 0.76 0.06 0 0.765 0.06 0 0.77 0.06 0 0.775 0.06 0 0.78 0.06 0 0.785 0.06 0 0.79 0.06 0 0.795 0.06 0 0.8 0.06 0 0.805 0.06 0 0.81 0.06 0 0.815 0.06 0 0.82 0.06 0 0.825 0.06 0 0.83 0.06 0 0.835 0.06 0 0.84 0.06 0 0.845 0.06 0 0.85 0.06 0 0.855 0.06 0 0.86 0.06 0 0.865 0.06 0 0.87 0.06 0 0.875 0.06 0 0.88 0.06 0 0.885 0.06 0 0.89 0.06 0 0.895 0.06 0 0.9 0.06 0 0.905 0.06 0 0.91 0.06 0 0.915 0.06 0 0.92 0.06 0 0.925 0.06 0 0.93 0.06 0 0.935 0.06 0 0.94 0.06 0 0.945 0.06 0 0.95 0.06 0 0.955 0.06 0 0.96 0.06 0 0.965 0.06 0 0.97 0.06 0 0.975 0.06 0 0.98 0.06 0 0.985 0.06 0 0.99 0.06 0 0.995 0.06 0 1 0.06 0 0 0.08 0 0.005 0.08 0 0.01 0.08 0 0.015 0.08 0 0.02 0.08 0 0.025 0.08 0 0.03 0.08 0 0.035 0.08 0 0.04 0.08 0 0.045 0.08 0 0.05 0.08 0 0.055 0.08 0 0.06 0.08 0 0.065 0.08 0 0.07 0.08 0 0.075 0.08 0 0.08 0.08 0 0.085 0.08 0 0.09 0.08 0 0.095 0.08 0 0.1 0.08 0 0.105 0.08 0 0.11 0.08 0 0.115 0.08 0 0.12 0.08 0 0.125 0.08 0 0.13 0.08 0 0.135 0.08 0 0.14 0.08 0 0.145 0.08 0 0.15 0.08 0 0.155 0.08 0 0.16 0.08 0 0.165 0.08 0
[...]
			<PointData Scalars="VitesseX">
				<DataArray Name="VitesseX" type="Float32" format="ascii">
 0 -3.46443e-14 6.5179e-16 -3.97131e-14 4.78804e-14 1.54672e-16 4.93194e-15 -4.57082e-14 -1.55096e-14 2.7488e-15 4.40013e-15 5.02465e-14 -7.60682e-14 1.33026e-13 -1.00285e-13 -6.45136e-14 -5.60787e-14 -7.53642e-14 -6.47857e-15 -1.43648e-13 1.55728e-14 -9.31358e-14 -4.88357e-14 -5.6524e-14 2.95467e-14 -1.1529e-13 -1.79561e-13 1.3667e-14 -1.89883e-13 -2.8367e-14 -7.49142e-14 -1.51805e-13 -1.6847e-13 -1.6218e-13 5.68027e-14 -3.7242e-13 -1.28707e-14 -1.82456e-13 -6.43153e-14 1.11112e-13 6.28284e-14 4.92625e-14 2.09499e-13 -2.66478e-14 9.89377e-14 -3.1022e-13 -1.94112e-13 -7.07867e-14 -6.06689e-14 4.70651e-14 -1.4756e-13 -2.85159e-13 -1.3821e-13 3.90291e-14 1.17967e-13 -1.79481e-13 -2.34123e-13 -1.06306e-13 -8.16959e-14 -7.26873e-14 -1.72848e-13 -2.14055e-13 6.03678e-14 3.4797e-13 4.64058e-12 4.21054e-11 3.61768e-10 2.88054e-09 2.11947e-08 1.43481e-07 8.88958e-07 5.01102e-06 2.55203e-05 0.000116435 0.000471005 0.00166836 0.00510213 0.0133001 0.0294103 0.0553873 0.0902003 0.130517 0.173125 0.216222 0.25913 0.301752 0.343987 0.385779 0.427081 0.467853 0.508059 0.547661 0.586612 0.624855 0.662307 0.69885 0.734323 0.768501 0.801083 0.831678 0.859807 0.884915 0.906419 0.923788 0.936644 0.94498 0.945312 0.94478 0.943502 0.941824 0.939976 0.938123 0.936362 0.934755 0.933208 0.931626 0.933472 0.959866 0.957554 0.940218 0.931977 0.93026 0.929793 0.929448 0.92863 0.926635 0.922195 0.913013 0.895643 0.86529 0.816268 0.743462 0.644558 0.522726 0.388514 0.258231 0.14936 0.07407 0.0319068 0.0124847 0.00463097 0.00166972 0.000591902 0.000207151 7.16541e-05 2.44965e-05 8.27383e-06 2.75952e-06 9.08385e-07 2.94996e-07 9.44707e-08 2.98226e-08 9.27749e-09 2.84289e-09 8.57941e-10 2.5491e-10 7.47217e-11 2.12445e-11 5.31743e-12 1.29966e-12 7.5696e-13 1.0776e-13 -5.97957e-14 -3.44566e-13 -4.56123e-14 -7.06736e-13 2.27701e-13 -2.01291e-13 -2.36661e-13 -4.5662e-13 1.36204e-15 -3.50171e-13 -3.09565e-13 5.55782e-13 -6.33374e-13 -6.89063e-13 3.10009e-13 2.66147e-13 2.2862e-13 2.4167e-13 -2.82033e-13 -2.01259e-13 7.84668e-14 -8.64075e-13 2.30258e-13 1.76489e-13 -1.74237e-13 -7.67856e-13 -3.73804e-15 1.08956e-13 -6.18265e-13 -2.00307e-13 1.18016e-12 -6.32079e-13 -1.55844e-13 -4.53358e-13 1.29892e-12 1.82962e-13 -7.75086e-13 -7.3882e-13 0 0 1.6377e-14 -8.54096e-15 3.48577e-14 -3.94993e-14 -1.55624e-14 -2.96904e-14 1.00343e-14 -2.36114e-14 1.83049e-14 -6.07955e-15 -1.95509e-14 9.37461e-14 -1.20978e-13 3.77394e-14 -1.16855e-14 -7.5834e-14 3.158e-15 -1.23844e-13 3.74117e-15 -8.46405e-14 -1.18921e-14 -3.0252e-14 -6.96223e-14 -1.41818e-13 -6.63862e-14 -5.7287e-14 -1.73716e-13 -5.34516e-14 -7.55086e-14 -6.07256e-14 -1.23404e-13 -1.27354e-13 -1.62319e-13 -2.85862e-13 -2.49783e-14 -1.08097e-13 -6.12014e-14 -5.09247e-14 -4.33163e-14 7.06149e-14 7.35666e-14 -9.27976e-14 6.95059e-14 -1.84504e-13 8.51682e-14 -6.11016e-14 -2.60301e-13 -2.76676e-13 -2.99831e-13 4.06532e-14 1.48104e-14 4.9869e-14 -2.49221e-13 -1.24221e-13 9.22839e-15 4.3862e-14 -2.12194e-13 -3.4769e-14 -1.20947e-13 -5.65355e-14 -5.52644e-14 -1.07397e-13 6.32479e-13 4.57424e-12 4.22885e-11 3.61818e-10 2.87982e-09 2.11952e-08 1.43481e-07 8.88958e-07 5.01102e-06 2.55203e-05 0.000116435 0.000471005 0.00166836 0.00510213 0.0133001 0.0294103 0.0553873 0.0902003 0.130517 0.173125 0.216222 0.25913 0.301752 0.343987 0.385779 0.427081 0.467853 0.508059 0.547661 0.586612 0.624855 0.662307 0.69885 0.734323 0.768501 0.801083 0.831678 0.859807 0.884915 0.906419 0.923788 0.936644 0.94498 0.945312 0.94478 0.943502 0.941824 0.939976 0.938123 0.936362 0.934755 0.933208 0.931626 0.933472 0.959866 0.957554 0.940218 0.931977 0.93026 0.929793 0.929448 0.92863 0.926635 0.922195 0.913013 0.895643 0.86529 0.816268 0.743462 0.644558 0.522726 0.388514 0.258231 0.14936 0.07407 0.0319068 0.0124847 0.00463097 0.00166972 0.000591902 0.000207151 7.16541e-05 2.44965e-05 8.27383e-06 2.75952e-06 9.08385e-07 2.94997e-07 9.447e-08 2.98227e-08 9.27741e-09 2.84336e-09 8.5817e-10 2.54791e-10 7.42105e-11 2.12012e-11 6.07153e-12 1.40963e-12 1.6751e-13 -1.68121e-13 1.00821e-13 9.85304e-14 -2.4437e-13 -6.18415e-14 -6.0774e-13 -2.71674e-13 2.49958e-13 -3.94121e-13 -3.37e-13 -2.48951e-13 -3.11104e-13 -3.17548e-13 -1.71329e-13 3.85586e-13 -1.42346e-13 8.8273e-14 2.05139e-13 -2.40095e-13 3.50035e-13 -2.34703e-13 -2.46517e-13 2.80657e-13 -5.84512e-13 -9.08591e-14 -4.2711e-15 -2.16444e-13 -5.43334e-13 -2.78368e-13 -1.44172e-13 5.15236e-14 -5.50665e-13 4.8292e-13 3.24429e-13 3.0901e-13 -6.7167e-13 5.20198e-14 5.30672e-13 6.37954e-13 0 0 9.95631e-15 6.22499e-15 -2.21825e-14 -7.77937e-15 -4.1474e-14 -2.08171e-14 -1.75087e-14 2.68715e-14 -4.71269e-14 3.16489e-14 -1.56377e-14 -9.19397e-15 3.19582e-14 -3.24746e-14 -1.64719e-14 -3.11835e-14 -3.16546e-14 3.4864e-14 -7.91816e-15 -1.12182e-13 2.71625e-14 -2.7904e-14 -1.0773e-13 -7.29003e-14 -2.73257e-14 -1.73849e-13 -1.2501e-13 -1.07073e-13 5.04334e-15 -1.35322e-13 -1.03595e-13 -8.09215e-14 -2.03147e-13 -1.33122e-13 -1.13928e-13 -1.00002e-13 -5.97076e-14 2.29815e-14 -3.80231e-14 -6.19378e-14 -2.25068e-13 6.19122e-14 6.65648e-14 1.25285e-15 -1.76374e-13 -2.03961e-13 -1.893e-13 -1.84855e-14 -3.06379e-14 -2.38728e-14 -8.38294e-14 -1.79425e-13 -1.00813e-13 -5.78644e-14 -1.37601e-13 -1.05529e-13 1.41366e-13 -1.00655e-13 -1.37131e-13 -9.14346e-14 -8.54412e-14 1.12059e-13 6.80819e-13 4.75337e-12 4.20476e-11 3.61523e-10 2.88051e-09 2.1195e-08 1.43481e-07 8.88958e-07 5.01102e-06 2.55203e-05 0.000116435 0.000471005 0.00166836 0.00510213 0.0133001 0.0294103 0.0553873 0.0902003 0.130517 0.173125 0.216222 0.25913 0.301752 0.343987 0.385779 0.427081 0.467853 0.508059 0.547661 0.586612 0.624855 0.662307 0.69885 0.734323 0.768501 0.801083 0.831678 0.859807 0.884915 0.906419 0.923788 0.936644 0.94498 0.945312 0.94478 0.943502 0.941824 0.939976 0.938123 0.936362 0.934755 0.933208 0.931626 0.933472 0.959866 0.957554 0.940218 0.931977 0.93026 0.929793 0.929448 0.92863 0.926635 0.922195 0.913013 0.895643 0.86529 0.816268 0.743462 0.644558 0.522726 0.388514 0.258231 0.14936 0.07407 0.0319068 0.0124847 0.00463097 0.00166972 0.000591902 0.000207151 7.16541e-05 2.44965e-05 8.27383e-06 2.75952e-06 9.08384e-07 2.94996e-07 9.44702e-08 2.98227e-08 9.2775e-09 2.84337e-09 8.58268e-10 2.54655e-10 7.4598e-11 2.12825e-11 6.07308e-12 1.44741e-12 2.621e-14 -1.14684e-13 -1.52715e-13 8.43864e-14 2.02909e-13 -2.53161e-13 -2.54215e-13 -2.76852e-13 -2.12064e-13 -1.61445e-13 -5.44763e-13 -2.40724e-13 -1.07933e-13 -6.75034e-13 2.24032e-13 -4.7539e-14 2.63796e-13 2.16704e-13 -2.63732e-13 1.35221e-13 -2.93754e-13 -4.61045e-13 2.22339e-13 9.89464e-14 -2.96781e-13 -2.29195e-13 -3.57652e-13 -1.77865e-13 -2.49933e-14 -5.78547e-13 -4.41556e-13 2.98794e-13 4.0285e-13 3.24857e-13 6.80393e-15 -2.67479e-13 -1.84078e-13 4.47075e-13 -4.40595e-13 -2.41707e-13 0 0 -3.31729e-14 -3.26013e-14 -5.49703e-14 -2.04335e-14 -4.93761e-14 -1.65012e-14 -1.29614e-14 2.65927e-14 8.1358e-15 -1.54054e-14 6.78016e-14 -3.71061e-14 2.85234e-14 -5.94576e-14 -3.42805e-14 1.96009e-14 -3.7375e-14 5.34417e-14 -3.75005e-14 4.32294e-14 2.53966e-14 -2.32268e-14 -1.03768e-13 -2.34619e-14 -9.8277e-14 -1.81233e-13 -2.15736e-14 -1.31441e-13 -1.85615e-13 -1.11125e-13 -3.67415e-14 -7.3557e-14 -3.87483e-14 -9.27435e-14 -1.93598e-13 -1.72107e-14 -1.35568e-13 -1.43961e-13 1.84933e-13 8.40442e-15 -7.97219e-14 -1.17826e-13 1.75048e-14 -6.2498e-14 -1.68349e-13 -5.55025e-14 7.52375e-14 -8.13068e-14 -4.60931e-14 -9.64749e-14 -7.68474e-14 -3.39257e-13 1.98394e-13 -7.81895e-14 -4.08556e-14 -2.13361e-13 -6.38674e-14 -8.20235e-14 -5.73936e-14 -6.28313e-14 -6.30364e-14 -3.06909e-14 6.02203e-13 4.49761e-12 4.21501e-11 3.61734e-10 2.88048e-09 2.11952e-08 1.43481e-07 8.88958e-07 5.01102e-06 2.55203e-05 0.000116435 0.000471005 0.00166836 0.00510213 0.0133001 0.0294103 0.0553873 0.0902003 0.130517 0.173125 0.216222 0.25913 0.301752 0.343987 0.385779 0.427081 0.467853 0.508059 0.547661 0.586612 0.624855 0.662307 0.69885 0.734323 0.768501 0.801083 0.831678 0.859807 0.884915 0.906419 0.923788 0.936644 0.94498 0.945312 0.94478 0.943502 0.941824 0.939976 0.938123 0.936362 0.934755 0.933208 0.931626 0.933472 0.959866 0.957554 0.940218 0.931977 0.93026 0.929793 0.929448 0.92863 0.926635 0.922195 0.913013 0.895643 0.86529 0.816268 0.743462 0.644558 0.522726 0.388514 0.258231 0.14936 0.07407 0.0319068 0.0124847 0.00463097 0.00166972 0.000591902 0.000207151 7.16541e-05 2.44965e-05 8.27383e-06 2.75952e-06 9.08384e-07 2.94996e-07 9.44706e-08 2.98227e-08 9.27756e-09 2.84327e-09 8.58332e-10 2.55146e-10 7.48038e-11 2.13937e-11 5.47686e-12 1.89563e-12 6.04258e-13 3.25738e-13 -4.90293e-13 -2.42127e-13 -3.87464e-13 -2.97941e-14 2.85815e-13 -2.80065e-13 -3.33984e-13 -7.18561e-13 9.37203e-14 -3.45802e-13 -6.72794e-13 3.89342e-13 -4.09757e-13 -2.27368e-13 -3.82308e-13 5.20268e-13 2.59221e-13 -1.46443e-13 -4.35297e-13 -4.55647e-13 -1.35721e-13 -6.10458e-13 1.82332e-13 -2.14548e-13 -3.03984e-13 -9.34165e-14 -4.37765e-13 7.99921e-14 1.16377e-13 -7.53229e-14 6.86753e-13 -1.88289e-13 1.38433e-14 -5.43507e-13 8.68982e-13 -3.57503e-13 -1.17363e-13 -6.13285e-13 0 0 -1.52833e-14 -4.77625e-14 -1.63568e-14 -8.34557e-14 -4.78859e-14 -3.58356e-14 1.38306e-14 -2.26205e-14 5.83055e-14 -1.01642e-14 3.17341e-14 7.49782e-14 -1.29438e-13 5.10744e-14 2.90408e-14 5.19844e-14 4.94674e-14 -7.7073e-14 -5.12096e-14 2.085e-14 -1.6391e-14 -4.62749e-14 -8.12285e-14 -1.61464e-13 -1.17117e-13 -4.88189e-14 -1.09257e-13 -5.29095e-14 -1.57571e-13 -6.48485e-14 -7.80443e-14 -5.76041e-14 1.93635e-14 -1.95617e-13 -4.41933e-14 -1.19946e-13 7.42332e-14 -1.7203e-13 -1.76699e-14 5.76157e-14 1.15908e-13 -1.65339e-13 -1.06535e-14 -1.41547e-13 1.54501e-13 2.91214e-14 -1.71066e-13 -3.52146e-13 -3.15726e-13 -5.98084e-14 -1.93968e-15 1.10079e-13 2.42952e-14 -1.24404e-13 1.36095e-13 8.75121e-14 -3.04311e-13 -1.62217e-13 -4.28018e-14 -3.97846e-14 -4.16255e-14 -5.39662e-14 6.64657e-13 4.50477e-12 4.24179e-11 3.62017e-10 2.88e-09 2.11954e-08 1.43481e-07 8.88958e-07 5.01102e-06 2.55203e-05 0.000116435 0.000471005 0.00166836 0.00510213 0.0133001 0.0294103 0.0553873 0.0902003 0.130517 0.173125 0.216222 0.25913 0.301752 0.343987 0.385779 0.427081 0.467853 0.508059 0.547661 0.586612 0.624855 0.662307 0.69885 0.734323 0.768501 0.801083 0.831678 0.859807 0.884915 0.906419 0.923788 0.936644 0.94498 0.945312 0.94478 0.943502 0.941824 0.939976 0.938123 0.936362 0.934755 0.933208 0.931626 0.933472 0.959866 0.957554 0.940218 0.931977 0.93026 0.929793 0.929448 0.92863 0.926635 0.922195 0.913013 0.895643 0.86529 0.816268 0.743462 0.644558 0.522726 0.388514 0.258231 0.14936 0.07407 0.0319068 0.0124847 0.00463097 0.00166972 0.000591902 0.000207151 7.16541e-05 2.44965e-05 8.27383e-06 2.75952e-06 9.08385e-07 2.94997e-07 9.44701e-08 2.98228e-08 9.27781e-09 2.84359e-09 8.5859e-10 2.55196e-10 7.44802e-11 2.13501e-11 6.10475e-12 1.8667e-12 1.79123e-13 6.91747e-14 1.21636e-13 -3.40576e-13 -2.2691e-13 -1.04247e-13 -4.86905e-13 -3.7424e-13 -2.17234e-13 -3.19233e-13 1.77932e-13 -2.28261e-13 -5.97154e-13 7.75931e-14 -5.50898e-13 2.22179e-13 -7.68583e-13 -9.18634e-14 6.16999e-13 -3.63008e-13 9.43008e-14 7.29004e-14 -4.93588e-13 -1.90819e-13 -5.13426e-13 -2.55959e-13 1.02003e-13 3.98432e-13 -4.77381e-13 -2.44089e-13 4.60841e-13 -1.54166e-13 -6.91202e-13 3.82956e-13 4.51049e-13 2.91769e-13 -4.46078e-13 -2.62173e-13 6.88886e-13 4.82561e-13 0 0 -1.17066e-14 -1.38778e-16 -7.65664e-14 -1.47243e-14 -4.86883e-14 -1.59903e-14 -4.72102e-14 -1.29701e-14 -2.77755e-14 9.03395e-14 -1.40621e-14 -5.77797e-14 1.22977e-13 -1.96494e-14 5.2556e-14 9.79894e-14 2.86953e-14 4.99088e-14 -1.94384e-13 -8.42697e-14 -9.86017e-14 -9.02361e-14 -8.76609e-14 -1.08621e-13 -7.48485e-14 -1.47857e-13 -6.42876e-14 -1.40064e-13 1.88824e-13 -1.31553e-13 -1.94794e-13 -4.36999e-14 -1.27612e-13 1.56535e-13 -2.51509e-13 -2.02151e-13 2.40133e-13 2.73594e-14 -2.83508e-13 -1.03854e-13 -1.56748e-13 4.23894e-13 -8.88467e-14 3.12353e-13 -1.87604e-13 -3.10583e-13 -4.21391e-13 -8.5965e-14 4.61843e-14 -2.03279e-13 -3.32624e-13 3.01873e-13 -1.23547e-14 1.5825e-13 -1.19239e-13 6.8841e-14 1.19927e-13 -3.73854e-13 -7.58719e-14 -1.96553e-13 -2.31587e-13 4.52728e-13 5.69559e-13 5.01317e-12 4.21591e-11 3.61742e-10 2.88097e-09 2.11946e-08 1.43481e-07 8.88958e-07 5.01102e-06 2.55203e-05 0.000116435 0.000471005 0.00166836 0.00510213 0.0133001 0.0294103 0.0553873 0.0902003 0.130517 0.173125 0.216222 0.25913 0.301752 0.343987 0.385779 0.427081 0.467853 0.508059 0.547661 0.586612 0.624855 0.662307 0.69885 0.734323 0.768501 0.801083 0.831678 0.859807 0.884915 0.906419 0.923788 0.936644 0.94498 0.945312 0.94478 0.943502 0.941824 0.939976 0.938123 0.936362 0.934755 0.933208 0.931626 0.933472 0.959866 0.957554 0.940218 0.931977 0.93026 0.929793 0.929448 0.92863 0.926635 0.922195 0.913013 0.895643 0.86529 0.816268 0.743462 0.644558 0.522726 0.388514 0.258231 0.14936 0.07407 0.0319068 0.0124847 0.00463097 0.00166972 0.000591902 0.000207151 7.16541e-05 2.44965e-05 8.27383e-06 2.75952e-06 9.08385e-07 2.94996e-07 9.44702e-08 2.98229e-08 9.27818e-09 2.84356e-09 8.58652e-10 2.54737e-10 7.48494e-11 2.13202e-11 6.57633e-12 1.31736e-12 -3.75912e-13 -2.98492e-13 6.56992e-13 -5.69752e-13 1.17005e-12 -1.23828e-12 -6.10689e-13 -3.99997e-13 -9.27205e-13 8.07389e-13 -2.4574e-13 -9.86346e-14 2.48058e-13 -7.82685e-13 -1.24935e-13 -6.56218e-13 3.49743e-13 -7.01254e-13 6.43355e-15 5.59171e-13 -5.10416e-13 4.03153e-13 3.00445e-13 -3.88217e-13 -5.85797e-13 -1.83004e-13 -6.90233e-14 2.92998e-13 9.53711e-13 -1.13956e-12 -5.24105e-13 1.36547e-13 3.31277e-13 1.94286e-13 8.33181e-14 6.42167e-14 -3.56016e-13 1.16373e-12 -1.10512e-12 -3.06451e-13 0
				</DataArray>
				<DataArray Name="VitesseY" type="Float32" format="ascii">