<?xml version="1.0"?>
<VTKFile type="PolyData">
	<PolyData>
		<Piece NumberOfPoints="1206" NumberOfPolys="1000">
			<Points>
				<DataArray type="Float32" NumberOfComponents="3" format="ascii">
 0 0 0 0.005 0 0 0.01 0 0 0.015 0 0 0.02 0 0 0.025 0 0 0.03 0 0 0.035 0 0 0.04 0 0 0.045 0 0 0.05 0 0 0.055 0 0 0.06 0 0 0.065 0 0 0.07 0 0 0.075 0 0 0.08 0 0 0.085 0 0 0.09 0 0 0.095 0 0 0.1 0 0 0.105 0 0 0.11 0 0 0.115 0 0 0.12 0 0 0.125 0 0 0.13 0 0 0.135 0 0 0.14 0 0 0.145 0 0 0.15 0 0 0.155 0 0 0.16 0 0 0.165 0 0 0.17 0 0 0.175 0 0 0.18 0 0 0.185 0 0 0.19 0 0 0.195 0 0 0.2 0 0 0.205 0 0 0.21 0 0 0.215 0 0 0.22 0 0 0.225 0 0 0.23 0 0 0.235 0 0 0.24 0 0 0.245 0 0 0.25 0 0 0.255 0 0 0.26 0 0 0.265 0 0 0.27 0 0 0.275 0 0 0.28 0 0 0.285 0 0 0.29 0 0 0.295 0 0 0.3 0 0 0.305 0 0 0.31 0 0 0.315 0 0 0.32 0 0 0.325 0 0 0.33 0 0 0.335 0 0 0.34 0 0 0.345 0 0 0.35 0 0 0.355 0 0 0.36 0 0 0.365 0 0 0.37 0 0 0.375 0 0 0.38 0 0 0.385 0 0 0.39 0 0 0.395 0 0 0.4 0 0 0.405 0 0 0.41 0 0 0.415 0 0 0.42 0 0 0.425 0 0 0.43 0 0 0.435 0 0 0.44 0 0 0.445 0 0 0.45 0 0 0.455 0 0 0.46 0 0 0.465 0 0 0.47 0 0 0.475 0 0 0.48 0 0 0.485 0 0 0.49 0 0 0.495 0 0 0.5 0 0 0.505 0 0 0.51 0 0 0.515 0 0 0.52 0 0 0.525 0 0 0.53 0 0 0.535 0 0 0.54 0 0 0.545 0 0 0.55 0 0 0.555 0 0 0.56 0 0 0.565 0 0 0.57 0 0 0.575 0 0 0.58 0 0 0.585 0 0 0.59 0 0 0.595 0 0 0.6 0 0 0.605 0 0 0.61 0 0 0.615 0 0 0.62 0 0 0.625 0 0 0.63 0 0 0.635 0 0 0.64 0 0 0.645 0 0 0.65 0 0 0.655 0 0 0.66 0 0 0.665 0 0 0.67 0 0 0.675 0 0 0.68 0 0 0.685 0 0 0.69 0 0 0.695 0 0 0.7 0 0 0.705 0 0 0.71 0 0 0.715 0 0 0.72 0 0 0.725 0 0 0.73 0 0 0.735 0 0 0.74 0 0 0.745 0 0 0.75 0 0 0.755 0 0 0.76 0 0 0.765 0 0 0.77 0 0 0.775 0 0 0.78 0 0 0.785 0 0 0.79 0 0 0.795 0 0 0.8 0 0 0.805 0 0 0.81 0 0 0.815 0 0 0.82 0 0 0.825 0 0 0.83 0 0 0.835 0 0 0.84 0 0 0.845 0 0 0.85 0 0 0.855 0 0 0.86 0 0 0.865 0 0 0.87 0 0 0.875 0 0 0.88 0 0 0.885 0 0 0.89 0 0 0.895 0 0 0.9 0 0 0.905 0 0 0.91 0 0 0.915 0 0 0.92 0 0 0.925 0 0 0.93 0 0 0.935 0 0 0.94 0 0 0.945 0 0 0.95 0 0 0.955 0 0 0.96 0 0 0.965 0 0 0.97 0 0 0.975 0 0 0.98 0 0 0.985 0 0 0.99 0 0 0.995 0 0 1 0 0 0 0.02 0 0.005 0.02 0 0.01 0.02 0 0.015 0.02 0 0.02 0.02 0 0.025 0.02 0 0.03 0.02 0 0.035 0.02 0 0.04 0.02 0 0.045 0.02 0 0.05 0.02 0 0.055 0.02 0 0.06 0.02 0 0.065 0.02 0 0.07 0.02 0 0.075 0.02 0 0.08 0.02 0 0.085 0.02 0 0.09 0.02 0 0.095 0.02 0 0.1 0.02 0 0.105 0.02 0 0.11 0.02 0 0.115 0.02 0 0.12 0.02 0 0.125 0.02 0 0.13 0.02 0 0.135 0.02 0 0.14 0.02 0 0.145 0.02 0 0.15 0.02 0 0.155 0.02 0 0.16 0.02 0 0.165 0.02 0 0.17 0.02 0 0.175 0.02 0 0.18 0.02 0 0.185 0.02 0 0.19 0.02 0 0.195 0.02 0 0.2 0.02 0 0.205 0.02 0 0.21 0.02 0 0.215 0.02 0 0.22 0.02 0 0.225 0.02 0 0.23 0.02 0 0.235 0.02 0 0.24 0.02 0 0.245 0.02 0 0.25 0.02 0 0.255 0.02 0 0.26 0.02 0 0.265 0.02 0 0.27 0.02 0 0.275 0.02 0 0.28 0.02 0 0.285 0.02 0 0.29 0.02 0 0.295 0.02 0 0.3 0.02 0 0.305 0.02 0 0.31 0.02 0 0.315 0.02 0 0.32 0.02 0 0.325 0.02 0 0.33 0.02 0 0.335 0.02 0 0.34 0.02 0 0.345 0.02 0 0.35 0.02 0 0.355 0.02 0 0.36 0.02 0 0.365 0.02 0 0.37 0.02 0 0.375 0.02 0 0.38 0.02 0 0.385 0.02 0 0.39 0.02 0 0.395 0.02 0 0.4 0.02 0 0.405 0.02 0 0.41 0.02 0 0.415 0.02 0 0.42 0.02 0 0.425 0.02 0 0.43 0.02 0 0.435 0.02 0 0.44 0.02 0 0.445 0.02 0 0.45 0.02 0 0.455 0.02 0 0.46 0.02 0 0.465 0.02 0 0.47 0.02 0 0.475 0.02 0 0.48 0.02 0 0.485 0.02 0 0.49 0.02 0 0.495 0.02 0 0.5 0.02 0 0.505 0.02 0 0.51 0.02 0 0.515 0.02 0 0.52 0.02 0 0.525 0.02 0 0.53 0.02 0 0.535 0.02 0 0.54 0.02 0 0.545 0.02 0 0.55 0.02 0 0.555 0.02 0 0.56 0.02 0 0.565 0.02 0 0.57 0.02 0 0.575 0.02 0 0.58 0.02 0 0.585 0.02 0 0.59 0.02 0 0.595 0.02 0 0.6 0.02 0 0.605 0.02 0 0.61 0.02 0 0.615 0.02 0 0.62 0.02 0 0.625 0.02 0 0.63 0.02 0 0.635 0.02 0 0.64 0.02 0 0.645 0.02 0 0.65 0.02 0 0.655 0.02 0 0.66 0.02 0 0.665 0.02 0 0.67 0.02 0 0.675 0.02 0 0.68 0.02 0 0.685 0.02 0 0.69 0.02 0 0.695 0.02 0 0.7 0.02 0 0.705 0.02 0 0.71 0.02 0 0.715 0.02 0 0.72 0.02 0 0.725 0.02 0 0.73 0.02 0 0.735 0.02 0 0.74 0.02 0 0.745 0.02 0 0.75 0.02 0 0.755 0.02 0 0.76 0.02 0 0.765 0.02 0 0.77 0.02 0 0.775 0.02 0 0.78 0.02 0 0.785 0.02 0 0.79 0.02 0 0.795 0.02 0 0.8 0.02 0 0.805 0.02 0 0.81 0.02 0 0.815 0.02 0 0.82 0.02 0 0.825 0.02 0 0.83 0.02 0 0.835 0.02 0 0.84 0.02 0 0.845 0.02 0 0.85 0.02 0 0.855 0.02 0 0.86 0.02 0 0.865 0.02 0 0.87 0.02 0 0.875 0.02 0 0.88 0.02 0 0.885 0.02 0 0.89 0.02 0 0.895 0.02 0 0.9 0.02 0 0.905 0.02 0 0.91 0.02 0 0.915 0.02 0 0.92 0.02 0 0.925 0.02 0 0.93 0.02 0 0.935 0.02 0 0.94 0.02 0 0.945 0.02 0 0.95 0.02 0 0.955 0.02 0 0.96 0.02 0 0.965 0.02 0 0.97 0.02 0 0.975 0.02 0 0.98 0.02 0 0.985 0.02 0 0.99 0.02 0 0.995 0.02 0 1 0.02 0 0 0.04 0 0.005 0.04 0 0.01 0.04 0 0.015 0.04 0 0.02 0.04 0 0.025 0.04 0 0.03 0.04 0 0.035 0.04 0 0.04 0.04 0 0.045 0.04 0 0.05 0.04 0 0.055 0.04 0 0.06 0.04 0 0.065 0.04 0 0.07 0.04 0 0.075 0.04 0 0.08 0.04 0 0.085 0.04 0 0.09 0.04 0 0.095 0.04 0 0.1 0.04 0 0.105 0.04 0 0.11 0.04 0 0.115 0.04 0 0.12 0.04 0 0.125 0.04 0 0.13 0.04 0 0.135 0.04 0 0.14 0.04 0 0.145 0.04 0 0.15 0.04 0 0.155 0.04 0 0.16 0.04 0 0.165 0.04 0 0.17 0.04 0 0.175 0.04 0 0.18 0.04 0 0.185 0.04 0 0.19 0.04 0 0.195 0.04 0 0.2 0.04 0 0.205 0.04 0 0.21 0.04 0 0.215 0.04 0 0.22 0.04 0 0.225 0.04 0 0.23 0.04 0 0.235 0.04 0 0.24 0.04 0 0.245 0.04 0 0.25 0.04 0 0.255 0.04 0 0.26 0.04 0 0.265 0.04 0 0.27 0.04 0 0.275 0.04 0 0.28 0.04 0 0.285 0.04 0 0.29 0.04 0 0.295 0.04 0 0.3 0.04 0 0.305 0.04 0 0.31 0.04 0 0.315 0.04 0 0.32 0.04 0 0.325 0.04 0 0.33 0.04 0 0.335 0.04 0 0.34 0.04 0 0.345 0.04 0 0.35 0.04 0 0.355 0.04 0 0.36 0.04 0 0.365 0.04 0 0.37 0.04 0 0.375 0.04 0 0.38 0.04 0 0.385 0.04 0 0.39 0.04 0 0.395 0.04 0 0.4 0.04 0 0.405 0.04 0 0.41 0.04 0 0.415 0.04 0 0.42 0.04 0 0.425 0.04 0 0.43 0.04 0 0.435 0.04 0 0.44 0.04 0 0.445 0.04 0 0.45 0.04 0 0.455 0.04 0 0.46 0.04 0 0.465 0.04 0 0.47 0.04 0 0.475 0.04 0 0.48 0.04 0 0.485 0.04 0 0.49 0.04 0 0.495 0.04 0 0.5 0.04 0 0.505 0.04 0 0.51 0.04 0 0.515 0.04 0 0.52 0.04 0 0.525 0.04 0 0.53 0.04 0 0.535 0.04 0 0.54 0.04 0 0.545 0.04 0 0.55 0.04 0 0.555 0.04 0 0.56 0.04 0 0.565 0.04 0 0.57 0.04 0 0.575 0.04 0 0.58 0.04 0 0.585 0.04 0 0.59 0.04 0 0.595 0.04 0 0.6 0.04 0 0.605 0.04 0 0.61 0.04 0 0.615 0.04 0 0.62 0.04 0 0.625 0.04 0 0.63 0.04 0 0.635 0.04 0 0.64 0.04 0 0.645 0.04 0 0.65 0.04 0 0.655 0.04 0 0.66 0.04 0 0.665 0.04 0 0.67 0.04 0 0.675 0.04 0 0.68 0.04 0 0.685 0.04 0 0.69 0.04 0 0.695 0.04 0 0.7 0.04 0 0.705 0.04 0 0.71 0.04 0 0.715 0.04 0 0.72 0.04 0 0.725 0.04 0 0.73 0.04 0 0.735 0.04 0 0.74 0.04 0 0.745 0.04 0 0.75 0.04 0 0.755 0.04 0 0.76 0.04 0 0.765 0.04 0 0.77 0.04 0 0.775 0.04 0 0.78 0.04 0 0.785 0.04 0 0.79 0.04 0 0.795 0.04 0 0.8 0.04 0 0.805 0.04 0 0.81 0.04 0 0.815 0.04 0 0.82 0.04 0 0.825 0.04 0 0.83 0.04 0 0.835 0.04 0 0.84 0.04 0 0.845 0.04 0 0.85 0.04 0 0.855 0.04 0 0.86 0.04 0 0.865 0.04 0 0.87 0.04 0 0.875 0.04 0 0.88 0.04 0 0.885 0.04 0 0.89 0.04 0 0.895 0.04 0 0.9 0.04 0 0.905 0.04 0 0.91 0.04 0 0.915 0.04 0 0.92 0.04 0 0.925 0.04 0 0.93 0.04 0 0.935 0.04 0 0.94 0.04 0 0.945 0.04 0 0.95 0.04 0 0.955 0.04 0 0.96 0.04 0 0.965 0.04 0 0.97 0.04 0 0.975 0.04 0 0.98 0.04 0 0.985 0.04 0 0.99 0.04 0 0.995 0.04 0 1 0.04 0 0 0.06 0 0.005 0.06 0 0.01 0.06 0 0.015 0.06 0 0.02 0.06 0 0.025 0.06 0 0.03 0.06 0 0.035 0.06 0 0.04 0.06 0 0.045 0.06 0 0.05 0.06 0 0.055 0.06 0 0.06 0.06 0 0.065 0.06 0 0.07 0.06 0 0.075 0.06 0 0.08 0.06 0 0.085 0.06 0 0.09 0.06 0 0.095 0.06 0 0.1 0.06 0 0.105 0.06 0 0.11 0.06 0 0.115 0.06 0 0.12 0.06 0 0.125 0.06 0 0.13 0.06 0 0.135 0.06 0 0.14 0.06 0 0.145 0.06 0 0.15 0.06 0 0.155 0.06 0 0.16 0.06 0 0.165 0.06 0 0.17 0.06 0 0.175 0.06 0 0.18 0.06 0 0.185 0.06 0 0.19 0.06 0 0.195 0.06 0 0.2 0.06 0 0.205 0.06 0 0.21 0.06 0 0.215 0.06 0 0.22 0.06 0 0.225 0.06 0 0.23 0.06 0 0.235 0.06 0 0.24 0.06 0 0.245 0.06 0 0.25 0.06 0 0.255 0.06 0 0.26 0.06 0 0.265 0.06 0 0.27 0.06 0 0.275 0.06 0 0.28 0.06 0 0.285 0.06 0 0.29 0.06 0 0.295 0.06 0 0.3 0.06 0 0.305 0.06 0 0.31 0.06 0 0.315 0.06 0 0.32 0.06 0 0.325 0.06 0 0.33 0.06 0 0.335 0.06 0 0.34 0.06 0 0.345 0.06 0 0.35 0.06 0 0.355 0.06 0 0.36 0.06 0 0.365 0.06 0 0.37 0.06 0 0.375 0.06 0 0.38 0.06 0 0.385 0.06 0 0.39 0.06 0 0.395 0.06 0 0.4 0.06 0 0.405 0.06 0 0.41 0.06 0 0.415 0.06 0 0.42 0.06 0 0.425 0.06 0 0.43 0.06 0 0.435 0.06 0 0.44 0.06 0 0.445 0.06 0 0.45 0.06 0 0.455 0.06 0 0.46 0.06 0 0.465 0.06 0 0.47 0.06 0 0.475 0.06 0 0.48 0.06 0 0.485 0.06 0 0.49 0.06 0 0.495 0.06 0 0.5 0.06 0 0.505 0.06 0 0.51 0.06 0 0.515 0.06 0 0.52 0.06 0 0.525 0.06 0 0.53 0.06 0 0.535 0.06 0 0.54 0.06 0 0.545 0.06 0 0.55 0.06 0 0.555 0.06 0 0.56 0.06 0 0.565 0.06 0 0.57 0.06 0 0.575 0.06 0 0.58 0.06 0 0.585 0.06 0 0.59 0.06 0 0.595 0.06 0 0.6 0.06 0 0.605 0.06 0 0.61 0.06 0 0.615 0.06 0 0.62 0.06 0 0.625 0.06 0 0.63 0.06 0 0.635 0.06 0 0.64 0.06 0 0.645 0.06 0 0.65 0.06 0 0.655 0.06 0 0.66 0.06 0 0.665 0.06 0 0.67 0.06 0 0.675 0.06 0 0.68 0.06 0 0.685 0.06 0 0.69 0.06 0 0.695 0.06 0 0.7 0.06 0 0.705 0.06 0 0.71 0.06 0 0.715 0.06 0 0.72 0.06 0 0.725 0.06 0 0.73 0.06 0 0.735 0.06 0 0.74 0.06 0 0.745 0.06 0 0.75 0.06 0 0.755 0.06 0 0.76 0.06 0 0.765 0.06 0 0.77 0.06 0 0.775 0.06 0 0.78 0.06 0 0.785 0.06 0 0.79 0.06 0 0.795 0.06 0 0.8 0.06 0 0.805 0.06 0 0.81 0.06 0 0.815 0.06 0 0.82 0.06 0 0.825 0.06 0 0.83 0.06 0 0.835 0.06 0 0.84 0.06 0 0.845 0.06 0 0.85 0.06 0 0.855 0.06 0 0.86 0.06 0 0.865 0.06 0 0.87 0.06 0 0.875 0.06 0 0.88 0.06 0 0.885 0.06 0 0.89 0.06 0 0.895 0.06 0 0.9 0.06 0 0.905 0.06 0 0.91 0.06 0 0.915 0.06 0 0.92 0.06 0 0.925 0.06 0 0.93 0.06 0 0.935 0.06 0 0.94 0.06 0 0.945 0.06 0 0.95 0.06 0 0.955 0.06 0 0.96 0.06 0 0.965 0.06 0 0.97 0.06 0 0.975 0.06 0 0.98 0.06 0 0.985 0.06 0 0.99 0.06 0 0.995 0.06 0 1 0.06 0 0 0.08 0 0.005 0.08 0 0.01 0.08 0 0.015 0.08 0 0.02 0.08 0 0.025 0.08 0 0.03 0.08 0 0.035 0.08 0 0.04 0.08 0 0.045 0.08 0 0.05 0.08 0 0.055 0.08 0 0.06 0.08 0 0.065 0.08 0 0.07 0.08 0 0.075 0.08 0 0.08 0.08 0 0.085 0.08 0 0.09 0.08 0 0.095 0.08 0 0.1 0.08 0 0.105 0.08 0 0.11 0.08 0 0.115 0.08 0 0.12 0.08 0 0.125 0.08 0 0.13 0.08 0 0.135 0.08 0 0.14 0.08 0 0.145 0.08 0 0.15 0.08 0 0.155 0.08 0 0.16 0.08 0 0.165 0.08 0
[...]
			<PointData Scalars="VitesseX">
				<DataArray Name="VitesseX" type="Float32" format="ascii">
 0 9.95081e-16 -1.40801e-14 -4.04252e-14 -1.4308e-15 -2.09434e-14 -3.6068e-14 1.50988e-14 3.63754e-14 -6.84481e-15 4.51102e-14 -2.47189e-14 -1.11022e-13 9.09405e-14 -9.17411e-14 -2.67184e-14 2.24474e-14 -5.42243e-14 -1.81046e-14 -1.64727e-14 -9.64147e-14 -9.77618e-14 9.32068e-14 -1.15482e-13 -1.45274e-13 4.36541e-14 2.87624e-14 -1.97893e-13 -5.35815e-14 -1.87381e-13 -1.95113e-13 -1.6625e-13 -1.30525e-13 -1.84157e-13 -1.35262e-13 -5.54194e-14 -8.16211e-14 -5.54105e-15 3.24902e-14 1.23339e-13 5.87981e-14 -3.03638e-14 1.706e-13 -1.53364e-13 6.58471e-15 -1.79125e-13 -1.71761e-13 -1.89919e-13 -1.42714e-13 2.3996e-14 -1.82041e-13 -1.15219e-13 1.78112e-13 -3.8941e-13 -1.26029e-13 4.68727e-14 -4.59771e-13 1.25995e-13 -6.26598e-14 -5.98264e-14 3.03276e-13 3.53337e-12 2.94716e-11 2.38e-10 1.79592e-09 1.2591e-08 8.17124e-08 4.88615e-07 2.67846e-06 1.338e-05 6.04773e-05 0.000245219 0.000882708 0.00278678 0.00762027 0.0178914 0.0360397 0.0627325 0.0961602 0.133363 0.172039 0.211025 0.249887 0.288551 0.326945 0.365025 0.402755 0.440104 0.477046 0.513553 0.549597 0.585141 0.62014 0.654531 0.688229 0.72112 0.753045 0.783796 0.813103 0.840623 0.865945 0.888601 0.908093 0.92395 0.935773 0.943409 0.944351 0.943916 0.942846 0.941388 0.939744 0.938057 0.936425 0.934927 0.933621 0.932508 0.931409 0.929849 0.934059 0.957967 0.953877 0.937644 0.930986 0.929506 0.92919 0.929092 0.928901 0.92834 0.926913 0.923707 0.917031 0.90416 0.881123 0.842711 0.783424 0.69921 0.589927 0.461804 0.328401 0.206505 0.112271 0.0525567 0.0217902 0.00839642 0.00311186 0.00112994 0.000405071 0.000143738 5.0515e-05 1.75793e-05 6.05513e-06 2.06335e-06 6.95244e-07 2.31535e-07 7.61771e-08 2.47515e-08 7.93945e-09 2.51333e-09 7.84642e-10 2.41488e-10 7.37963e-11 2.18421e-11 6.31639e-12 1.35428e-12 -2.17346e-13 -5.92905e-13 1.09995e-13 3.65058e-13 -2.51349e-13 -6.28218e-13 -4.87239e-13 -8.78398e-14 -2.05301e-13 4.16655e-13 -2.117e-13 -3.46241e-14 -1.96152e-13 3.82731e-13 -1.90785e-13 5.51912e-13 -5.72252e-13 -1.64039e-13 -2.10032e-13 -2.90744e-13 -3.30336e-14 -1.26401e-13 -2.22535e-13 -6.32315e-13 8.5792e-13 -6.68825e-13 4.6767e-14 2.75056e-13 -3.17689e-13 7.67955e-13 -8.07758e-14 3.05068e-14 5.5263e-13 -4.19972e-14 -2.85794e-13 -5.8315e-13 0 0 -1.35533e-14 -1.79349e-14 -2.52096e-15 -5.18008e-14 -2.26914e-14 6.85885e-15 -1.51714e-14 -1.07878e-15 3.8712e-14 -1.58891e-14 1.58985e-14 7.11912e-14 -1.28663e-13 4.46256e-15 -2.67313e-14 -2.38477e-14 -2.73044e-14 -3.54572e-14 -5.14701e-14 4.77834e-15 -2.21187e-14 -1.5597e-13 -3.47515e-14 7.25213e-14 -9.08438e-14 -1.54103e-13 -3.11624e-15 -1.92165e-13 -1.76722e-13 -7.4915e-14 -1.05717e-13 -2.18759e-13 -1.07958e-13 -1.89311e-13 -9.6684e-14 -4.74488e-14 -4.98885e-14 8.03421e-14 -5.88835e-14 3.00504e-14 8.32841e-14 -8.65635e-14 -1.69266e-15 -1.49651e-13 -8.58365e-14 -1.76348e-13 -1.43678e-13 -1.17629e-13 -1.35246e-13 1.36888e-14 -1.29908e-13 -2.41515e-13 1.73218e-13 -1.37076e-13 -2.83459e-13 1.31665e-13 -3.10099e-13 -1.07687e-13 1.21963e-13 4.49924e-13 3.35627e-12 2.94749e-11 2.38015e-10 1.79563e-09 1.25913e-08 8.17128e-08 4.88614e-07 2.67846e-06 1.338e-05 6.04773e-05 0.000245219 0.000882708 0.00278678 0.00762027 0.0178914 0.0360397 0.0627325 0.0961602 0.133363 0.172039 0.211025 0.249887 0.288551 0.326945 0.365025 0.402755 0.440104 0.477046 0.513553 0.549597 0.585141 0.62014 0.654531 0.688229 0.72112 0.753045 0.783796 0.813103 0.840623 0.865945 0.888601 0.908093 0.92395 0.935773 0.943409 0.944351 0.943916 0.942846 0.941388 0.939744 0.938057 0.936425 0.934927 0.933621 0.932508 0.931409 0.929849 0.934059 0.957967 0.953877 0.937644 0.930986 0.929506 0.92919 0.929092 0.928901 0.92834 0.926913 0.923707 0.917031 0.90416 0.881123 0.842711 0.783424 0.69921 0.589927 0.461804 0.328401 0.206505 0.112271 0.0525567 0.0217902 0.00839642 0.00311186 0.00112994 0.000405071 0.000143738 5.0515e-05 1.75793e-05 6.05513e-06 2.06335e-06 6.95245e-07 2.31535e-07 7.61776e-08 2.47515e-08 7.93954e-09 2.51336e-09 7.85121e-10 2.41774e-10 7.28364e-11 2.19517e-11 6.18458e-12 1.75901e-12 4.1604e-13 -3.34588e-13 -4.22263e-13 -4.99065e-13 -3.13551e-13 1.12493e-13 -2.64337e-13 -2.8781e-13 6.85775e-14 -5.39913e-13 2.14315e-13 1.47675e-13 1.0331e-13 -2.23816e-13 1.97477e-14 -2.50684e-13 2.62224e-13 4.76376e-14 -5.74252e-13 -2.71645e-13 1.36143e-13 -5.76507e-13 1.66077e-13 -2.31159e-13 -1.03829e-12 5.25056e-13 1.13634e-13 -2.95544e-13 3.23268e-13 -2.8166e-13 3.90288e-13 4.53955e-13 1.79857e-13 -5.15649e-13 6.65413e-13 4.07547e-13 0 0 -1.43874e-14 -1.47219e-14 -3.40999e-14 -8.73229e-15 -1.8246e-14 -3.04602e-14 -1.65135e-14 -3.49853e-14 2.71409e-14 -1.10145e-14 3.30481e-14 1.40752e-15 4.08892e-14 -6.84212e-14 -1.26235e-14 -1.17539e-14 2.79416e-14 1.95605e-14 -2.12004e-14 -8.06376e-14 -8.65418e-14 -3.56563e-14 1.24293e-14 -7.68872e-14 -6.04101e-14 -1.02802e-13 -1.68616e-13 -1.63082e-13 1.02533e-14 -5.29713e-14 -2.26236e-13 -1.60512e-13 -1.00502e-13 1.7772e-14 -1.49072e-13 -1.07043e-13 -5.40269e-14 -6.3017e-14 -7.28428e-14 -1.1152e-13 -1.05913e-13 4.85403e-14 3.60224e-14 -1.57124e-13 -1.59893e-13 -1.98137e-13 -4.26539e-14 6.23072e-14 9.6905e-15 -1.63772e-13 -2.70022e-14 6.34203e-15 -1.33562e-13 -2.16546e-13 4.82833e-14 -1.41889e-13 -2.20487e-13 7.60193e-14 -7.89665e-14 2.43739e-13 3.60292e-12 2.94657e-11 2.37966e-10 1.79572e-09 1.25913e-08 8.17129e-08 4.88614e-07 2.67846e-06 1.338e-05 6.04773e-05 0.000245219 0.000882708 0.00278678 0.00762027 0.0178914 0.0360397 0.0627325 0.0961602 0.133363 0.172039 0.211025 0.249887 0.288551 0.326945 0.365025 0.402755 0.440104 0.477046 0.513553 0.549597 0.585141 0.62014 0.654531 0.688229 0.72112 0.753045 0.783796 0.813103 0.840623 0.865945 0.888601 0.908093 0.92395 0.935773 0.943409 0.944351 0.943916 0.942846 0.941388 0.939744 0.938057 0.936425 0.934927 0.933621 0.932508 0.931409 0.929849 0.934059 0.957967 0.953877 0.937644 0.930986 0.929506 0.92919 0.929092 0.928901 0.92834 0.926913 0.923707 0.917031 0.90416 0.881123 0.842711 0.783424 0.69921 0.589927 0.461804 0.328401 0.206505 0.112271 0.0525567 0.0217902 0.00839642 0.00311186 0.00112994 0.000405071 0.000143738 5.0515e-05 1.75793e-05 6.05513e-06 2.06335e-06 6.95245e-07 2.31535e-07 7.61774e-08 2.47519e-08 7.93973e-09 2.51367e-09 7.85012e-10 2.4164e-10 7.34309e-11 2.18492e-11 6.41678e-12 1.56831e-12 2.50321e-13 3.11113e-13 -7.21108e-13 -2.77476e-13 -1.60919e-13 -5.58942e-13 -4.26838e-14 -2.93992e-13 -5.59637e-13 2.58426e-13 -6.51288e-14 -1.50306e-13 2.54996e-13 -3.78937e-13 1.81076e-13 -4.54573e-13 -1.52125e-13 -2.71236e-13 -2.26363e-13 4.26683e-14 -2.13616e-13 -3.09654e-13 -2.29745e-13 -2.90437e-13 1.90807e-13 -4.37172e-13 -2.25364e-13 2.05387e-13 2.10486e-13 1.49426e-13 -2.83404e-13 2.4295e-13 1.82845e-13 2.55416e-13 -1.37957e-13 -2.64729e-13 0 0 -1.21473e-14 -2.66352e-14 -2.26648e-14 -2.1687e-14 -2.81516e-14 -1.6969e-14 -1.55112e-14 -2.3743e-14 -1.26576e-16 1.17e-14 3.15845e-14 -1.67696e-14 3.38536e-14 -1.93076e-14 -2.93143e-14 2.59842e-14 2.67368e-14 -9.08998e-16 7.21989e-14 -4.49017e-14 -1.13292e-13 -1.87775e-14 -6.21382e-14 -7.78915e-14 -9.40227e-14 -5.80508e-14 -1.79855e-13 -9.64211e-14 -6.84225e-14 -1.23551e-13 -9.75856e-14 -3.46631e-14 -6.75862e-14 -1.29135e-13 -3.02444e-14 -8.08103e-14 -1.59758e-13 -6.15888e-14 1.63052e-13 -4.16239e-14 -1.71191e-13 -1.08155e-13 -1.07204e-13 7.93134e-15 -1.49507e-13 -6.11593e-14 -9.51567e-14 -5.2614e-14 9.94646e-14 3.52561e-14 -1.80584e-13 9.34452e-14 -2.81036e-13 8.96509e-14 -5.32294e-15 -2.98947e-13 -8.1346e-14 -1.04368e-13 5.1953e-14 2.5298e-13 3.36589e-12 2.95612e-11 2.38068e-10 1.79604e-09 1.25911e-08 8.17126e-08 4.88614e-07 2.67846e-06 1.338e-05 6.04773e-05 0.000245219 0.000882708 0.00278678 0.00762027 0.0178914 0.0360397 0.0627325 0.0961602 0.133363 0.172039 0.211025 0.249887 0.288551 0.326945 0.365025 0.402755 0.440104 0.477046 0.513553 0.549597 0.585141 0.62014 0.654531 0.688229 0.72112 0.753045 0.783796 0.813103 0.840623 0.865945 0.888601 0.908093 0.92395 0.935773 0.943409 0.944351 0.943916 0.942846 0.941388 0.939744 0.938057 0.936425 0.934927 0.933621 0.932508 0.931409 0.929849 0.934059 0.957967 0.953877 0.937644 0.930986 0.929506 0.92919 0.929092 0.928901 0.92834 0.926913 0.923707 0.917031 0.90416 0.881123 0.842711 0.783424 0.69921 0.589927 0.461804 0.328401 0.206505 0.112271 0.0525567 0.0217902 0.00839642 0.00311186 0.00112994 0.000405071 0.000143738 5.0515e-05 1.75793e-05 6.05513e-06 2.06335e-06 6.95245e-07 2.31535e-07 7.61775e-08 2.47516e-08 7.93968e-09 2.51348e-09 7.84992e-10 2.42179e-10 7.3588e-11 2.1718e-11 6.57223e-12 1.57635e-12 6.06059e-13 -3.67231e-13 -2.97334e-13 2.03301e-14 -1.17895e-13 -2.62087e-13 -1.32768e-12 1.883e-13 -1.48993e-13 2.3041e-13 5.5894e-16 -5.34378e-13 -2.0633e-13 3.41373e-13 -5.39639e-13 2.01247e-13 -1.37515e-13 -7.02012e-13 -6.88342e-13 -1.16859e-13 -3.49136e-13 -8.36591e-14 9.52017e-15 -1.7676e-13 2.29139e-13 8.12086e-14 2.9984e-13 -2.17685e-13 -4.62893e-14 2.29276e-13 2.99172e-13 3.2965e-14 7.38768e-13 -2.5977e-13 -6.8535e-13 4.05649e-13 0 0 -8.69716e-15 -2.70802e-14 -2.656e-15 -5.14948e-14 -3.61785e-14 6.98319e-15 -4.41961e-14 -9.98221e-16 3.30859e-14 1.4676e-14 1.93956e-14 5.98839e-14 -1.03644e-13 6.27555e-14 -1.29148e-14 -1.34948e-14 9.61547e-15 -2.97336e-14 3.33922e-14 3.29641e-14 -5.62678e-14 -2.02109e-13 -9.19814e-14 6.30326e-14 -1.46124e-13 -9.74496e-14 -1.55412e-14 -1.28429e-13 -1.38555e-13 -1.30033e-13 -5.26453e-14 -5.79951e-14 -7.27769e-14 -1.96321e-13 3.4345e-14 1.23559e-13 -5.79053e-14 -1.64296e-14 3.11449e-14 4.33275e-14 -2.98763e-14 -3.17936e-13 -6.67751e-14 -7.79393e-14 -8.76667e-14 -4.7683e-14 -1.57251e-13 -2.63615e-13 -8.83237e-14 2.15817e-13 -8.14173e-14 -1.88629e-13 1.28689e-13 1.54255e-13 -3.84701e-13 1.16639e-13 -2.67649e-13 -1.1443e-13 1.72512e-13 6.18527e-13 3.38745e-12 2.95438e-11 2.38165e-10 1.79585e-09 1.25915e-08 8.17126e-08 4.88614e-07 2.67846e-06 1.338e-05 6.04773e-05 0.000245219 0.000882708 0.00278678 0.00762027 0.0178914 0.0360397 0.0627325 0.0961602 0.133363 0.172039 0.211025 0.249887 0.288551 0.326945 0.365025 0.402755 0.440104 0.477046 0.513553 0.549597 0.585141 0.62014 0.654531 0.688229 0.72112 0.753045 0.783796 0.813103 0.840623 0.865945 0.888601 0.908093 0.92395 0.935773 0.943409 0.944351 0.943916 0.942846 0.941388 0.939744 0.938057 0.936425 0.934927 0.933621 0.932508 0.931409 0.929849 0.934059 0.957967 0.953877 0.937644 0.930986 0.929506 0.92919 0.929092 0.928901 0.92834 0.926913 0.923707 0.917031 0.90416 0.881123 0.842711 0.783424 0.69921 0.589927 0.461804 0.328401 0.206505 0.112271 0.0525567 0.0217902 0.00839642 0.00311186 0.00112994 0.000405071 0.000143738 5.0515e-05 1.75793e-05 6.05513e-06 2.06335e-06 6.95245e-07 2.31535e-07 7.61778e-08 2.47513e-08 7.93981e-09 2.51366e-09 7.852e-10 2.42008e-10 7.29623e-11 2.17657e-11 6.36527e-12 1.93788e-12 3.27796e-13 -5.04017e-13 -1.98094e-13 -2.30802e-13 -2.46861e-13 2.91374e-13 -9.08183e-13 -1.90399e-13 1.93791e-13 -6.59358e-13 1.55776e-13 -1.3063e-13 -2.31743e-13 4.97558e-13 -3.0882e-13 -1.47267e-13 2.64108e-13 -7.32922e-14 -7.74165e-13 -3.89403e-13 -2.72511e-13 -6.45901e-13 2.35837e-13 -6.45169e-14 -8.43974e-13 1.30757e-12 5.16135e-13 -1.81126e-13 1.91564e-13 -4.01828e-13 4.64717e-13 -1.61825e-13 5.9829e-14 -4.16902e-13 3.14038e-13 9.23666e-13 0 0 6.22705e-15 -8.54418e-15 -6.35654e-14 2.50905e-14 -2.81064e-14 -6.28017e-14 -4.49551e-14 1.40521e-14 3.6438e-14 6.08114e-14 -1.47974e-14 -9.72824e-14 1.55049e-13 -7.33825e-14 3.42962e-14 -3.23229e-14 2.20252e-14 3.42816e-14 -3.35465e-14 -1.11515e-13 -1.1256e-13 -3.28292e-14 -8.08074e-14 -1.62243e-13 3.17824e-16 5.25671e-14 -2.00264e-13 -5.94304e-14 4.63061e-14 -1.64189e-13 -3.17407e-13 -6.06954e-14 -1.79625e-13 1.44532e-13 -3.10174e-14 2.07929e-13 1.89887e-13 -1.63909e-13 -1.68393e-13 -5.44389e-14 -1.26128e-13 2.12459e-14 2.92522e-15 -1.80104e-13 -2.03556e-13 -1.88387e-13 -1.1206e-13 -2.04845e-13 -6.17078e-14 -1.75843e-13 2.88926e-13 1.09676e-13 -1.83519e-13 -1.55758e-13 -4.83984e-14 -1.75708e-13 -6.73866e-14 2.84629e-13 -2.20566e-13 6.21998e-13 4.06979e-12 2.94185e-11 2.38096e-10 1.79573e-09 1.25915e-08 8.17127e-08 4.88614e-07 2.67846e-06 1.338e-05 6.04773e-05 0.000245219 0.000882708 0.00278678 0.00762027 0.0178914 0.0360397 0.0627325 0.0961602 0.133363 0.172039 0.211025 0.249887 0.288551 0.326945 0.365025 0.402755 0.440104 0.477046 0.513553 0.549597 0.585141 0.62014 0.654531 0.688229 0.72112 0.753045 0.783796 0.813103 0.840623 0.865945 0.888601 0.908093 0.92395 0.935773 0.943409 0.944351 0.943916 0.942846 0.941388 0.939744 0.938057 0.936425 0.934927 0.933621 0.932508 0.931409 0.929849 0.934059 0.957967 0.953877 0.937644 0.930986 0.929506 0.92919 0.929092 0.928901 0.92834 0.926913 0.923707 0.917031 0.90416 0.881123 0.842711 0.783424 0.69921 0.589927 0.461804 0.328401 0.206505 0.112271 0.0525567 0.0217902 0.00839642 0.00311186 0.00112994 0.000405071 0.000143738 5.0515e-05 1.75793e-05 6.05513e-06 2.06335e-06 6.95245e-07 2.31535e-07 7.61772e-08 2.47517e-08 7.94009e-09 2.5143e-09 7.84838e-10 2.40875e-10 7.37339e-11 2.17325e-11 6.36686e-12 1.69592e-12 -1.10531e-12 4.24924e-13 -2.89215e-13 3.05973e-13 -2.04017e-13 -8.64165e-13 7.95056e-13 -8.57601e-13 -7.76162e-13 2.33797e-13 -4.60154e-13 1.7691e-13 5.63939e-14 3.84859e-13 5.9351e-13 -5.52894e-13 -5.97705e-13 4.55654e-13 3.14099e-13 -2.07207e-13 -5.79302e-13 -7.17179e-13 -5.61547e-13 -5.26386e-13 1.16989e-12 -1.40551e-13 -1.98638e-13 1.35004e-12 -6.75466e-14 3.6792e-13 -1.09707e-12 -7.81085e-13 -7.99271e-13 1.18587e-12 1.06242e-13 -8.91667e-13 0
				</DataArray>
				<DataArray Name="VitesseY" type="Float32" format="ascii">